<event>
 4    1  0.1308745E-008  0.2547419E+04  0.7816531E-02  0.8386284E-01
          2   -1    0    0  501    0  0.00000000000E+00  0.00000000000E+00  0.12454093764E+04  0.12454093764E+04  0.00000000000E+00 0.  1.
         -2   -1    0    0    0  501 -0.00000000000E+00 -0.00000000000E+00 -0.13026528350E+04  0.13026528350E+04  0.00000000000E+00 0. -1.
    2000013    1    1    2    0    0  0.56876471804E+03  0.48864056512E+03 -0.42567678298E+03  0.12829511409E+04  0.95000000000E+03 0.  0.
   -2000013    1    1    2    0    0 -0.56876471804E+03 -0.48864056512E+03  0.36843332439E+03  0.12651110706E+04  0.95000000000E+03 0.  0.
<mgrwt>
<rscale>  0 0.25474191E+04</rscale>
<asrwt>0</asrwt>
<pdfrwt beam="1">  1        2 0.19160144E+00 0.25474191E+04</pdfrwt>
<pdfrwt beam="2">  1       -2 0.20040813E+00 0.25474191E+04</pdfrwt>
<totfact> 0.20901000E+00</totfact>
</mgrwt>
</event>
<event>
 4    1  0.1308745E-008  0.3485453E+04  0.7816531E-02  0.8117246E-01
          2   -1    0    0  501    0  0.00000000000E+00  0.00000000000E+00  0.17770404960E+04  0.17770404960E+04  0.00000000000E+00 0.  1.
         -2   -1    0    0    0  501 -0.00000000000E+00 -0.00000000000E+00 -0.17090750472E+04  0.17090750472E+04  0.00000000000E+00 0. -1.
    2000013    1    1    2    0    0  0.33559466243E+03 -0.13451772500E+04 -0.42704953902E+03  0.17340694681E+04  0.95000000000E+03 0.  0.
   -2000013    1    1    2    0    0 -0.33559466243E+03  0.13451772500E+04  0.49501498782E+03  0.17520460752E+04  0.95000000000E+03 0.  0.
<mgrwt>
<rscale>  0 0.34854530E+04</rscale>
<asrwt>0</asrwt>
<pdfrwt beam="1">  1        2 0.27339085E+00 0.34854530E+04</pdfrwt>
<pdfrwt beam="2">  1       -2 0.26293462E+00 0.34854530E+04</pdfrwt>
<totfact> 0.39135947E-01</totfact>
</mgrwt>
</event>
<event>
 4    1  0.1308745E-008  0.2341156E+04  0.7816531E-02  0.8461868E-01
         -2   -1    0    0    0  501 -0.00000000000E+00  0.00000000000E+00  0.16361267902E+04  0.16361267902E+04  0.00000000000E+00 0. -1.
          2   -1    0    0  501    0  0.00000000000E+00 -0.00000000000E+00 -0.83749815411E+03  0.83749815411E+03  0.00000000000E+00 0.  1.
    2000013    1    1    2    0    0 -0.16778425932E+02 -0.68354351269E+03  0.38294862894E+03  0.12315286849E+04  0.95000000000E+03 0.  0.
   -2000013    1    1    2    0    0  0.16778425932E+02  0.68354351269E+03  0.41568000716E+03  0.12420962594E+04  0.95000000000E+03 0.  0.
<mgrwt>
<rscale>  0 0.23411563E+04</rscale>
<asrwt>0</asrwt>
<pdfrwt beam="2">  1        2 0.12884587E+00 0.23411563E+04</pdfrwt>
<pdfrwt beam="1">  1       -2 0.25171181E+00 0.23411563E+04</pdfrwt>
<totfact> 0.18351775E+00</totfact>
</mgrwt>
</event>
<event>
 4    1  0.1308745E-008  0.2724077E+04  0.7816531E-02  0.8327235E-01
         -2   -1    0    0    0  501 -0.00000000000E+00  0.00000000000E+00  0.12561196038E+04  0.12561196038E+04  0.00000000000E+00 0. -1.
          2   -1    0    0  501    0  0.00000000000E+00 -0.00000000000E+00 -0.14768889873E+04  0.14768889873E+04  0.00000000000E+00 0.  1.
    2000013    1    1    2    0    0 -0.35474733905E+02 -0.97347095584E+03 -0.17178215701E+03  0.13714639142E+04  0.95000000000E+03 0.  0.
   -2000013    1    1    2    0    0  0.35474733905E+02  0.97347095584E+03 -0.48987226542E+02  0.13615446768E+04  0.95000000000E+03 0.  0.
<mgrwt>
<rscale>  0 0.27240772E+04</rscale>
<asrwt>0</asrwt>
<pdfrwt beam="2">  1        2 0.22721369E+00 0.27240772E+04</pdfrwt>
<pdfrwt beam="1">  1       -2 0.19324917E+00 0.27240772E+04</pdfrwt>
<totfact> 0.16888592E+00</totfact>
</mgrwt>
</event>
<event>
 4    1  0.1308745E-008  0.2292634E+04  0.7816531E-02  0.8480831E-01
         -2   -1    0    0    0  501 -0.00000000000E+00  0.00000000000E+00  0.14885831329E+04  0.14885831329E+04  0.00000000000E+00 0. -1.
          2   -1    0    0  501    0  0.00000000000E+00 -0.00000000000E+00 -0.88274727958E+03  0.88274727958E+03  0.00000000000E+00 0.  1.
    2000013    1    1    2    0    0 -0.48534194449E+03 -0.40389361359E+03  0.42019357657E+03  0.12156272027E+04  0.95000000000E+03 0.  0.
   -2000013    1    1    2    0    0  0.48534194449E+03  0.40389361359E+03  0.18564227678E+03  0.11557032098E+04  0.95000000000E+03 0.  0.
<mgrwt>
<rscale>  0 0.22926340E+04</rscale>
<asrwt>0</asrwt>
<pdfrwt beam="2">  1        2 0.13580727E+00 0.22926340E+04</pdfrwt>
<pdfrwt beam="1">  1       -2 0.22901279E+00 0.22926340E+04</pdfrwt>
<totfact> 0.23694585E+00</totfact>
</mgrwt>
</event>
<event>
 4    1  0.1308745E-008  0.2925769E+04  0.7816531E-02  0.8265251E-01
         -2   -1    0    0    0  501 -0.00000000000E+00  0.00000000000E+00  0.14463568902E+04  0.14463568902E+04  0.00000000000E+00 0. -1.
          2   -1    0    0  501    0  0.00000000000E+00 -0.00000000000E+00 -0.14796013370E+04  0.14796013370E+04  0.00000000000E+00 0.  1.
    2000013    1    1    2    0    0  0.11031467336E+04  0.75423640004E+02  0.10549277279E+03  0.14615916551E+04  0.95000000000E+03 0.  0.
   -2000013    1    1    2    0    0 -0.11031467336E+04 -0.75423640004E+02 -0.13873721966E+03  0.14643665721E+04  0.95000000000E+03 0.  0.
<mgrwt>
<rscale>  0 0.29257694E+04</rscale>
<asrwt>0</asrwt>
<pdfrwt beam="2">  1        2 0.22763098E+00 0.29257694E+04</pdfrwt>
<pdfrwt beam="1">  1       -2 0.22251644E+00 0.29257694E+04</pdfrwt>
<totfact> 0.10697438E+00</totfact>
</mgrwt>
</event>
<event>
 4    1  0.1308745E-008  0.3330046E+04  0.7816531E-02  0.8155292E-01
         -2   -1    0    0    0  501 -0.00000000000E+00  0.00000000000E+00  0.10827330516E+04  0.10827330516E+04  0.00000000000E+00 0. -1.
          2   -1    0    0  501    0  0.00000000000E+00 -0.00000000000E+00 -0.25604657787E+04  0.25604657787E+04  0.00000000000E+00 0.  1.
    2000013    1    1    2    0    0 -0.51531626573E+03 -0.50231994657E+03 -0.20109303328E+04  0.23375664666E+04  0.95000000000E+03 0.  0.
   -2000013    1    1    2    0    0  0.51531626573E+03  0.50231994657E+03  0.53319760568E+03  0.13056323637E+04  0.95000000000E+03 0.  0.
<mgrwt>
<rscale>  0 0.33300456E+04</rscale>
<asrwt>0</asrwt>
<pdfrwt beam="2">  1        2 0.39391781E+00 0.33300456E+04</pdfrwt>
<pdfrwt beam="1">  1       -2 0.16657432E+00 0.33300456E+04</pdfrwt>
<totfact> 0.60303840E-01</totfact>
</mgrwt>
</event>
<event>
 4    1  0.1308745E-008  0.2418017E+04  0.7816531E-02  0.8432789E-01
         -2   -1    0    0    0  501 -0.00000000000E+00  0.00000000000E+00  0.48753638522E+03  0.48753638522E+03  0.00000000000E+00 0. -1.
          2   -1    0    0  501    0  0.00000000000E+00 -0.00000000000E+00 -0.29981396094E+04  0.29981396094E+04  0.00000000000E+00 0.  1.
    2000013    1    1    2    0    0 -0.73564761338E+03 -0.20139949752E+02 -0.10639554874E+04  0.16050184759E+04  0.95000000000E+03 0.  0.
   -2000013    1    1    2    0    0  0.73564761338E+03  0.20139949752E+02 -0.14466477368E+04  0.18806575188E+04  0.95000000000E+03 0.  0.
<mgrwt>
<rscale>  0 0.24180175E+04</rscale>
<asrwt>0</asrwt>
<pdfrwt beam="2">  1        2 0.46125224E+00 0.24180175E+04</pdfrwt>
<pdfrwt beam="1">  1       -2 0.75005598E-01 0.24180175E+04</pdfrwt>
<totfact> 0.25037412E+00</totfact>
</mgrwt>
</event>
<event>
 4    1  0.1308745E-008  0.2813654E+04  0.7816531E-02  0.8299042E-01
          2   -1    0    0  501    0  0.00000000000E+00  0.00000000000E+00  0.26040066939E+04  0.26040066939E+04  0.00000000000E+00 0.  1.
         -2   -1    0    0    0  501 -0.00000000000E+00 -0.00000000000E+00 -0.76004488860E+03  0.76004488860E+03  0.00000000000E+00 0. -1.
    2000013    1    1    2    0    0  0.65542464538E+03 -0.70503562617E+03  0.45891239044E+03  0.14282007149E+04  0.95000000000E+03 0.  0.
   -2000013    1    1    2    0    0 -0.65542464538E+03  0.70503562617E+03  0.13850494149E+04  0.19358508676E+04  0.95000000000E+03 0.  0.
<mgrwt>
<rscale>  0 0.28136538E+04</rscale>
<asrwt>0</asrwt>
<pdfrwt beam="1">  1        2 0.40061641E+00 0.28136538E+04</pdfrwt>
<pdfrwt beam="2">  1       -2 0.11692998E+00 0.28136538E+04</pdfrwt>
<totfact> 0.14889084E+00</totfact>
</mgrwt>
</event>
<event>
 4    1  0.1308745E-008  0.2143495E+04  0.7816531E-02  0.8542322E-01
         -2   -1    0    0    0  501 -0.00000000000E+00  0.00000000000E+00  0.57977328458E+03  0.57977328458E+03  0.00000000000E+00 0. -1.
          2   -1    0    0  501    0  0.00000000000E+00 -0.00000000000E+00 -0.19811924107E+04  0.19811924107E+04  0.00000000000E+00 0.  1.
    2000013    1    1    2    0    0  0.29242544386E+03  0.40073468613E+03 -0.70840650250E+03  0.12846947893E+04  0.95000000000E+03 0.  0.
   -2000013    1    1    2    0    0 -0.29242544386E+03 -0.40073468613E+03 -0.69301262358E+03  0.12762709059E+04  0.95000000000E+03 0.  0.
<mgrwt>
<rscale>  0 0.21434947E+04</rscale>
<asrwt>0</asrwt>
<pdfrwt beam="2">  1        2 0.30479883E+00 0.21434947E+04</pdfrwt>
<pdfrwt beam="1">  1       -2 0.89195890E-01 0.21434947E+04</pdfrwt>
<totfact> 0.67803156E+00</totfact>
</mgrwt>
</event>
<event>
 4    1  0.1308745E-008  0.2071757E+04  0.7816531E-02  0.8573788E-01
          2   -1    0    0  501    0  0.00000000000E+00  0.00000000000E+00  0.27801920663E+04  0.27801920663E+04  0.00000000000E+00 0.  1.
         -2   -1    0    0    0  501 -0.00000000000E+00 -0.00000000000E+00 -0.38596051886E+03  0.38596051886E+03  0.00000000000E+00 0. -1.
    2000013    1    1    2    0    0  0.29171035002E+03 -0.28701478780E+03  0.12818191029E+04  0.16471286013E+04  0.95000000000E+03 0.  0.
   -2000013    1    1    2    0    0 -0.29171035002E+03  0.28701478780E+03  0.11124124446E+04  0.15190239839E+04  0.95000000000E+03 0.  0.
<mgrwt>
<rscale>  0 0.20717571E+04</rscale>
<asrwt>0</asrwt>
<pdfrwt beam="1">  1        2 0.42772184E+00 0.20717571E+04</pdfrwt>
<pdfrwt beam="2">  1       -2 0.59378543E-01 0.20717571E+04</pdfrwt>
<totfact> 0.58196310E+00</totfact>
</mgrwt>
</event>
<event>
 4    1  0.1308745E-008  0.2655492E+04  0.7816531E-02  0.8349592E-01
          2   -1    0    0  501    0  0.00000000000E+00  0.00000000000E+00  0.15425292246E+04  0.15425292246E+04  0.00000000000E+00 0.  1.
         -2   -1    0    0    0  501 -0.00000000000E+00 -0.00000000000E+00 -0.11428697978E+04  0.11428697978E+04  0.00000000000E+00 0. -1.
    2000013    1    1    2    0    0 -0.62120540160E+03 -0.68498594039E+03  0.12615197178E+03  0.13317342864E+04  0.95000000000E+03 0.  0.
   -2000013    1    1    2    0    0  0.62120540160E+03  0.68498594039E+03  0.27350745504E+03  0.13536647360E+04  0.95000000000E+03 0.  0.
<mgrwt>
<rscale>  0 0.26554925E+04</rscale>
<asrwt>0</asrwt>
<pdfrwt beam="1">  1        2 0.23731219E+00 0.26554925E+04</pdfrwt>
<pdfrwt beam="2">  1       -2 0.17582612E+00 0.26554925E+04</pdfrwt>
<totfact> 0.20508349E+00</totfact>
</mgrwt>
</event>
<event>
 4    1  0.1308745E-008  0.2490610E+04  0.7816531E-02  0.8406339E-01
          2   -1    0    0  501    0  0.00000000000E+00  0.00000000000E+00  0.35088921965E+04  0.35088921965E+04  0.00000000000E+00 0.  1.
         -2   -1    0    0    0  501 -0.00000000000E+00 -0.00000000000E+00 -0.44195830693E+03  0.44195830693E+03  0.00000000000E+00 0. -1.
    2000013    1    1    2    0    0  0.23166289084E+03 -0.43170250985E+02  0.27547651081E+04  0.29234845931E+04  0.95000000000E+03 0.  0.
   -2000013    1    1    2    0    0 -0.23166289084E+03  0.43170250985E+02  0.31216878152E+03  0.10273659103E+04  0.95000000000E+03 0.  0.
<mgrwt>
<rscale>  0 0.24906096E+04</rscale>
<asrwt>0</asrwt>
<pdfrwt beam="1">  1        2 0.53982955E+00 0.24906096E+04</pdfrwt>
<pdfrwt beam="2">  1       -2 0.67993588E-01 0.24906096E+04</pdfrwt>
<totfact> 0.14186638E+00</totfact>
</mgrwt>
</event>
<event>
 4    1  0.1308745E-008  0.2178607E+04  0.7816531E-02  0.8527386E-01
         -1   -1    0    0    0  501 -0.00000000000E+00  0.00000000000E+00  0.38934255442E+03  0.38934255442E+03  0.00000000000E+00 0.  1.
          1   -1    0    0  501    0  0.00000000000E+00 -0.00000000000E+00 -0.30476552019E+04  0.30476552019E+04  0.00000000000E+00 0. -1.
    2000013    1    1    2    0    0 -0.30249136894E+03 -0.36734576636E+03 -0.17079079915E+04  0.20114406896E+04  0.95000000000E+03 0.  0.
   -2000013    1    1    2    0    0  0.30249136894E+03  0.36734576636E+03 -0.95040465596E+03  0.14255570667E+04  0.95000000000E+03 0.  0.
<mgrwt>
<rscale>  0 0.21786068E+04</rscale>
<asrwt>0</asrwt>
<pdfrwt beam="2">  1        1 0.46887003E+00 0.21786068E+04</pdfrwt>
<pdfrwt beam="1">  1       -1 0.59898855E-01 0.21786068E+04</pdfrwt>
<totfact> 0.14254076E+00</totfact>
</mgrwt>
</event>
<event>
 4    1  0.1308745E-008  0.2227981E+04  0.7816531E-02  0.8506871E-01
          2   -1    0    0  501    0  0.00000000000E+00  0.00000000000E+00  0.26314402101E+04  0.26314402101E+04  0.00000000000E+00 0.  1.
         -2   -1    0    0    0  501 -0.00000000000E+00 -0.00000000000E+00 -0.47159525566E+03  0.47159525566E+03  0.00000000000E+00 0. -1.
    2000013    1    1    2    0    0 -0.51018205309E+03 -0.27888530092E+03  0.11081916753E+04  0.15711942997E+04  0.95000000000E+03 0.  0.
   -2000013    1    1    2    0    0  0.51018205309E+03  0.27888530092E+03  0.10516532792E+04  0.15318411660E+04  0.95000000000E+03 0.  0.
<mgrwt>
<rscale>  0 0.22279809E+04</rscale>
<asrwt>0</asrwt>
<pdfrwt beam="1">  1        2 0.40483695E+00 0.22279809E+04</pdfrwt>
<pdfrwt beam="2">  1       -2 0.72553118E-01 0.22279809E+04</pdfrwt>
<totfact> 0.45708510E+00</totfact>
</mgrwt>
</event>
<event>
 4    1  0.1308745E-008  0.2404870E+04  0.7816531E-02  0.8437683E-01
          2   -1    0    0  501    0  0.00000000000E+00  0.00000000000E+00  0.21643465319E+04  0.21643465319E+04  0.00000000000E+00 0.  1.
         -2   -1    0    0    0  501 -0.00000000000E+00 -0.00000000000E+00 -0.66803072606E+03  0.66803072606E+03  0.00000000000E+00 0. -1.
    2000013    1    1    2    0    0  0.35325249178E+03 -0.57862529567E+03  0.40730580585E+03  0.12361199680E+04  0.95000000000E+03 0.  0.
   -2000013    1    1    2    0    0 -0.35325249178E+03  0.57862529567E+03  0.10890100000E+04  0.15962572900E+04  0.95000000000E+03 0.  0.
<mgrwt>
<rscale>  0 0.24048700E+04</rscale>
<asrwt>0</asrwt>
<pdfrwt beam="1">  1        2 0.33297639E+00 0.24048700E+04</pdfrwt>
<pdfrwt beam="2">  1       -2 0.10277396E+00 0.24048700E+04</pdfrwt>
<totfact> 0.37610831E+00</totfact>
</mgrwt>
</event>
<event>
 4    1  0.1308745E-008  0.2390606E+04  0.7816531E-02  0.8443029E-01
          2   -1    0    0  501    0  0.00000000000E+00  0.00000000000E+00  0.32492085781E+04  0.32492085781E+04  0.00000000000E+00 0.  1.
         -2   -1    0    0    0  501 -0.00000000000E+00 -0.00000000000E+00 -0.43972224165E+03  0.43972224165E+03  0.00000000000E+00 0. -1.
    2000013    1    1    2    0    0  0.64019978607E+03  0.23181046187E+03  0.17910023074E+04  0.21386400168E+04  0.95000000000E+03 0.  0.
   -2000013    1    1    2    0    0 -0.64019978607E+03 -0.23181046187E+03  0.10184840291E+04  0.15502908030E+04  0.95000000000E+03 0.  0.
<mgrwt>
<rscale>  0 0.23906060E+04</rscale>
<asrwt>0</asrwt>
<pdfrwt beam="1">  1        2 0.49987823E+00 0.23906060E+04</pdfrwt>
<pdfrwt beam="2">  1       -2 0.67649578E-01 0.23906060E+04</pdfrwt>
<totfact> 0.21718079E+00</totfact>
</mgrwt>
</event>
<event>
 4    1  0.1308745E-008  0.2037120E+04  0.7816531E-02  0.8589460E-01
         -2   -1    0    0    0  501 -0.00000000000E+00  0.00000000000E+00  0.31103392147E+03  0.31103392147E+03  0.00000000000E+00 0. -1.
          2   -1    0    0  501    0  0.00000000000E+00 -0.00000000000E+00 -0.33355344991E+04  0.33355344991E+04  0.00000000000E+00 0.  1.
    2000013    1    1    2    0    0  0.40502866997E+02  0.31035121714E+03 -0.11678972370E+04  0.15376743206E+04  0.95000000000E+03 0.  0.
   -2000013    1    1    2    0    0 -0.40502866997E+02 -0.31035121714E+03 -0.18566033406E+04  0.21088940999E+04  0.95000000000E+03 0.  0.
<mgrwt>
<rscale>  0 0.20371199E+04</rscale>
<asrwt>0</asrwt>
<pdfrwt beam="2">  1        2 0.51315913E+00 0.20371199E+04</pdfrwt>
<pdfrwt beam="1">  1       -2 0.47851375E-01 0.20371199E+04</pdfrwt>
<totfact> 0.40578426E+00</totfact>
</mgrwt>
</event>
<event>
 4    1  0.1308745E-008  0.2235750E+04  0.7816531E-02  0.8503694E-01
         -2   -1    0    0    0  501 -0.00000000000E+00  0.00000000000E+00  0.10254004008E+04  0.10254004008E+04  0.00000000000E+00 0. -1.
          2   -1    0    0  501    0  0.00000000000E+00 -0.00000000000E+00 -0.12186892185E+04  0.12186892185E+04  0.00000000000E+00 0.  1.
    2000013    1    1    2    0    0  0.10378899710E+03 -0.18349492851E+03 -0.64888016883E+03  0.11696101993E+04  0.95000000000E+03 0.  0.
   -2000013    1    1    2    0    0 -0.10378899710E+03  0.18349492851E+03  0.45559135115E+03  0.10744794200E+04  0.95000000000E+03 0.  0.
<mgrwt>
<rscale>  0 0.22357499E+04</rscale>
<asrwt>0</asrwt>
<pdfrwt beam="2">  1        2 0.18749065E+00 0.22357499E+04</pdfrwt>
<pdfrwt beam="1">  1       -2 0.15775391E+00 0.22357499E+04</pdfrwt>
<totfact> 0.44042920E+00</totfact>
</mgrwt>
</event>
<event>
 4    1  0.1308745E-008  0.2552951E+04  0.7816531E-02  0.8384361E-01
          2   -1    0    0  501    0  0.00000000000E+00  0.00000000000E+00  0.71730210401E+03  0.71730210401E+03  0.00000000000E+00 0.  1.
         -2   -1    0    0    0  501 -0.00000000000E+00 -0.00000000000E+00 -0.22715525374E+04  0.22715525374E+04  0.00000000000E+00 0. -1.
    2000013    1    1    2    0    0  0.69319179139E+03 -0.79594509311E+02 -0.13507177655E+04  0.17927042778E+04  0.95000000000E+03 0.  0.
   -2000013    1    1    2    0    0 -0.69319179139E+03  0.79594509311E+02 -0.20353266794E+03  0.11961503637E+04  0.95000000000E+03 0.  0.
<mgrwt>
<rscale>  0 0.25529508E+04</rscale>
<asrwt>0</asrwt>
<pdfrwt beam="1">  1        2 0.11035417E+00 0.25529508E+04</pdfrwt>
<pdfrwt beam="2">  1       -2 0.34946961E+00 0.25529508E+04</pdfrwt>
<totfact> 0.55318305E-01</totfact>
</mgrwt>
</event>
<event>
 4    1  0.1308745E-008  0.4231146E+04  0.7816531E-02  0.7959474E-01
         -2   -1    0    0    0  501 -0.00000000000E+00  0.00000000000E+00  0.36142229059E+04  0.36142229059E+04  0.00000000000E+00 0. -1.
          2   -1    0    0  501    0  0.00000000000E+00 -0.00000000000E+00 -0.12383431604E+04  0.12383431604E+04  0.00000000000E+00 0.  1.
    2000013    1    1    2    0    0  0.80571934055E+03 -0.14807768942E+04  0.21686726495E+04  0.29064626140E+04  0.95000000000E+03 0.  0.
   -2000013    1    1    2    0    0 -0.80571934055E+03  0.14807768942E+04  0.20720709596E+03  0.19461034522E+04  0.95000000000E+03 0.  0.
<mgrwt>
<rscale>  0 0.42311456E+04</rscale>
<asrwt>0</asrwt>
<pdfrwt beam="2">  1        2 0.19051433E+00 0.42311456E+04</pdfrwt>
<pdfrwt beam="1">  1       -2 0.55603429E+00 0.42311456E+04</pdfrwt>
<totfact> 0.11103491E-02</totfact>
</mgrwt>
</event>
<event>
 4    1  0.1308745E-008  0.2818869E+04  0.7816531E-02  0.8297434E-01
         -1   -1    0    0    0  501 -0.00000000000E+00  0.00000000000E+00  0.15957662611E+04  0.15957662611E+04  0.00000000000E+00 0. -1.
          1   -1    0    0  501    0  0.00000000000E+00 -0.00000000000E+00 -0.12448600865E+04  0.12448600865E+04  0.00000000000E+00 0.  1.
    2000013    1    1    2    0    0  0.10247389960E+04  0.14356078513E+02 -0.95658263041E+01  0.13974575528E+04  0.95000000000E+03 0.  0.
   -2000013    1    1    2    0    0 -0.10247389960E+04 -0.14356078513E+02  0.36047200090E+03  0.14431687948E+04  0.95000000000E+03 0.  0.
<mgrwt>
<rscale>  0 0.28188691E+04</rscale>
<asrwt>0</asrwt>
<pdfrwt beam="2">  1        1 0.19151694E+00 0.28188691E+04</pdfrwt>
<pdfrwt beam="1">  1       -1 0.24550250E+00 0.28188691E+04</pdfrwt>
<totfact> 0.63912192E-01</totfact>
</mgrwt>
</event>
<event>
 4    1  0.1308745E-008  0.2368343E+04  0.7816531E-02  0.8451451E-01
          2   -1    0    0  501    0  0.00000000000E+00  0.00000000000E+00  0.11392995178E+04  0.11392995178E+04  0.00000000000E+00 0.  1.
         -2   -1    0    0    0  501 -0.00000000000E+00 -0.00000000000E+00 -0.12308110319E+04  0.12308110319E+04  0.00000000000E+00 0. -1.
    2000013    1    1    2    0    0 -0.51237500618E+03  0.48456573720E+02  0.43925652709E+03  0.11663286343E+04  0.95000000000E+03 0.  0.
   -2000013    1    1    2    0    0  0.51237500618E+03 -0.48456573720E+02 -0.53076804113E+03  0.12037819155E+04  0.95000000000E+03 0.  0.
<mgrwt>
<rscale>  0 0.23683432E+04</rscale>
<asrwt>0</asrwt>
<pdfrwt beam="1">  1        2 0.17527685E+00 0.23683432E+04</pdfrwt>
<pdfrwt beam="2">  1       -2 0.18935554E+00 0.23683432E+04</pdfrwt>
<totfact> 0.29086596E+00</totfact>
</mgrwt>
</event>
<event>
 4    1  0.1308745E-008  0.2598740E+04  0.7816531E-02  0.8368629E-01
          2   -1    0    0  501    0  0.00000000000E+00  0.00000000000E+00  0.31830760904E+04  0.31830760904E+04  0.00000000000E+00 0.  1.
         -2   -1    0    0    0  501 -0.00000000000E+00 -0.00000000000E+00 -0.53041832143E+03  0.53041832143E+03  0.00000000000E+00 0. -1.
    2000013    1    1    2    0    0  0.79650791591E+03  0.23683059555E+03  0.88508728008E+03  0.15415554108E+04  0.95000000000E+03 0.  0.
   -2000013    1    1    2    0    0 -0.79650791591E+03 -0.23683059555E+03  0.17675704889E+04  0.21719390010E+04  0.95000000000E+03 0.  0.
<mgrwt>
<rscale>  0 0.25987396E+04</rscale>
<asrwt>0</asrwt>
<pdfrwt beam="1">  1        2 0.48970400E+00 0.25987396E+04</pdfrwt>
<pdfrwt beam="2">  1       -2 0.81602821E-01 0.25987396E+04</pdfrwt>
<totfact> 0.15555611E+00</totfact>
</mgrwt>
</event>
<event>
 4    1  0.1308745E-008  0.2463964E+04  0.7816531E-02  0.8415937E-01
         -2   -1    0    0    0  501 -0.00000000000E+00  0.00000000000E+00  0.17818178642E+04  0.17818178642E+04  0.00000000000E+00 0. -1.
          2   -1    0    0  501    0  0.00000000000E+00 -0.00000000000E+00 -0.85181535812E+03  0.85181535812E+03  0.00000000000E+00 0.  1.
    2000013    1    1    2    0    0  0.77086612642E+03 -0.64406607458E+02  0.32606165224E+03  0.12677535238E+04  0.95000000000E+03 0.  0.
   -2000013    1    1    2    0    0 -0.77086612642E+03  0.64406607458E+02  0.60394085379E+03  0.13658796985E+04  0.95000000000E+03 0.  0.
<mgrwt>
<rscale>  0 0.24639641E+04</rscale>
<asrwt>0</asrwt>
<pdfrwt beam="2">  1        2 0.13104852E+00 0.24639641E+04</pdfrwt>
<pdfrwt beam="1">  1       -2 0.27412582E+00 0.24639641E+04</pdfrwt>
<totfact> 0.12946873E+00</totfact>
</mgrwt>
</event>
<event>
 4    1  0.1308745E-008  0.2172761E+04  0.7816531E-02  0.8529852E-01
         -2   -1    0    0    0  501 -0.00000000000E+00  0.00000000000E+00  0.96324588145E+03  0.96324588145E+03  0.00000000000E+00 0. -1.
          2   -1    0    0  501    0  0.00000000000E+00 -0.00000000000E+00 -0.12252559664E+04  0.12252559664E+04  0.00000000000E+00 0.  1.
    2000013    1    1    2    0    0  0.26508868002E+03  0.34121072655E+03  0.17288582335E+03  0.10578687424E+04  0.95000000000E+03 0.  0.
   -2000013    1    1    2    0    0 -0.26508868002E+03 -0.34121072655E+03 -0.43489590833E+03  0.11306331055E+04  0.95000000000E+03 0.  0.
<mgrwt>
<rscale>  0 0.21727612E+04</rscale>
<asrwt>0</asrwt>
<pdfrwt beam="2">  1        2 0.18850092E+00 0.21727612E+04</pdfrwt>
<pdfrwt beam="1">  1       -2 0.14819167E+00 0.21727612E+04</pdfrwt>
<totfact> 0.51860497E+00</totfact>
</mgrwt>
</event>
<event>
 4    1  0.1308745E-008  0.4053110E+04  0.7816531E-02  0.7993917E-01
          2   -1    0    0  501    0  0.00000000000E+00  0.00000000000E+00  0.33658205667E+04  0.33658205667E+04  0.00000000000E+00 0.  1.
         -2   -1    0    0    0  501 -0.00000000000E+00 -0.00000000000E+00 -0.12201853292E+04  0.12201853292E+04  0.00000000000E+00 0. -1.
    2000013    1    1    2    0    0 -0.65968153564E+03  0.15288681396E+04  0.32930001809E+03  0.19451365039E+04  0.95000000000E+03 0.  0.
   -2000013    1    1    2    0    0  0.65968153564E+03 -0.15288681396E+04  0.18163352193E+04  0.26408693920E+04  0.95000000000E+03 0.  0.
<mgrwt>
<rscale>  0 0.40531099E+04</rscale>
<asrwt>0</asrwt>
<pdfrwt beam="1">  1        2 0.51781854E+00 0.40531099E+04</pdfrwt>
<pdfrwt beam="2">  1       -2 0.18772082E+00 0.40531099E+04</pdfrwt>
<totfact> 0.12669608E-01</totfact>
</mgrwt>
</event>
<event>
 4    1  0.1308745E-008  0.3494393E+04  0.7816531E-02  0.8115120E-01
          2   -1    0    0  501    0  0.00000000000E+00  0.00000000000E+00  0.18087699433E+04  0.18087699433E+04  0.00000000000E+00 0.  1.
         -2   -1    0    0    0  501 -0.00000000000E+00 -0.00000000000E+00 -0.16877191548E+04  0.16877191548E+04  0.00000000000E+00 0. -1.
    2000013    1    1    2    0    0 -0.73469706102E+03 -0.53952394891E+03 -0.10887844209E+04  0.17084546754E+04  0.95000000000E+03 0.  0.
   -2000013    1    1    2    0    0  0.73469706102E+03  0.53952394891E+03  0.12098352093E+04  0.17880344227E+04  0.95000000000E+03 0.  0.
<mgrwt>
<rscale>  0 0.34943930E+04</rscale>
<asrwt>0</asrwt>
<pdfrwt beam="1">  1        2 0.27827230E+00 0.34943930E+04</pdfrwt>
<pdfrwt beam="2">  1       -2 0.25964910E+00 0.34943930E+04</pdfrwt>
<totfact> 0.39331793E-01</totfact>
</mgrwt>
</event>
<event>
 4    1  0.1308745E-008  0.2575701E+04  0.7816531E-02  0.8376502E-01
          2   -1    0    0  501    0  0.00000000000E+00  0.00000000000E+00  0.94526994026E+03  0.94526994026E+03  0.00000000000E+00 0.  1.
         -2   -1    0    0    0  501 -0.00000000000E+00 -0.00000000000E+00 -0.17545874339E+04  0.17545874339E+04  0.00000000000E+00 0. -1.
    2000013    1    1    2    0    0 -0.65917628563E+03  0.40033770640E+03  0.16289844936E+02  0.12237438514E+04  0.95000000000E+03 0.  0.
   -2000013    1    1    2    0    0  0.65917628563E+03 -0.40033770640E+03 -0.82560733861E+03  0.14761135228E+04  0.95000000000E+03 0.  0.
<mgrwt>
<rscale>  0 0.25757009E+04</rscale>
<asrwt>0</asrwt>
<pdfrwt beam="1">  1        2 0.14542615E+00 0.25757009E+04</pdfrwt>
<pdfrwt beam="2">  1       -2 0.26993653E+00 0.25757009E+04</pdfrwt>
<totfact> 0.11757215E+00</totfact>
</mgrwt>
</event>
<event>
 4    1  0.1308745E-008  0.1981256E+04  0.7816531E-02  0.8615435E-01
          2   -1    0    0  501    0  0.00000000000E+00  0.00000000000E+00  0.96910397223E+03  0.96910397223E+03  0.00000000000E+00 0.  1.
         -2   -1    0    0    0  501 -0.00000000000E+00 -0.00000000000E+00 -0.10126298998E+04  0.10126298998E+04  0.00000000000E+00 0. -1.
    2000013    1    1    2    0    0 -0.76193615810E+02  0.25547388175E+03  0.66413210039E+02  0.98893027348E+03  0.95000000000E+03 0.  0.
   -2000013    1    1    2    0    0  0.76193615810E+02 -0.25547388175E+03 -0.10993913762E+03  0.99280359857E+03  0.95000000000E+03 0.  0.
<mgrwt>
<rscale>  0 0.19812558E+04</rscale>
<asrwt>0</asrwt>
<pdfrwt beam="1">  1        2 0.14909292E+00 0.19812558E+04</pdfrwt>
<pdfrwt beam="2">  1       -2 0.15578922E+00 0.19812558E+04</pdfrwt>
<totfact> 0.66449590E+00</totfact>
</mgrwt>
</event>
<event>
 4    1  0.1308745E-008  0.2241277E+04  0.7816531E-02  0.8501441E-01
         -2   -1    0    0    0  501 -0.00000000000E+00  0.00000000000E+00  0.45762668411E+03  0.45762668411E+03  0.00000000000E+00 0. -1.
          2   -1    0    0  501    0  0.00000000000E+00 -0.00000000000E+00 -0.27442258376E+04  0.27442258376E+04  0.00000000000E+00 0.  1.
    2000013    1    1    2    0    0 -0.38916395925E+02  0.54908871564E+03 -0.82284409251E+03  0.13720733596E+04  0.95000000000E+03 0.  0.
   -2000013    1    1    2    0    0  0.38916395925E+02 -0.54908871564E+03 -0.14637550609E+04  0.18297791621E+04  0.95000000000E+03 0.  0.
<mgrwt>
<rscale>  0 0.22412773E+04</rscale>
<asrwt>0</asrwt>
<pdfrwt beam="2">  1        2 0.42218859E+00 0.22412773E+04</pdfrwt>
<pdfrwt beam="1">  1       -2 0.70404106E-01 0.22412773E+04</pdfrwt>
<totfact> 0.41798229E+00</totfact>
</mgrwt>
</event>
<event>
 4    1  0.1308745E-008  0.3229090E+04  0.7816531E-02  0.8181177E-01
          2   -1    0    0  501    0  0.00000000000E+00  0.00000000000E+00  0.34734087850E+04  0.34734087850E+04  0.00000000000E+00 0. -1.
         -2   -1    0    0    0  501 -0.00000000000E+00 -0.00000000000E+00 -0.75048908889E+03  0.75048908889E+03  0.00000000000E+00 0.  1.
    2000013    1    1    2    0    0  0.34410750109E+03  0.12527266899E+04  0.15295935943E+04  0.22203357168E+04  0.95000000000E+03 0.  0.
   -2000013    1    1    2    0    0 -0.34410750109E+03 -0.12527266899E+04  0.11933261018E+04  0.20035621570E+04  0.95000000000E+03 0.  0.
<mgrwt>
<rscale>  0 0.32290899E+04</rscale>
<asrwt>0</asrwt>
<pdfrwt beam="1">  1        2 0.53437057E+00 0.32290899E+04</pdfrwt>
<pdfrwt beam="2">  1       -2 0.11545986E+00 0.32290899E+04</pdfrwt>
<totfact> 0.41566296E-01</totfact>
</mgrwt>
</event>
<event>
 4    1  0.1308745E-008  0.2725420E+04  0.7816531E-02  0.8326804E-01
          2   -1    0    0  501    0  0.00000000000E+00  0.00000000000E+00  0.20423837978E+04  0.20423837978E+04  0.00000000000E+00 0.  1.
         -2   -1    0    0    0  501 -0.00000000000E+00 -0.00000000000E+00 -0.90922139325E+03  0.90922139325E+03  0.00000000000E+00 0. -1.
    2000013    1    1    2    0    0  0.91067184747E+03 -0.26602704575E+03  0.31402031817E+03  0.13788409492E+04  0.95000000000E+03 0.  0.
   -2000013    1    1    2    0    0 -0.91067184747E+03  0.26602704575E+03  0.81914208635E+03  0.15727642419E+04  0.95000000000E+03 0.  0.
<mgrwt>
<rscale>  0 0.27254204E+04</rscale>
<asrwt>0</asrwt>
<pdfrwt beam="1">  1        2 0.31421289E+00 0.27254204E+04</pdfrwt>
<pdfrwt beam="2">  1       -2 0.13988021E+00 0.27254204E+04</pdfrwt>
<totfact> 0.19941618E+00</totfact>
</mgrwt>
</event>
<event>
 4    1  0.1308745E-008  0.2517136E+04  0.7816531E-02  0.8396906E-01
         -2   -1    0    0    0  501 -0.00000000000E+00  0.00000000000E+00  0.55910482198E+03  0.55910482198E+03  0.00000000000E+00 0. -1.
          2   -1    0    0  501    0  0.00000000000E+00 -0.00000000000E+00 -0.28330885478E+04  0.28330885478E+04  0.00000000000E+00 0.  1.
    2000013    1    1    2    0    0  0.19765750527E+03  0.76149706565E+03 -0.14740290649E+04  0.19220322460E+04  0.95000000000E+03 0.  0.
   -2000013    1    1    2    0    0 -0.19765750527E+03 -0.76149706565E+03 -0.79995466089E+03  0.14701611238E+04  0.95000000000E+03 0.  0.
<mgrwt>
<rscale>  0 0.25171360E+04</rscale>
<asrwt>0</asrwt>
<pdfrwt beam="2">  1        2 0.43585976E+00 0.25171360E+04</pdfrwt>
<pdfrwt beam="1">  1       -2 0.86016129E-01 0.25171360E+04</pdfrwt>
<totfact> 0.23057760E+00</totfact>
</mgrwt>
</event>
<event>
 4    1  0.1308745E-008  0.2878150E+04  0.7816531E-02  0.8279408E-01
          2   -1    0    0  501    0  0.00000000000E+00  0.00000000000E+00  0.15613683572E+04  0.15613683572E+04  0.00000000000E+00 0.  1.
         -2   -1    0    0    0  501 -0.00000000000E+00 -0.00000000000E+00 -0.13263605017E+04  0.13263605017E+04  0.00000000000E+00 0. -1.
    2000013    1    1    2    0    0 -0.90797986898E+03 -0.39995039488E+03  0.54794165387E+03  0.14788941196E+04  0.95000000000E+03 0.  0.
   -2000013    1    1    2    0    0  0.90797986898E+03  0.39995039488E+03 -0.31293379837E+03  0.14088347394E+04  0.95000000000E+03 0.  0.
<mgrwt>
<rscale>  0 0.28781503E+04</rscale>
<asrwt>0</asrwt>
<pdfrwt beam="1">  1        2 0.24021052E+00 0.28781503E+04</pdfrwt>
<pdfrwt beam="2">  1       -2 0.20405546E+00 0.28781503E+04</pdfrwt>
<totfact> 0.12682368E+00</totfact>
</mgrwt>
</event>
<event>
 4    1  0.1308745E-008  0.3125873E+04  0.7816531E-02  0.8208673E-01
         -2   -1    0    0    0  501 -0.00000000000E+00  0.00000000000E+00  0.18056771784E+04  0.18056771784E+04  0.00000000000E+00 0. -1.
          2   -1    0    0  501    0  0.00000000000E+00 -0.00000000000E+00 -0.13528281668E+04  0.13528281668E+04  0.00000000000E+00 0.  1.
    2000013    1    1    2    0    0 -0.11486032069E+04 -0.19144383334E+03  0.66024423063E+03  0.16414513432E+04  0.95000000000E+03 0.  0.
   -2000013    1    1    2    0    0  0.11486032069E+04  0.19144383334E+03 -0.20739521900E+03  0.15170540020E+04  0.95000000000E+03 0.  0.
<mgrwt>
<rscale>  0 0.31258733E+04</rscale>
<asrwt>0</asrwt>
<pdfrwt beam="2">  1        2 0.20812741E+00 0.31258733E+04</pdfrwt>
<pdfrwt beam="1">  1       -2 0.27779649E+00 0.31258733E+04</pdfrwt>
<totfact> 0.56683719E-01</totfact>
</mgrwt>
</event>
<event>
 4    1  0.1308745E-008  0.2371113E+04  0.7816531E-02  0.8450398E-01
          2   -1    0    0  501    0  0.00000000000E+00  0.00000000000E+00  0.19654375877E+04  0.19654375877E+04  0.00000000000E+00 0.  1.
         -2   -1    0    0    0  501 -0.00000000000E+00 -0.00000000000E+00 -0.71513021485E+03  0.71513021485E+03  0.00000000000E+00 0. -1.
    2000013    1    1    2    0    0  0.56145017201E+03 -0.31706522423E+03  0.29115114520E+03  0.11844938334E+04  0.95000000000E+03 0.  0.
   -2000013    1    1    2    0    0 -0.56145017201E+03  0.31706522423E+03  0.95915622763E+03  0.14960739691E+04  0.95000000000E+03 0.  0.
<mgrwt>
<rscale>  0 0.23711127E+04</rscale>
<asrwt>0</asrwt>
<pdfrwt beam="1">  1        2 0.30237501E+00 0.23711127E+04</pdfrwt>
<pdfrwt beam="2">  1       -2 0.11002003E+00 0.23711127E+04</pdfrwt>
<totfact> 0.41338779E+00</totfact>
</mgrwt>
</event>
<event>
 4    1  0.1308745E-008  0.3049175E+04  0.7816531E-02  0.8229827E-01
         -2   -1    0    0    0  501 -0.00000000000E+00  0.00000000000E+00  0.13725452858E+04  0.13725452858E+04  0.00000000000E+00 0. -1.
          2   -1    0    0  501    0  0.00000000000E+00 -0.00000000000E+00 -0.16934717479E+04  0.16934717479E+04  0.00000000000E+00 0.  1.
    2000013    1    1    2    0    0  0.48928928858E+03 -0.66089158146E+03  0.70783705571E+03  0.14421216966E+04  0.95000000000E+03 0.  0.
   -2000013    1    1    2    0    0 -0.48928928858E+03  0.66089158146E+03 -0.10287635178E+04  0.16238953371E+04  0.95000000000E+03 0.  0.
<mgrwt>
<rscale>  0 0.30491748E+04</rscale>
<asrwt>0</asrwt>
<pdfrwt beam="2">  1        2 0.26053411E+00 0.30491748E+04</pdfrwt>
<pdfrwt beam="1">  1       -2 0.21116082E+00 0.30491748E+04</pdfrwt>
<totfact> 0.94908555E-01</totfact>
</mgrwt>
</event>
<event>
 4    1  0.1308745E-008  0.2950007E+04  0.7816531E-02  0.8258153E-01
          2   -1    0    0  501    0  0.00000000000E+00  0.00000000000E+00  0.11427510147E+04  0.11427510147E+04  0.00000000000E+00 0.  1.
         -2   -1    0    0    0  501 -0.00000000000E+00 -0.00000000000E+00 -0.19038575651E+04  0.19038575651E+04  0.00000000000E+00 0. -1.
    2000013    1    1    2    0    0  0.17504548550E+02 -0.63851360994E+03  0.58002795633E+03  0.12833310054E+04  0.95000000000E+03 0.  0.
   -2000013    1    1    2    0    0 -0.17504548550E+02  0.63851360994E+03 -0.13411345067E+04  0.17632775744E+04  0.95000000000E+03 0.  0.
<mgrwt>
<rscale>  0 0.29500069E+04</rscale>
<asrwt>0</asrwt>
<pdfrwt beam="1">  1        2 0.17580785E+00 0.29500069E+04</pdfrwt>
<pdfrwt beam="2">  1       -2 0.29290116E+00 0.29500069E+04</pdfrwt>
<totfact> 0.61919582E-01</totfact>
</mgrwt>
</event>
<event>
 4    1  0.1308745E-008  0.3224193E+04  0.7816531E-02  0.8182457E-01
          2   -1    0    0  501    0  0.00000000000E+00  0.00000000000E+00  0.31213359820E+04  0.31213359820E+04  0.00000000000E+00 0.  1.
         -2   -1    0    0    0  501 -0.00000000000E+00 -0.00000000000E+00 -0.83260967405E+03  0.83260967405E+03  0.00000000000E+00 0. -1.
    2000013    1    1    2    0    0 -0.89630957488E+03  0.84198325510E+03  0.61825489117E+03  0.16724370740E+04  0.95000000000E+03 0.  0.
   -2000013    1    1    2    0    0  0.89630957488E+03 -0.84198325510E+03  0.16704714168E+04  0.22815085821E+04  0.95000000000E+03 0.  0.
<mgrwt>
<rscale>  0 0.32241926E+04</rscale>
<asrwt>0</asrwt>
<pdfrwt beam="1">  1        2 0.48020553E+00 0.32241926E+04</pdfrwt>
<pdfrwt beam="2">  1       -2 0.12809380E+00 0.32241926E+04</pdfrwt>
<totfact> 0.55199931E-01</totfact>
</mgrwt>
</event>
<event>
 4    1  0.1308745E-008  0.2402716E+04  0.7816531E-02  0.8438487E-01
         -2   -1    0    0    0  501 -0.00000000000E+00  0.00000000000E+00  0.94779695251E+03  0.94779695251E+03  0.00000000000E+00 0. -1.
          2   -1    0    0  501    0  0.00000000000E+00 -0.00000000000E+00 -0.15227537084E+04  0.15227537084E+04  0.00000000000E+00 0.  1.
    2000013    1    1    2    0    0 -0.35409432346E+03  0.27313875032E+03  0.31276081953E+03  0.10955851848E+04  0.95000000000E+03 0.  0.
   -2000013    1    1    2    0    0  0.35409432346E+03 -0.27313875032E+03 -0.88771757538E+03  0.13749654761E+04  0.95000000000E+03 0.  0.
<mgrwt>
<rscale>  0 0.24027162E+04</rscale>
<asrwt>0</asrwt>
<pdfrwt beam="2">  1        2 0.23426980E+00 0.24027162E+04</pdfrwt>
<pdfrwt beam="1">  1       -2 0.14581492E+00 0.24027162E+04</pdfrwt>
<totfact> 0.35780115E+00</totfact>
</mgrwt>
</event>
<event>
 4    1  0.1308745E-008  0.4047103E+04  0.7816531E-02  0.7995111E-01
         -2   -1    0    0    0  501 -0.00000000000E+00  0.00000000000E+00  0.15874944368E+04  0.15874944368E+04  0.00000000000E+00 0. -1.
          2   -1    0    0  501    0  0.00000000000E+00 -0.00000000000E+00 -0.25793856556E+04  0.25793856556E+04  0.00000000000E+00 0.  1.
    2000013    1    1    2    0    0 -0.16880318037E+04 -0.45668129359E+03 -0.11869855566E+03  0.19936395164E+04  0.95000000000E+03 0.  0.
   -2000013    1    1    2    0    0  0.16880318037E+04  0.45668129359E+03 -0.87319266318E+03  0.21732405760E+04  0.95000000000E+03 0.  0.
<mgrwt>
<rscale>  0 0.40471029E+04</rscale>
<asrwt>0</asrwt>
<pdfrwt beam="2">  1        2 0.39682856E+00 0.40471029E+04</pdfrwt>
<pdfrwt beam="1">  1       -2 0.24422991E+00 0.40471029E+04</pdfrwt>
<totfact> 0.17151183E-01</totfact>
</mgrwt>
</event>
<event>
 4    1  0.1308745E-008  0.2621050E+04  0.7816531E-02  0.8361086E-01
         -2   -1    0    0    0  501 -0.00000000000E+00  0.00000000000E+00  0.10278754990E+04  0.10278754990E+04  0.00000000000E+00 0. -1.
          2   -1    0    0  501    0  0.00000000000E+00 -0.00000000000E+00 -0.16708989132E+04  0.16708989132E+04  0.00000000000E+00 0.  1.
    2000013    1    1    2    0    0  0.31855362050E+02 -0.89575005590E+03 -0.43237596367E+03  0.13758022753E+04  0.95000000000E+03 0.  0.
   -2000013    1    1    2    0    0 -0.31855362050E+02  0.89575005590E+03 -0.21064745056E+03  0.13229721370E+04  0.95000000000E+03 0.  0.
<mgrwt>
<rscale>  0 0.26210502E+04</rscale>
<asrwt>0</asrwt>
<pdfrwt beam="2">  1        2 0.25706137E+00 0.26210502E+04</pdfrwt>
<pdfrwt beam="1">  1       -2 0.15813469E+00 0.26210502E+04</pdfrwt>
<totfact> 0.23380613E+00</totfact>
</mgrwt>
</event>
<event>
 4    1  0.1308745E-008  0.2562781E+04  0.7816531E-02  0.8380955E-01
         -2   -1    0    0    0  501 -0.00000000000E+00  0.00000000000E+00  0.50879823563E+03  0.50879823563E+03  0.00000000000E+00 0. -1.
          2   -1    0    0  501    0  0.00000000000E+00 -0.00000000000E+00 -0.32271359944E+04  0.32271359944E+04  0.00000000000E+00 0.  1.
    2000013    1    1    2    0    0 -0.36530259087E+03 -0.55648004013E+03 -0.21527414653E+04  0.24453858252E+04  0.95000000000E+03 0.  0.
   -2000013    1    1    2    0    0  0.36530259087E+03  0.55648004013E+03 -0.56559629354E+03  0.12905484048E+04  0.95000000000E+03 0.  0.
<mgrwt>
<rscale>  0 0.25627806E+04</rscale>
<asrwt>0</asrwt>
<pdfrwt beam="2">  1        2 0.49648244E+00 0.25627806E+04</pdfrwt>
<pdfrwt beam="1">  1       -2 0.78276654E-01 0.25627806E+04</pdfrwt>
<totfact> 0.16037166E+00</totfact>
</mgrwt>
</event>
<event>
 4    1  0.1308745E-008  0.2453173E+04  0.7816531E-02  0.8419860E-01
          2   -1    0    0  501    0  0.00000000000E+00  0.00000000000E+00  0.34200302132E+04  0.34200302132E+04  0.00000000000E+00 0.  1.
         -2   -1    0    0    0  501 -0.00000000000E+00 -0.00000000000E+00 -0.43991264283E+03  0.43991264283E+03  0.00000000000E+00 0. -1.
    2000013    1    1    2    0    0 -0.71678221464E+03 -0.28101397482E+03  0.16415430571E+04  0.20469267709E+04  0.95000000000E+03 0.  0.
   -2000013    1    1    2    0    0  0.71678221464E+03  0.28101397482E+03  0.13385745134E+04  0.18130160852E+04  0.95000000000E+03 0.  0.
<mgrwt>
<rscale>  0 0.24531731E+04</rscale>
<asrwt>0</asrwt>
<pdfrwt beam="1">  1        2 0.52615848E+00 0.24531731E+04</pdfrwt>
<pdfrwt beam="2">  1       -2 0.67678870E-01 0.24531731E+04</pdfrwt>
<totfact> 0.16568153E+00</totfact>
</mgrwt>
</event>
<event>
 4    1  0.1308745E-008  0.2476034E+04  0.7816531E-02  0.8411574E-01
         -2   -1    0    0    0  501 -0.00000000000E+00  0.00000000000E+00  0.11090798779E+04  0.11090798779E+04  0.00000000000E+00 0. -1.
          2   -1    0    0  501    0  0.00000000000E+00 -0.00000000000E+00 -0.13819438829E+04  0.13819438829E+04  0.00000000000E+00 0.  1.
    2000013    1    1    2    0    0 -0.12070255066E+03 -0.74759612522E+03 -0.37602724610E+03  0.12717568801E+04  0.95000000000E+03 0.  0.
   -2000013    1    1    2    0    0  0.12070255066E+03  0.74759612522E+03  0.10316324115E+03  0.12192668808E+04  0.95000000000E+03 0.  0.
<mgrwt>
<rscale>  0 0.24760340E+04</rscale>
<asrwt>0</asrwt>
<pdfrwt beam="2">  1        2 0.21260675E+00 0.24760340E+04</pdfrwt>
<pdfrwt beam="1">  1       -2 0.17062768E+00 0.24760340E+04</pdfrwt>
<totfact> 0.27941558E+00</totfact>
</mgrwt>
</event>
<event>
 4    1  0.1308745E-008  0.4889005E+04  0.7816531E-02  0.7845861E-01
         -2   -1    0    0    0  501 -0.00000000000E+00  0.00000000000E+00  0.28667120977E+04  0.28667120977E+04  0.00000000000E+00 0. -1.
          2   -1    0    0  501    0  0.00000000000E+00 -0.00000000000E+00 -0.20844760403E+04  0.20844760403E+04  0.00000000000E+00 0.  1.
    2000013    1    1    2    0    0  0.54142472508E+03  0.12880633569E+04  0.21801785060E+04  0.27582469546E+04  0.95000000000E+03 0.  0.
   -2000013    1    1    2    0    0 -0.54142472508E+03 -0.12880633569E+04 -0.13979424486E+04  0.21929411834E+04  0.95000000000E+03 0.  0.
<mgrwt>
<rscale>  0 0.48890051E+04</rscale>
<asrwt>0</asrwt>
<pdfrwt beam="2">  1        2 0.32068862E+00 0.48890051E+04</pdfrwt>
<pdfrwt beam="1">  1       -2 0.44103263E+00 0.48890051E+04</pdfrwt>
<totfact> 0.17553268E-02</totfact>
</mgrwt>
</event>
<event>
 4    1  0.1308745E-008  0.2456433E+04  0.7816531E-02  0.8418673E-01
          2   -1    0    0  501    0  0.00000000000E+00  0.00000000000E+00  0.23074176060E+04  0.23074176060E+04  0.00000000000E+00 0.  1.
         -2   -1    0    0    0  501 -0.00000000000E+00 -0.00000000000E+00 -0.65376800890E+03  0.65376800890E+03  0.00000000000E+00 0. -1.
    2000013    1    1    2    0    0  0.70185630286E+03 -0.28876730367E+02  0.12312988859E+04  0.17064680137E+04  0.95000000000E+03 0.  0.
   -2000013    1    1    2    0    0 -0.70185630286E+03  0.28876730367E+02  0.42235071119E+03  0.12547176012E+04  0.95000000000E+03 0.  0.
<mgrwt>
<rscale>  0 0.24564330E+04</rscale>
<asrwt>0</asrwt>
<pdfrwt beam="1">  1        2 0.35498732E+00 0.24564330E+04</pdfrwt>
<pdfrwt beam="2">  1       -2 0.10057969E+00 0.24564330E+04</pdfrwt>
<totfact> 0.32737298E+00</totfact>
</mgrwt>
</event>
<event>
 4    1  0.1308745E-008  0.3011962E+04  0.7816531E-02  0.8240323E-01
          2   -1    0    0  501    0  0.00000000000E+00  0.00000000000E+00  0.21257574536E+04  0.21257574536E+04  0.00000000000E+00 0.  1.
         -2   -1    0    0    0  501 -0.00000000000E+00 -0.00000000000E+00 -0.10669035652E+04  0.10669035652E+04  0.00000000000E+00 0. -1.
    2000013    1    1    2    0    0  0.80599442238E+03 -0.41039467320E+03  0.13136988262E+04  0.18564362102E+04  0.95000000000E+03 0.  0.
   -2000013    1    1    2    0    0 -0.80599442238E+03  0.41039467320E+03 -0.25484493776E+03  0.13362248086E+04  0.95000000000E+03 0.  0.
<mgrwt>
<rscale>  0 0.30119616E+04</rscale>
<asrwt>0</asrwt>
<pdfrwt beam="1">  1        2 0.32703961E+00 0.30119616E+04</pdfrwt>
<pdfrwt beam="2">  1       -2 0.16413901E+00 0.30119616E+04</pdfrwt>
<totfact> 0.11417347E+00</totfact>
</mgrwt>
</event>
<event>
 4    1  0.1308745E-008  0.2275321E+04  0.7816531E-02  0.8487716E-01
          2   -1    0    0  501    0  0.00000000000E+00  0.00000000000E+00  0.14657702948E+04  0.14657702948E+04  0.00000000000E+00 0.  1.
         -2   -1    0    0    0  501 -0.00000000000E+00 -0.00000000000E+00 -0.88299770081E+03  0.88299770081E+03  0.00000000000E+00 0. -1.
    2000013    1    1    2    0    0 -0.72472040007E+02 -0.61759356052E+03  0.36508989270E+03  0.11926712172E+04  0.95000000000E+03 0.  0.
   -2000013    1    1    2    0    0  0.72472040007E+02  0.61759356052E+03  0.21768270128E+03  0.11560967784E+04  0.95000000000E+03 0.  0.
<mgrwt>
<rscale>  0 0.22753213E+04</rscale>
<asrwt>0</asrwt>
<pdfrwt beam="1">  1        2 0.22550312E+00 0.22753213E+04</pdfrwt>
<pdfrwt beam="2">  1       -2 0.13584580E+00 0.22753213E+04</pdfrwt>
<totfact> 0.46824617E+00</totfact>
</mgrwt>
</event>
<event>
 4    1  0.1308745E-008  0.2659615E+04  0.7816531E-02  0.8348229E-01
         -2   -1    0    0    0  501 -0.00000000000E+00  0.00000000000E+00  0.96040132633E+03  0.96040132633E+03  0.00000000000E+00 0. -1.
          2   -1    0    0  501    0  0.00000000000E+00 -0.00000000000E+00 -0.18413015352E+04  0.18413015352E+04  0.00000000000E+00 0.  1.
    2000013    1    1    2    0    0 -0.91828573631E+03 -0.14877151592E+03 -0.46416452923E+03  0.14083076254E+04  0.95000000000E+03 0.  0.
   -2000013    1    1    2    0    0  0.91828573631E+03  0.14877151592E+03 -0.41673567964E+03  0.13933952362E+04  0.95000000000E+03 0.  0.
<mgrwt>
<rscale>  0 0.26596153E+04</rscale>
<asrwt>0</asrwt>
<pdfrwt beam="2">  1        2 0.28327716E+00 0.26596153E+04</pdfrwt>
<pdfrwt beam="1">  1       -2 0.14775405E+00 0.26596153E+04</pdfrwt>
<totfact> 0.22468968E+00</totfact>
</mgrwt>
</event>
<event>
 4    1  0.1308745E-008  0.2107885E+04  0.7816531E-02  0.8557778E-01
          2   -1    0    0  501    0  0.00000000000E+00  0.00000000000E+00  0.90913259518E+03  0.90913259518E+03  0.00000000000E+00 0.  1.
         -2   -1    0    0    0  501 -0.00000000000E+00 -0.00000000000E+00 -0.12218182352E+04  0.12218182352E+04  0.00000000000E+00 0. -1.
    2000013    1    1    2    0    0 -0.16293969266E+02  0.33111091513E+03 -0.47345484051E+03  0.11120069323E+04  0.95000000000E+03 0.  0.
   -2000013    1    1    2    0    0  0.16293969266E+02 -0.33111091513E+03  0.16076920049E+03  0.10189438981E+04  0.95000000000E+03 0.  0.
<mgrwt>
<rscale>  0 0.21078850E+04</rscale>
<asrwt>0</asrwt>
<pdfrwt beam="1">  1        2 0.13986655E+00 0.21078850E+04</pdfrwt>
<pdfrwt beam="2">  1       -2 0.18797204E+00 0.21078850E+04</pdfrwt>
<totfact> 0.42569055E+00</totfact>
</mgrwt>
</event>
<event>
 4    1  0.1308745E-008  0.2943052E+04  0.7816531E-02  0.8260182E-01
          2   -1    0    0  501    0  0.00000000000E+00  0.00000000000E+00  0.17898206990E+04  0.17898206990E+04  0.00000000000E+00 0.  1.
         -2   -1    0    0    0  501 -0.00000000000E+00 -0.00000000000E+00 -0.12098352771E+04  0.12098352771E+04  0.00000000000E+00 0. -1.
    2000013    1    1    2    0    0 -0.79360329818E+03 -0.78779357286E+03  0.40377910129E+03  0.15218286602E+04  0.95000000000E+03 0.  0.
   -2000013    1    1    2    0    0  0.79360329818E+03  0.78779357286E+03  0.17620632066E+03  0.14778273160E+04  0.95000000000E+03 0.  0.
<mgrwt>
<rscale>  0 0.29430516E+04</rscale>
<asrwt>0</asrwt>
<pdfrwt beam="1">  1        2 0.27535703E+00 0.29430516E+04</pdfrwt>
<pdfrwt beam="2">  1       -2 0.18612851E+00 0.29430516E+04</pdfrwt>
<totfact> 0.12377812E+00</totfact>
</mgrwt>
</event>
<event>
 4    1  0.1308745E-008  0.2264815E+04  0.7816531E-02  0.8491925E-01
         -2   -1    0    0    0  501 -0.00000000000E+00  0.00000000000E+00  0.43360691667E+03  0.43360691667E+03  0.00000000000E+00 0. -1.
          2   -1    0    0  501    0  0.00000000000E+00 -0.00000000000E+00 -0.29573941142E+04  0.29573941142E+04  0.00000000000E+00 0.  1.
    2000013    1    1    2    0    0 -0.59394114717E+02 -0.60841144157E+03 -0.13793530825E+04  0.17829209375E+04  0.95000000000E+03 0.  0.
   -2000013    1    1    2    0    0  0.59394114717E+02  0.60841144157E+03 -0.11444341150E+04  0.16080800934E+04  0.95000000000E+03 0.  0.
<mgrwt>
<rscale>  0 0.22648148E+04</rscale>
<asrwt>0</asrwt>
<pdfrwt beam="2">  1        2 0.45498371E+00 0.22648148E+04</pdfrwt>
<pdfrwt beam="1">  1       -2 0.66708757E-01 0.22648148E+04</pdfrwt>
<totfact> 0.34773226E+00</totfact>
</mgrwt>
</event>
<event>
 4    1  0.1308745E-008  0.2335882E+04  0.7816531E-02  0.8463906E-01
         -2   -1    0    0    0  501 -0.00000000000E+00  0.00000000000E+00  0.74864861179E+03  0.74864861179E+03  0.00000000000E+00 0. -1.
          2   -1    0    0  501    0  0.00000000000E+00 -0.00000000000E+00 -0.18220651119E+04  0.18220651119E+04  0.00000000000E+00 0.  1.
    2000013    1    1    2    0    0  0.34489213971E+03 -0.23475131611E+03 -0.11268313890E+04  0.15317662183E+04  0.95000000000E+03 0.  0.
   -2000013    1    1    2    0    0 -0.34489213971E+03  0.23475131611E+03  0.53414888904E+02  0.10389475053E+04  0.95000000000E+03 0.  0.
<mgrwt>
<rscale>  0 0.23358823E+04</rscale>
<asrwt>0</asrwt>
<pdfrwt beam="2">  1        2 0.28031770E+00 0.23358823E+04</pdfrwt>
<pdfrwt beam="1">  1       -2 0.11517671E+00 0.23358823E+04</pdfrwt>
<totfact> 0.44548996E+00</totfact>
</mgrwt>
</event>
<event>
 4    1  0.1308745E-008  0.2622117E+04  0.7816531E-02  0.8360727E-01
         -2   -1    0    0    0  501 -0.00000000000E+00  0.00000000000E+00  0.11735613898E+04  0.11735613898E+04  0.00000000000E+00 0. -1.
          2   -1    0    0  501    0  0.00000000000E+00 -0.00000000000E+00 -0.14646655464E+04  0.14646655464E+04  0.00000000000E+00 0.  1.
    2000013    1    1    2    0    0 -0.56494603592E+03  0.34456250657E+03 -0.76454522010E+03  0.13874136867E+04  0.95000000000E+03 0.  0.
   -2000013    1    1    2    0    0  0.56494603592E+03 -0.34456250657E+03  0.47344106352E+03  0.12508132495E+04  0.95000000000E+03 0.  0.
<mgrwt>
<rscale>  0 0.26221174E+04</rscale>
<asrwt>0</asrwt>
<pdfrwt beam="2">  1        2 0.22533316E+00 0.26221174E+04</pdfrwt>
<pdfrwt beam="1">  1       -2 0.18054791E+00 0.26221174E+04</pdfrwt>
<totfact> 0.21099830E+00</totfact>
</mgrwt>
</event>
<event>
 4    1  0.1308745E-008  0.4665349E+04  0.7816531E-02  0.7882312E-01
         -2   -1    0    0    0  501 -0.00000000000E+00  0.00000000000E+00  0.22240190239E+04  0.22240190239E+04  0.00000000000E+00 0. -1.
          2   -1    0    0  501    0  0.00000000000E+00 -0.00000000000E+00 -0.24466379019E+04  0.24466379019E+04  0.00000000000E+00 0.  1.
    2000013    1    1    2    0    0 -0.15809855502E+04 -0.13946118892E+04 -0.41892377315E+03  0.23499903743E+04  0.95000000000E+03 0.  0.
   -2000013    1    1    2    0    0  0.15809855502E+04  0.13946118892E+04  0.19630489515E+03  0.23206665515E+04  0.95000000000E+03 0.  0.
<mgrwt>
<rscale>  0 0.46653485E+04</rscale>
<asrwt>0</asrwt>
<pdfrwt beam="2">  1        2 0.37640583E+00 0.46653485E+04</pdfrwt>
<pdfrwt beam="1">  1       -2 0.34215677E+00 0.46653485E+04</pdfrwt>
<totfact> 0.48706414E-02</totfact>
</mgrwt>
</event>
<event>
 4    1  0.1308745E-008  0.4782612E+04  0.7816531E-02  0.7862945E-01
         -4   -1    0    0    0  501 -0.00000000000E+00  0.00000000000E+00  0.27657193112E+04  0.27657193112E+04  0.00000000000E+00 0. -1.
          4   -1    0    0  501    0  0.00000000000E+00 -0.00000000000E+00 -0.20675796233E+04  0.20675796233E+04  0.00000000000E+00 0.  1.
    2000013    1    1    2    0    0  0.72181150328E+03  0.18618527498E+04  0.12688459413E+04  0.25495053502E+04  0.95000000000E+03 0.  0.
   -2000013    1    1    2    0    0 -0.72181150328E+03 -0.18618527498E+04 -0.57070625335E+03  0.22837935843E+04  0.95000000000E+03 0.  0.
<mgrwt>
<rscale>  0 0.47826122E+04</rscale>
<asrwt>0</asrwt>
<pdfrwt beam="2">  1        4 0.31808917E+00 0.47826122E+04</pdfrwt>
<pdfrwt beam="1">  1       -4 0.42549528E+00 0.47826122E+04</pdfrwt>
<totfact> 0.15267686E-04</totfact>
</mgrwt>
</event>
<event>
 4    1  0.1308745E-008  0.2524524E+04  0.7816531E-02  0.8394300E-01
         -2   -1    0    0    0  501 -0.00000000000E+00  0.00000000000E+00  0.75687169952E+03  0.75687169952E+03  0.00000000000E+00 0. -1.
          2   -1    0    0  501    0  0.00000000000E+00 -0.00000000000E+00 -0.21051197755E+04  0.21051197755E+04  0.00000000000E+00 0.  1.
    2000013    1    1    2    0    0 -0.83159800220E+02  0.58273582048E+03 -0.89075813651E+01  0.11176206574E+04  0.95000000000E+03 0.  0.
   -2000013    1    1    2    0    0  0.83159800220E+02 -0.58273582048E+03 -0.13393404946E+04  0.17443708176E+04  0.95000000000E+03 0.  0.
<mgrwt>
<rscale>  0 0.25245242E+04</rscale>
<asrwt>0</asrwt>
<pdfrwt beam="2">  1        2 0.32386458E+00 0.25245242E+04</pdfrwt>
<pdfrwt beam="1">  1       -2 0.11644180E+00 0.25245242E+04</pdfrwt>
<totfact> 0.29714395E+00</totfact>
</mgrwt>
</event>
<event>
 4    1  0.1308745E-008  0.2171846E+04  0.7816531E-02  0.8530239E-01
          2   -1    0    0  501    0  0.00000000000E+00  0.00000000000E+00  0.24656736184E+04  0.24656736184E+04  0.00000000000E+00 0.  1.
         -2   -1    0    0    0  501 -0.00000000000E+00 -0.00000000000E+00 -0.47825810037E+03  0.47825810037E+03  0.00000000000E+00 0. -1.
    2000013    1    1    2    0    0  0.35663783820E+03 -0.35449431004E+03  0.78427737070E+03  0.13305817366E+04  0.95000000000E+03 0.  0.
   -2000013    1    1    2    0    0 -0.35663783820E+03  0.35449431004E+03  0.12031381473E+04  0.16133499822E+04  0.95000000000E+03 0.  0.
<mgrwt>
<rscale>  0 0.21718456E+04</rscale>
<asrwt>0</asrwt>
<pdfrwt beam="1">  1        2 0.37933440E+00 0.21718456E+04</pdfrwt>
<pdfrwt beam="2">  1       -2 0.73578171E-01 0.21718456E+04</pdfrwt>
<totfact> 0.55624930E+00</totfact>
</mgrwt>
</event>
<event>
 4    1  0.1308745E-008  0.2123135E+04  0.7816531E-02  0.8551120E-01
          2   -1    0    0  501    0  0.00000000000E+00  0.00000000000E+00  0.34425681023E+04  0.34425681023E+04  0.00000000000E+00 0.  1.
         -2   -1    0    0    0  501 -0.00000000000E+00 -0.00000000000E+00 -0.32735021670E+03  0.32735021670E+03  0.00000000000E+00 0. -1.
    2000013    1    1    2    0    0 -0.44183255832E+03 -0.15815703820E+03  0.16726252629E+04  0.19800012446E+04  0.95000000000E+03 0.  0.
   -2000013    1    1    2    0    0  0.44183255832E+03  0.15815703820E+03  0.14425926227E+04  0.17899170744E+04  0.95000000000E+03 0.  0.
<mgrwt>
<rscale>  0 0.21231349E+04</rscale>
<asrwt>0</asrwt>
<pdfrwt beam="1">  1        2 0.52962584E+00 0.21231349E+04</pdfrwt>
<pdfrwt beam="2">  1       -2 0.50361574E-01 0.21231349E+04</pdfrwt>
<totfact> 0.30691135E+00</totfact>
</mgrwt>
</event>
<event>
 4    1  0.1308745E-008  0.2487003E+04  0.7816531E-02  0.8407630E-01
         -2   -1    0    0    0  501 -0.00000000000E+00  0.00000000000E+00  0.15772674635E+04  0.15772674635E+04  0.00000000000E+00 0.  1.
          2   -1    0    0  501    0  0.00000000000E+00 -0.00000000000E+00 -0.98036383306E+03  0.98036383306E+03  0.00000000000E+00 0. -1.
    2000013    1    1    2    0    0  0.45079443659E+02  0.73129166607E+03 -0.37909044886E+02  0.12003152722E+04  0.95000000000E+03 0.  0.
   -2000013    1    1    2    0    0 -0.45079443659E+02 -0.73129166607E+03  0.63481267534E+03  0.13573160243E+04  0.95000000000E+03 0.  0.
<mgrwt>
<rscale>  0 0.24870030E+04</rscale>
<asrwt>0</asrwt>
<pdfrwt beam="2">  1        2 0.15082521E+00 0.24870030E+04</pdfrwt>
<pdfrwt beam="1">  1       -2 0.24265653E+00 0.24870030E+04</pdfrwt>
<totfact> 0.16513577E+00</totfact>
</mgrwt>
</event>
<event>
 4    1  0.1308745E-008  0.2222215E+04  0.7816531E-02  0.8509238E-01
         -2   -1    0    0    0  501 -0.00000000000E+00  0.00000000000E+00  0.49360130821E+03  0.49360130821E+03  0.00000000000E+00 0. -1.
          2   -1    0    0  501    0  0.00000000000E+00 -0.00000000000E+00 -0.25011266670E+04  0.25011266670E+04  0.00000000000E+00 0.  1.
    2000013    1    1    2    0    0 -0.57375979510E+03  0.81352894862E+01 -0.93254303307E+03  0.14496216727E+04  0.95000000000E+03 0.  0.
   -2000013    1    1    2    0    0  0.57375979510E+03 -0.81352894862E+01 -0.10749823257E+04  0.15451063025E+04  0.95000000000E+03 0.  0.
<mgrwt>
<rscale>  0 0.22222146E+04</rscale>
<asrwt>0</asrwt>
<pdfrwt beam="2">  1        2 0.38478871E+00 0.22222146E+04</pdfrwt>
<pdfrwt beam="1">  1       -2 0.75938664E-01 0.22222146E+04</pdfrwt>
<totfact> 0.49262058E+00</totfact>
</mgrwt>
</event>
<event>
 4    1  0.1308745E-008  0.2876077E+04  0.7816531E-02  0.8280031E-01
          2   -1    0    0  501    0  0.00000000000E+00  0.00000000000E+00  0.19000212226E+04  0.19000212226E+04  0.00000000000E+00 0.  1.
         -2   -1    0    0    0  501 -0.00000000000E+00 -0.00000000000E+00 -0.10883854258E+04  0.10883854258E+04  0.00000000000E+00 0. -1.
    2000013    1    1    2    0    0  0.70707217577E+03  0.75765969604E+03  0.91589432653E+02  0.14088604973E+04  0.95000000000E+03 0.  0.
   -2000013    1    1    2    0    0 -0.70707217577E+03 -0.75765969604E+03  0.72004636416E+03  0.15795461511E+04  0.95000000000E+03 0.  0.
<mgrwt>
<rscale>  0 0.28760775E+04</rscale>
<asrwt>0</asrwt>
<pdfrwt beam="1">  1        2 0.29231096E+00 0.28760775E+04</pdfrwt>
<pdfrwt beam="2">  1       -2 0.16744391E+00 0.28760775E+04</pdfrwt>
<totfact> 0.14598519E+00</totfact>
</mgrwt>
</event>
<event>
 4    1  0.1308745E-008  0.2204198E+04  0.7816531E-02  0.8516683E-01
          2   -1    0    0  501    0  0.00000000000E+00  0.00000000000E+00  0.17936111096E+04  0.17936111096E+04  0.00000000000E+00 0.  1.
         -2   -1    0    0    0  501 -0.00000000000E+00 -0.00000000000E+00 -0.67719349781E+03  0.67719349781E+03  0.00000000000E+00 0. -1.
    2000013    1    1    2    0    0 -0.42565819125E+03  0.29796434775E+03  0.78835720250E+03  0.13393934176E+04  0.95000000000E+03 0.  0.
   -2000013    1    1    2    0    0  0.42565819125E+03 -0.29796434775E+03  0.32806040925E+03  0.11314111898E+04  0.95000000000E+03 0.  0.
<mgrwt>
<rscale>  0 0.22041976E+04</rscale>
<asrwt>0</asrwt>
<pdfrwt beam="1">  1        2 0.27594017E+00 0.22041976E+04</pdfrwt>
<pdfrwt beam="2">  1       -2 0.10418362E+00 0.22041976E+04</pdfrwt>
<totfact> 0.59538588E+00</totfact>
</mgrwt>
</event>
<event>
 4    1  0.1308745E-008  0.2822773E+04  0.7816531E-02  0.8296233E-01
         -2   -1    0    0    0  501 -0.00000000000E+00  0.00000000000E+00  0.10510518840E+04  0.10510518840E+04  0.00000000000E+00 0. -1.
          2   -1    0    0  501    0  0.00000000000E+00 -0.00000000000E+00 -0.18952551371E+04  0.18952551371E+04  0.00000000000E+00 0.  1.
    2000013    1    1    2    0    0  0.78044805933E+03 -0.63459470220E+03 -0.71305127062E+03  0.15565191049E+04  0.95000000000E+03 0.  0.
   -2000013    1    1    2    0    0 -0.78044805933E+03  0.63459470220E+03 -0.13115198247E+03  0.13897879162E+04  0.95000000000E+03 0.  0.
<mgrwt>
<rscale>  0 0.28227727E+04</rscale>
<asrwt>0</asrwt>
<pdfrwt beam="2">  1        2 0.29157771E+00 0.28227727E+04</pdfrwt>
<pdfrwt beam="1">  1       -2 0.16170029E+00 0.28227727E+04</pdfrwt>
<totfact> 0.16240146E+00</totfact>
</mgrwt>
</event>
<event>
 4    1  0.1308745E-008  0.2733217E+04  0.7816531E-02  0.8324307E-01
          2   -1    0    0  501    0  0.00000000000E+00  0.00000000000E+00  0.14561088149E+04  0.14561088149E+04  0.00000000000E+00 0.  1.
         -2   -1    0    0    0  501 -0.00000000000E+00 -0.00000000000E+00 -0.12826092798E+04  0.12826092798E+04  0.00000000000E+00 0. -1.
    2000013    1    1    2    0    0 -0.85573619816E+03 -0.48249861896E+03  0.81324055509E+02  0.13690153250E+04  0.95000000000E+03 0.  0.
   -2000013    1    1    2    0    0  0.85573619816E+03  0.48249861896E+03  0.92175479637E+02  0.13697027696E+04  0.95000000000E+03 0.  0.
<mgrwt>
<rscale>  0 0.27332169E+04</rscale>
<asrwt>0</asrwt>
<pdfrwt beam="1">  1        2 0.22401674E+00 0.27332169E+04</pdfrwt>
<pdfrwt beam="2">  1       -2 0.19732450E+00 0.27332169E+04</pdfrwt>
<totfact> 0.16291942E+00</totfact>
</mgrwt>
</event>
<event>
 4    1  0.1308745E-008  0.2162928E+04  0.7816531E-02  0.8534019E-01
         -1   -1    0    0    0  501 -0.00000000000E+00  0.00000000000E+00  0.73370229180E+03  0.73370229180E+03  0.00000000000E+00 0. -1.
          1   -1    0    0  501    0  0.00000000000E+00 -0.00000000000E+00 -0.15940583845E+04  0.15940583845E+04  0.00000000000E+00 0.  1.
    2000013    1    1    2    0    0  0.28592606629E+03 -0.42368398342E+03 -0.51215697504E+03  0.11941803048E+04  0.95000000000E+03 0.  0.
   -2000013    1    1    2    0    0 -0.28592606629E+03  0.42368398342E+03 -0.34819911766E+03  0.11335803715E+04  0.95000000000E+03 0.  0.
<mgrwt>
<rscale>  0 0.21629279E+04</rscale>
<asrwt>0</asrwt>
<pdfrwt beam="2">  1        1 0.24523975E+00 0.21629279E+04</pdfrwt>
<pdfrwt beam="1">  1       -1 0.11287728E+00 0.21629279E+04</pdfrwt>
<totfact> 0.36976936E+00</totfact>
</mgrwt>
</event>
<event>
 4    1  0.1308745E-008  0.2585812E+04  0.7816531E-02  0.8373037E-01
          2   -1    0    0  501    0  0.00000000000E+00  0.00000000000E+00  0.22677098167E+04  0.22677098167E+04  0.00000000000E+00 0.  1.
         -2   -1    0    0    0  501 -0.00000000000E+00 -0.00000000000E+00 -0.73713401453E+03  0.73713401453E+03  0.00000000000E+00 0. -1.
    2000013    1    1    2    0    0  0.40779733326E+03 -0.30160061768E+02  0.16668306043E+04  0.19616402723E+04  0.95000000000E+03 0.  0.
   -2000013    1    1    2    0    0 -0.40779733326E+03  0.30160061768E+02 -0.13625480212E+03  0.10432035590E+04  0.95000000000E+03 0.  0.
<mgrwt>
<rscale>  0 0.25858121E+04</rscale>
<asrwt>0</asrwt>
<pdfrwt beam="1">  1        2 0.34887843E+00 0.25858121E+04</pdfrwt>
<pdfrwt beam="2">  1       -2 0.11340523E+00 0.25858121E+04</pdfrwt>
<totfact> 0.25545886E+00</totfact>
</mgrwt>
</event>
<event>
 4    1  0.1308745E-008  0.2082078E+04  0.7816531E-02  0.8569179E-01
         -2   -1    0    0    0  501 -0.00000000000E+00  0.00000000000E+00  0.40356836531E+03  0.40356836531E+03  0.00000000000E+00 0.  1.
          2   -1    0    0  501    0  0.00000000000E+00 -0.00000000000E+00 -0.26854492824E+04  0.26854492824E+04  0.00000000000E+00 0. -1.
    2000013    1    1    2    0    0 -0.29502327255E+03 -0.30397823038E+03 -0.10776316474E+04  0.14977421218E+04  0.95000000000E+03 0.  0.
   -2000013    1    1    2    0    0  0.29502327255E+03  0.30397823038E+03 -0.12042492698E+04  0.15912755260E+04  0.95000000000E+03 0.  0.
<mgrwt>
<rscale>  0 0.20820782E+04</rscale>
<asrwt>0</asrwt>
<pdfrwt beam="2">  1        2 0.41314604E+00 0.20820782E+04</pdfrwt>
<pdfrwt beam="1">  1       -2 0.62087442E-01 0.20820782E+04</pdfrwt>
<totfact> 0.60261652E+00</totfact>
</mgrwt>
</event>
<event>
 4    1  0.1308745E-008  0.2968294E+04  0.7816531E-02  0.8252843E-01
         -2   -1    0    0    0  501 -0.00000000000E+00  0.00000000000E+00  0.12345390625E+04  0.12345390625E+04  0.00000000000E+00 0. -1.
          2   -1    0    0  501    0  0.00000000000E+00 -0.00000000000E+00 -0.17842226262E+04  0.17842226262E+04  0.00000000000E+00 0.  1.
    2000013    1    1    2    0    0  0.63581236146E+03 -0.89665441293E+03 -0.58322333597E+03  0.15655337604E+04  0.95000000000E+03 0.  0.
   -2000013    1    1    2    0    0 -0.63581236146E+03  0.89665441293E+03  0.33539772238E+02  0.14532279283E+04  0.95000000000E+03 0.  0.
<mgrwt>
<rscale>  0 0.29682941E+04</rscale>
<asrwt>0</asrwt>
<pdfrwt beam="2">  1        2 0.27449579E+00 0.29682941E+04</pdfrwt>
<pdfrwt beam="1">  1       -2 0.18992909E+00 0.29682941E+04</pdfrwt>
<totfact> 0.11727002E+00</totfact>
</mgrwt>
</event>
<event>
 4    1  0.1308745E-008  0.2277626E+04  0.7816531E-02  0.8486796E-01
         -2   -1    0    0    0  501 -0.00000000000E+00  0.00000000000E+00  0.11264451945E+04  0.11264451945E+04  0.00000000000E+00 0.  1.
          2   -1    0    0  501    0  0.00000000000E+00 -0.00000000000E+00 -0.11513163460E+04  0.11513163460E+04  0.00000000000E+00 0. -1.
    2000013    1    1    2    0    0  0.15193636706E+03 -0.33630049250E+03  0.49574045079E+03  0.11333319352E+04  0.95000000000E+03 0.  0.
   -2000013    1    1    2    0    0 -0.15193636706E+03  0.33630049250E+03 -0.52061160235E+03  0.11444296053E+04  0.95000000000E+03 0.  0.
<mgrwt>
<rscale>  0 0.22776258E+04</rscale>
<asrwt>0</asrwt>
<pdfrwt beam="2">  1        2 0.17712559E+00 0.22776258E+04</pdfrwt>
<pdfrwt beam="1">  1       -2 0.17329926E+00 0.22776258E+04</pdfrwt>
<totfact> 0.37174583E+00</totfact>
</mgrwt>
</event>
<event>
 4    1  0.1308745E-008  0.1945569E+04  0.7816531E-02  0.8632501E-01
         -2   -1    0    0    0  501 -0.00000000000E+00  0.00000000000E+00  0.46254399756E+03  0.46254399756E+03  0.00000000000E+00 0. -1.
          2   -1    0    0  501    0  0.00000000000E+00 -0.00000000000E+00 -0.20458796222E+04  0.20458796222E+04  0.00000000000E+00 0.  1.
    2000013    1    1    2    0    0 -0.14872255352E+03 -0.10175162219E+03 -0.92894990821E+03  0.13408652887E+04  0.95000000000E+03 0.  0.
   -2000013    1    1    2    0    0  0.14872255352E+03  0.10175162219E+03 -0.65438571647E+03  0.11675583311E+04  0.95000000000E+03 0.  0.
<mgrwt>
<rscale>  0 0.19455686E+04</rscale>
<asrwt>0</asrwt>
<pdfrwt beam="2">  1        2 0.31475071E+00 0.19455686E+04</pdfrwt>
<pdfrwt beam="1">  1       -2 0.71160616E-01 0.19455686E+04</pdfrwt>
<totfact> 0.10539955E+01</totfact>
</mgrwt>
</event>
<event>
 4    1  0.1308745E-008  0.2399649E+04  0.7816531E-02  0.8439635E-01
          2   -1    0    0  501    0  0.00000000000E+00  0.00000000000E+00  0.23539687071E+04  0.23539687071E+04  0.00000000000E+00 0. -1.
         -2   -1    0    0    0  501 -0.00000000000E+00 -0.00000000000E+00 -0.61155388690E+03  0.61155388690E+03  0.00000000000E+00 0.  1.
    2000013    1    1    2    0    0  0.67910693140E+02  0.72699893498E+03  0.94877289373E+03  0.15283354729E+04  0.95000000000E+03 0.  0.
   -2000013    1    1    2    0    0 -0.67910693140E+02 -0.72699893498E+03  0.79364192644E+03  0.14371871211E+04  0.95000000000E+03 0.  0.
<mgrwt>
<rscale>  0 0.23996489E+04</rscale>
<asrwt>0</asrwt>
<pdfrwt beam="1">  1        2 0.36214903E+00 0.23996489E+04</pdfrwt>
<pdfrwt beam="2">  1       -2 0.94085215E-01 0.23996489E+04</pdfrwt>
<totfact> 0.36206198E+00</totfact>
</mgrwt>
</event>
<event>
 4    1  0.1308745E-008  0.1978023E+04  0.7816531E-02  0.8616965E-01
         -2   -1    0    0    0  501 -0.00000000000E+00  0.00000000000E+00  0.49487145971E+03  0.49487145971E+03  0.00000000000E+00 0. -1.
          2   -1    0    0  501    0  0.00000000000E+00 -0.00000000000E+00 -0.19765607970E+04  0.19765607970E+04  0.00000000000E+00 0.  1.
    2000013    1    1    2    0    0  0.14054203011E+03 -0.22273615124E+03 -0.83985937784E+03  0.12950780787E+04  0.95000000000E+03 0.  0.
   -2000013    1    1    2    0    0 -0.14054203011E+03  0.22273615124E+03 -0.64182995941E+03  0.11763541780E+04  0.95000000000E+03 0.  0.
<mgrwt>
<rscale>  0 0.19780228E+04</rscale>
<asrwt>0</asrwt>
<pdfrwt beam="2">  1        2 0.30408628E+00 0.19780228E+04</pdfrwt>
<pdfrwt beam="1">  1       -2 0.76134070E-01 0.19780228E+04</pdfrwt>
<totfact> 0.98955070E+00</totfact>
</mgrwt>
</event>
<event>
 4    1  0.1308745E-008  0.3185607E+04  0.7816531E-02  0.8192629E-01
          2   -1    0    0  501    0  0.00000000000E+00  0.00000000000E+00  0.11546917328E+04  0.11546917328E+04  0.00000000000E+00 0.  1.
         -2   -1    0    0    0  501 -0.00000000000E+00 -0.00000000000E+00 -0.21971427391E+04  0.21971427391E+04  0.00000000000E+00 0. -1.
    2000013    1    1    2    0    0  0.81716722091E+03 -0.59115450032E+03 -0.13479053722E+04  0.19330221940E+04  0.95000000000E+03 0.  0.
   -2000013    1    1    2    0    0 -0.81716722091E+03  0.59115450032E+03  0.30545436585E+03  0.14188122779E+04  0.95000000000E+03 0.  0.
<mgrwt>
<rscale>  0 0.31856067E+04</rscale>
<asrwt>0</asrwt>
<pdfrwt beam="1">  1        2 0.17764488E+00 0.31856067E+04</pdfrwt>
<pdfrwt beam="2">  1       -2 0.33802196E+00 0.31856067E+04</pdfrwt>
<totfact> 0.31449467E-01</totfact>
</mgrwt>
</event>
<event>
 4    1  0.1308745E-008  0.2351708E+04  0.7816531E-02  0.8457808E-01
          2   -1    0    0  501    0  0.00000000000E+00  0.00000000000E+00  0.35437988787E+04  0.35437988787E+04  0.00000000000E+00 0.  1.
         -2   -1    0    0    0  501 -0.00000000000E+00 -0.00000000000E+00 -0.39015558628E+03  0.39015558628E+03  0.00000000000E+00 0. -1.
    2000013    1    1    2    0    0 -0.22861047987E+03  0.44362707040E+03  0.23809273755E+04  0.26115862797E+04  0.95000000000E+03 0.  0.
   -2000013    1    1    2    0    0  0.22861047987E+03 -0.44362707040E+03  0.77271591693E+03  0.13223681853E+04  0.95000000000E+03 0.  0.
<mgrwt>
<rscale>  0 0.23517083E+04</rscale>
<asrwt>0</asrwt>
<pdfrwt beam="1">  1        2 0.54519981E+00 0.23517083E+04</pdfrwt>
<pdfrwt beam="2">  1       -2 0.60023939E-01 0.23517083E+04</pdfrwt>
<totfact> 0.17734460E+00</totfact>
</mgrwt>
</event>
<event>
 4    1  0.1308745E-008  0.2896040E+04  0.7816531E-02  0.8274057E-01
          2   -1    0    0  501    0  0.00000000000E+00  0.00000000000E+00  0.10469973199E+04  0.10469973199E+04  0.00000000000E+00 0.  1.
         -2   -1    0    0    0  501 -0.00000000000E+00 -0.00000000000E+00 -0.20026435582E+04  0.20026435582E+04  0.00000000000E+00 0. -1.
    2000013    1    1    2    0    0  0.65326220532E+03 -0.87531373721E+03 -0.43932178393E+03  0.15127555246E+04  0.95000000000E+03 0.  0.
   -2000013    1    1    2    0    0 -0.65326220532E+03  0.87531373721E+03 -0.51632445432E+03  0.15368853534E+04  0.95000000000E+03 0.  0.
<mgrwt>
<rscale>  0 0.28960404E+04</rscale>
<asrwt>0</asrwt>
<pdfrwt beam="1">  1        2 0.16107651E+00 0.28960404E+04</pdfrwt>
<pdfrwt beam="2">  1       -2 0.30809901E+00 0.28960404E+04</pdfrwt>
<totfact> 0.57536580E-01</totfact>
</mgrwt>
</event>
<event>
 4    1  0.1308745E-008  0.2310624E+04  0.7816531E-02  0.8473744E-01
          2   -1    0    0  501    0  0.00000000000E+00  0.00000000000E+00  0.90094633674E+03  0.90094633674E+03  0.00000000000E+00 0.  1.
         -2   -1    0    0    0  501 -0.00000000000E+00 -0.00000000000E+00 -0.14814928498E+04  0.14814928498E+04  0.00000000000E+00 0. -1.
    2000013    1    1    2    0    0  0.26443703559E+03  0.54752487052E+03 -0.32430697908E+02  0.11283891969E+04  0.95000000000E+03 0.  0.
   -2000013    1    1    2    0    0 -0.26443703559E+03 -0.54752487052E+03 -0.54811581519E+03  0.12540499896E+04  0.95000000000E+03 0.  0.
<mgrwt>
<rscale>  0 0.23106238E+04</rscale>
<asrwt>0</asrwt>
<pdfrwt beam="1">  1        2 0.13860713E+00 0.23106238E+04</pdfrwt>
<pdfrwt beam="2">  1       -2 0.22792197E+00 0.23106238E+04</pdfrwt>
<totfact> 0.23359334E+00</totfact>
</mgrwt>
</event>
<event>
 4    1  0.1308745E-008  0.2917039E+04  0.7816531E-02  0.8267826E-01
         -2   -1    0    0    0  501 -0.00000000000E+00  0.00000000000E+00  0.12054472779E+04  0.12054472779E+04  0.00000000000E+00 0. -1.
          2   -1    0    0  501    0  0.00000000000E+00 -0.00000000000E+00 -0.17647218046E+04  0.17647218046E+04  0.00000000000E+00 0.  1.
    2000013    1    1    2    0    0 -0.10476595921E+04 -0.24872862347E+02 -0.64188361017E+03  0.15532945147E+04  0.95000000000E+03 0.  0.
   -2000013    1    1    2    0    0  0.10476595921E+04  0.24872862347E+02  0.82609083456E+02  0.14168745678E+04  0.95000000000E+03 0.  0.
<mgrwt>
<rscale>  0 0.29170390E+04</rscale>
<asrwt>0</asrwt>
<pdfrwt beam="2">  1        2 0.27149566E+00 0.29170390E+04</pdfrwt>
<pdfrwt beam="1">  1       -2 0.18545343E+00 0.29170390E+04</pdfrwt>
<totfact> 0.12944923E+00</totfact>
</mgrwt>
</event>
<event>
 4    1  0.1308745E-008  0.3457154E+04  0.7816531E-02  0.8124020E-01
          2   -1    0    0  501    0  0.00000000000E+00  0.00000000000E+00  0.31730715806E+04  0.31730715806E+04  0.00000000000E+00 0.  1.
         -2   -1    0    0    0  501 -0.00000000000E+00 -0.00000000000E+00 -0.94166759910E+03  0.94166759910E+03  0.00000000000E+00 0. -1.
    2000013    1    1    2    0    0 -0.14143523978E+04  0.10477448400E+03  0.79169305195E+03  0.18816610444E+04  0.95000000000E+03 0.  0.
   -2000013    1    1    2    0    0  0.14143523978E+04 -0.10477448400E+03  0.14397109295E+04  0.22330781353E+04  0.95000000000E+03 0.  0.
<mgrwt>
<rscale>  0 0.34571541E+04</rscale>
<asrwt>0</asrwt>
<pdfrwt beam="1">  1        2 0.48816485E+00 0.34571541E+04</pdfrwt>
<pdfrwt beam="2">  1       -2 0.14487194E+00 0.34571541E+04</pdfrwt>
<totfact> 0.36530700E-01</totfact>
</mgrwt>
</event>
<event>
 4    1  0.1308745E-008  0.2006066E+04  0.7816531E-02  0.8603790E-01
          2   -1    0    0  501    0  0.00000000000E+00  0.00000000000E+00  0.12621823522E+04  0.12621823522E+04  0.00000000000E+00 0.  1.
         -2   -1    0    0    0  501 -0.00000000000E+00 -0.00000000000E+00 -0.79709151321E+03  0.79709151321E+03  0.00000000000E+00 0. -1.
    2000013    1    1    2    0    0  0.94749202479E+02 -0.22204556950E+03  0.14078620557E+02  0.98029579916E+03  0.95000000000E+03 0.  0.
   -2000013    1    1    2    0    0 -0.94749202479E+02  0.22204556950E+03  0.45101221846E+03  0.10789780663E+04  0.95000000000E+03 0.  0.
<mgrwt>
<rscale>  0 0.20060656E+04</rscale>
<asrwt>0</asrwt>
<pdfrwt beam="1">  1        2 0.19418190E+00 0.20060656E+04</pdfrwt>
<pdfrwt beam="2">  1       -2 0.12262946E+00 0.20060656E+04</pdfrwt>
<totfact> 0.81284022E+00</totfact>
</mgrwt>
</event>
<event>
 4    1  0.1308745E-008  0.2078882E+04  0.7816531E-02  0.8570603E-01
          1   -1    0    0  501    0  0.00000000000E+00  0.00000000000E+00  0.52425251159E+03  0.52425251159E+03  0.00000000000E+00 0.  1.
         -1   -1    0    0    0  501 -0.00000000000E+00 -0.00000000000E+00 -0.20609109332E+04  0.20609109332E+04  0.00000000000E+00 0. -1.
    2000013    1    1    2    0    0 -0.37025411481E+03  0.88323325753E+02 -0.99439495621E+03  0.14269584606E+04  0.95000000000E+03 0.  0.
   -2000013    1    1    2    0    0  0.37025411481E+03 -0.88323325753E+02 -0.54226346536E+03  0.11582049841E+04  0.95000000000E+03 0.  0.
<mgrwt>
<rscale>  0 0.20788821E+04</rscale>
<asrwt>0</asrwt>
<pdfrwt beam="1">  1        1 0.80654234E-01 0.20788821E+04</pdfrwt>
<pdfrwt beam="2">  1       -1 0.31706322E+00 0.20788821E+04</pdfrwt>
<totfact> 0.97877351E-01</totfact>
</mgrwt>
</event>
<event>
 4    1  0.1308745E-008  0.2970023E+04  0.7816531E-02  0.8252343E-01
         -1   -1    0    0    0  501 -0.00000000000E+00  0.00000000000E+00  0.14282301682E+04  0.14282301682E+04  0.00000000000E+00 0. -1.
          1   -1    0    0  501    0  0.00000000000E+00 -0.00000000000E+00 -0.15440501495E+04  0.15440501495E+04  0.00000000000E+00 0.  1.
    2000013    1    1    2    0    0  0.93814280107E+03  0.14548047652E+03  0.57619809181E+03  0.14614310539E+04  0.95000000000E+03 0.  0.
   -2000013    1    1    2    0    0 -0.93814280107E+03 -0.14548047652E+03 -0.69201807311E+03  0.15108492637E+04  0.95000000000E+03 0.  0.
<mgrwt>
<rscale>  0 0.29700229E+04</rscale>
<asrwt>0</asrwt>
<pdfrwt beam="2">  1        1 0.23754618E+00 0.29700229E+04</pdfrwt>
<pdfrwt beam="1">  1       -1 0.21972772E+00 0.29700229E+04</pdfrwt>
<totfact> 0.57504196E-01</totfact>
</mgrwt>
</event>
<event>
 4    1  0.1308745E-008  0.4004804E+04  0.7816531E-02  0.8003578E-01
          2   -1    0    0  501    0  0.00000000000E+00  0.00000000000E+00  0.33247269456E+04  0.33247269456E+04  0.00000000000E+00 0.  1.
         -2   -1    0    0    0  501 -0.00000000000E+00 -0.00000000000E+00 -0.12059979045E+04  0.12059979045E+04  0.00000000000E+00 0. -1.
    2000013    1    1    2    0    0  0.12770577871E+04 -0.62005325071E+03  0.22414590906E+04  0.28181521392E+04  0.95000000000E+03 0.  0.
   -2000013    1    1    2    0    0 -0.12770577871E+04  0.62005325071E+03 -0.12273004947E+03  0.17125727109E+04  0.95000000000E+03 0.  0.
<mgrwt>
<rscale>  0 0.40048040E+04</rscale>
<asrwt>0</asrwt>
<pdfrwt beam="1">  1        2 0.51149645E+00 0.40048040E+04</pdfrwt>
<pdfrwt beam="2">  1       -2 0.18553814E+00 0.40048040E+04</pdfrwt>
<totfact> 0.14028996E-01</totfact>
</mgrwt>
</event>
<event>
 4    1  0.1308745E-008  0.2564786E+04  0.7816531E-02  0.8380262E-01
         -2   -1    0    0    0  501 -0.00000000000E+00  0.00000000000E+00  0.77281973725E+03  0.77281973725E+03  0.00000000000E+00 0. -1.
          2   -1    0    0  501    0  0.00000000000E+00 -0.00000000000E+00 -0.21279630284E+04  0.21279630284E+04  0.00000000000E+00 0.  1.
    2000013    1    1    2    0    0  0.47616034547E+03  0.71630366595E+03 -0.62437583368E+03  0.14255401777E+04  0.95000000000E+03 0.  0.
   -2000013    1    1    2    0    0 -0.47616034547E+03 -0.71630366595E+03 -0.73076745743E+03  0.14752425879E+04  0.95000000000E+03 0.  0.
<mgrwt>
<rscale>  0 0.25647860E+04</rscale>
<asrwt>0</asrwt>
<pdfrwt beam="2">  1        2 0.32737892E+00 0.25647860E+04</pdfrwt>
<pdfrwt beam="1">  1       -2 0.11889535E+00 0.25647860E+04</pdfrwt>
<totfact> 0.27318896E+00</totfact>
</mgrwt>
</event>
<event>
 4    1  0.1308745E-008  0.2421943E+04  0.7816531E-02  0.8431334E-01
         -2   -1    0    0    0  501 -0.00000000000E+00  0.00000000000E+00  0.21350570966E+04  0.21350570966E+04  0.00000000000E+00 0. -1.
          2   -1    0    0  501    0  0.00000000000E+00 -0.00000000000E+00 -0.68684424075E+03  0.68684424075E+03  0.00000000000E+00 0.  1.
    2000013    1    1    2    0    0 -0.31896914097E+03 -0.66438952474E+03  0.89213279269E+03  0.14971825785E+04  0.95000000000E+03 0.  0.
   -2000013    1    1    2    0    0  0.31896914097E+03  0.66438952474E+03  0.55608006315E+03  0.13247187589E+04  0.95000000000E+03 0.  0.
<mgrwt>
<rscale>  0 0.24219427E+04</rscale>
<asrwt>0</asrwt>
<pdfrwt beam="2">  1        2 0.10566835E+00 0.24219427E+04</pdfrwt>
<pdfrwt beam="1">  1       -2 0.32847032E+00 0.24219427E+04</pdfrwt>
<totfact> 0.79973887E-01</totfact>
</mgrwt>
</event>
<event>
 4    1  0.1308745E-008  0.2853613E+04  0.7816531E-02  0.8286814E-01
          2   -1    0    0  501    0  0.00000000000E+00  0.00000000000E+00  0.28448867219E+04  0.28448867219E+04  0.00000000000E+00 0.  1.
         -2   -1    0    0    0  501 -0.00000000000E+00 -0.00000000000E+00 -0.71559141061E+03  0.71559141061E+03  0.00000000000E+00 0. -1.
    2000013    1    1    2    0    0  0.55915786933E+03 -0.57490991119E+03  0.19116445929E+03  0.12578643724E+04  0.95000000000E+03 0.  0.
   -2000013    1    1    2    0    0 -0.55915786933E+03  0.57490991119E+03  0.19381308520E+04  0.23026137601E+04  0.95000000000E+03 0.  0.
<mgrwt>
<rscale>  0 0.28536128E+04</rscale>
<asrwt>0</asrwt>
<pdfrwt beam="1">  1        2 0.43767487E+00 0.28536128E+04</pdfrwt>
<pdfrwt beam="2">  1       -2 0.11009099E+00 0.28536128E+04</pdfrwt>
<totfact> 0.12330908E+00</totfact>
</mgrwt>
</event>
<event>
 4    1  0.1308745E-008  0.3516349E+04  0.7816531E-02  0.8109926E-01
         -2   -1    0    0    0  501 -0.00000000000E+00  0.00000000000E+00  0.13540090717E+04  0.13540090717E+04  0.00000000000E+00 0. -1.
          2   -1    0    0  501    0  0.00000000000E+00 -0.00000000000E+00 -0.22829811120E+04  0.22829811120E+04  0.00000000000E+00 0.  1.
    2000013    1    1    2    0    0  0.10675764622E+04 -0.10227976102E+04 -0.40933997766E+03  0.18044095076E+04  0.95000000000E+03 0.  0.
   -2000013    1    1    2    0    0 -0.10675764622E+04  0.10227976102E+04 -0.51963206266E+03  0.18325806761E+04  0.95000000000E+03 0.  0.
<mgrwt>
<rscale>  0 0.35163488E+04</rscale>
<asrwt>0</asrwt>
<pdfrwt beam="2">  1        2 0.35122786E+00 0.35163488E+04</pdfrwt>
<pdfrwt beam="1">  1       -2 0.20830909E+00 0.35163488E+04</pdfrwt>
<totfact> 0.44666511E-01</totfact>
</mgrwt>
</event>
<event>
 4    1  0.1308745E-008  0.2098257E+04  0.7816531E-02  0.8562012E-01
         -2   -1    0    0    0  501 -0.00000000000E+00  0.00000000000E+00  0.53521153945E+03  0.53521153945E+03  0.00000000000E+00 0. -1.
          2   -1    0    0  501    0  0.00000000000E+00 -0.00000000000E+00 -0.20565152470E+04  0.20565152470E+04  0.00000000000E+00 0.  1.
    2000013    1    1    2    0    0 -0.20605314304E+03  0.34364848714E+03 -0.52108246765E+03  0.11552398533E+04  0.95000000000E+03 0.  0.
   -2000013    1    1    2    0    0  0.20605314304E+03 -0.34364848714E+03 -0.10002212399E+04  0.14364869332E+04  0.95000000000E+03 0.  0.
<mgrwt>
<rscale>  0 0.20982571E+04</rscale>
<asrwt>0</asrwt>
<pdfrwt beam="2">  1        2 0.31638696E+00 0.20982571E+04</pdfrwt>
<pdfrwt beam="1">  1       -2 0.82340236E-01 0.20982571E+04</pdfrwt>
<totfact> 0.74169253E+00</totfact>
</mgrwt>
</event>
<event>
 4    1  0.1308745E-008  0.2025939E+04  0.7816531E-02  0.8594588E-01
          2   -1    0    0  501    0  0.00000000000E+00  0.00000000000E+00  0.52450166888E+03  0.52450166888E+03  0.00000000000E+00 0.  1.
         -2   -1    0    0    0  501 -0.00000000000E+00 -0.00000000000E+00 -0.19563471630E+04  0.19563471630E+04  0.00000000000E+00 0. -1.
    2000013    1    1    2    0    0 -0.18616227180E+03  0.26576102721E+03 -0.88167551245E+03  0.13360902007E+04  0.95000000000E+03 0.  0.
   -2000013    1    1    2    0    0  0.18616227180E+03 -0.26576102721E+03 -0.55016998167E+03  0.11447586312E+04  0.95000000000E+03 0.  0.
<mgrwt>
<rscale>  0 0.20259391E+04</rscale>
<asrwt>0</asrwt>
<pdfrwt beam="1">  1        2 0.80692564E-01 0.20259391E+04</pdfrwt>
<pdfrwt beam="2">  1       -2 0.30097649E+00 0.20259391E+04</pdfrwt>
<totfact> 0.16939951E+00</totfact>
</mgrwt>
</event>
<event>
 4    1  0.1308745E-008  0.2549599E+04  0.7816531E-02  0.8385526E-01
          2   -1    0    0  501    0  0.00000000000E+00  0.00000000000E+00  0.11490323800E+04  0.11490323800E+04  0.00000000000E+00 0. -1.
         -2   -1    0    0    0  501 -0.00000000000E+00 -0.00000000000E+00 -0.14143320558E+04  0.14143320558E+04  0.00000000000E+00 0.  1.
    2000013    1    1    2    0    0 -0.39106013795E+03  0.62195669025E+03 -0.56257430079E+03  0.13261779669E+04  0.95000000000E+03 0.  0.
   -2000013    1    1    2    0    0  0.39106013795E+03 -0.62195669025E+03  0.29727462499E+03  0.12371864689E+04  0.95000000000E+03 0.  0.
<mgrwt>
<rscale>  0 0.25495987E+04</rscale>
<asrwt>0</asrwt>
<pdfrwt beam="1">  1        2 0.17677421E+00 0.25495987E+04</pdfrwt>
<pdfrwt beam="2">  1       -2 0.21758955E+00 0.25495987E+04</pdfrwt>
<totfact> 0.18486763E+00</totfact>
</mgrwt>
</event>
<event>
 4    1  0.1308745E-008  0.2288884E+04  0.7816531E-02  0.8482317E-01
          1   -1    0    0  501    0  0.00000000000E+00  0.00000000000E+00  0.39569767125E+04  0.39569767125E+04  0.00000000000E+00 0.  1.
         -1   -1    0    0    0  501 -0.00000000000E+00 -0.00000000000E+00 -0.33099694754E+03  0.33099694754E+03  0.00000000000E+00 0. -1.
    2000013    1    1    2    0    0  0.71837888016E+02  0.60113165107E+03  0.14349209270E+04  0.18242856166E+04  0.95000000000E+03 0.  0.
   -2000013    1    1    2    0    0 -0.71837888016E+02 -0.60113165107E+03  0.21910588379E+04  0.24636880434E+04  0.95000000000E+03 0.  0.
<mgrwt>
<rscale>  0 0.22888838E+04</rscale>
<asrwt>0</asrwt>
<pdfrwt beam="1">  1        1 0.60876562E+00 0.22888838E+04</pdfrwt>
<pdfrwt beam="2">  1       -1 0.50922610E-01 0.22888838E+04</pdfrwt>
<totfact> 0.36859103E-01</totfact>
</mgrwt>
</event>
<event>
 4    1  0.1308745E-008  0.2400523E+04  0.7816531E-02  0.8439308E-01
         -2   -1    0    0    0  501 -0.00000000000E+00  0.00000000000E+00  0.73268642757E+03  0.73268642757E+03  0.00000000000E+00 0. -1.
          2   -1    0    0  501    0  0.00000000000E+00 -0.00000000000E+00 -0.19662261997E+04  0.19662261997E+04  0.00000000000E+00 0.  1.
    2000013    1    1    2    0    0 -0.33988014932E+03 -0.64502410529E+03 -0.70778030124E+03  0.13910526831E+04  0.95000000000E+03 0.  0.
   -2000013    1    1    2    0    0  0.33988014932E+03  0.64502410529E+03 -0.52575947085E+03  0.13078599441E+04  0.95000000000E+03 0.  0.
<mgrwt>
<rscale>  0 0.24005227E+04</rscale>
<asrwt>0</asrwt>
<pdfrwt beam="2">  1        2 0.30249634E+00 0.24005227E+04</pdfrwt>
<pdfrwt beam="1">  1       -2 0.11272099E+00 0.24005227E+04</pdfrwt>
<totfact> 0.38840939E+00</totfact>
</mgrwt>
</event>
<event>
 4    1  0.1308745E-008  0.2350450E+04  0.7816531E-02  0.8458291E-01
         -2   -1    0    0    0  501 -0.00000000000E+00  0.00000000000E+00  0.40806959074E+03  0.40806959074E+03  0.00000000000E+00 0. -1.
          2   -1    0    0  501    0  0.00000000000E+00 -0.00000000000E+00 -0.33846044994E+04  0.33846044994E+04  0.00000000000E+00 0.  1.
    2000013    1    1    2    0    0  0.63510355475E+03  0.22077495945E+03 -0.17512193522E+04  0.21027047647E+04  0.95000000000E+03 0.  0.
   -2000013    1    1    2    0    0 -0.63510355475E+03 -0.22077495945E+03 -0.12253155564E+04  0.16899693254E+04  0.95000000000E+03 0.  0.
<mgrwt>
<rscale>  0 0.23504503E+04</rscale>
<asrwt>0</asrwt>
<pdfrwt beam="2">  1        2 0.52070834E+00 0.23504503E+04</pdfrwt>
<pdfrwt beam="1">  1       -2 0.62779942E-01 0.23504503E+04</pdfrwt>
<totfact> 0.20780627E+00</totfact>
</mgrwt>
</event>
<event>
 4    1  0.1308745E-008  0.2105537E+04  0.7816531E-02  0.8558808E-01
         -4   -1    0    0    0  501 -0.00000000000E+00  0.00000000000E+00  0.11880146329E+04  0.11880146329E+04  0.00000000000E+00 0. -1.
          4   -1    0    0  501    0  0.00000000000E+00 -0.00000000000E+00 -0.93291927449E+03  0.93291927449E+03  0.00000000000E+00 0.  1.
    2000013    1    1    2    0    0 -0.18178755571E+03  0.41556714982E+03  0.13649962233E+03  0.10615436488E+04  0.95000000000E+03 0.  0.
   -2000013    1    1    2    0    0  0.18178755571E+03 -0.41556714982E+03  0.11859573612E+03  0.10593902586E+04  0.95000000000E+03 0.  0.
<mgrwt>
<rscale>  0 0.21055372E+04</rscale>
<asrwt>0</asrwt>
<pdfrwt beam="2">  1        4 0.14352604E+00 0.21055372E+04</pdfrwt>
<pdfrwt beam="1">  1       -4 0.18277148E+00 0.21055372E+04</pdfrwt>
<totfact> 0.10605950E-01</totfact>
</mgrwt>
</event>
<event>
 4    1  0.1308745E-008  0.2418449E+04  0.7816531E-02  0.8432629E-01
         -2   -1    0    0    0  501 -0.00000000000E+00  0.00000000000E+00  0.27881882459E+04  0.27881882459E+04  0.00000000000E+00 0. -1.
          2   -1    0    0  501    0  0.00000000000E+00 -0.00000000000E+00 -0.52443493936E+03  0.52443493936E+03  0.00000000000E+00 0.  1.
    2000013    1    1    2    0    0 -0.43522473436E+03  0.56307564988E+03  0.81580235041E+03  0.14403153237E+04  0.95000000000E+03 0.  0.
   -2000013    1    1    2    0    0  0.43522473436E+03 -0.56307564988E+03  0.14479509561E+04  0.18723078615E+04  0.95000000000E+03 0.  0.
<mgrwt>
<rscale>  0 0.24184485E+04</rscale>
<asrwt>0</asrwt>
<pdfrwt beam="2">  1        2 0.80682300E-01 0.24184485E+04</pdfrwt>
<pdfrwt beam="1">  1       -2 0.42895203E+00 0.24184485E+04</pdfrwt>
<totfact> 0.25018896E-01</totfact>
</mgrwt>
</event>
<event>
 4    1  0.1308745E-008  0.2509838E+04  0.7816531E-02  0.8399489E-01
          2   -1    0    0  501    0  0.00000000000E+00  0.00000000000E+00  0.22697212010E+04  0.22697212010E+04  0.00000000000E+00 0.  1.
         -2   -1    0    0    0  501 -0.00000000000E+00 -0.00000000000E+00 -0.69383903854E+03  0.69383903854E+03  0.00000000000E+00 0. -1.
    2000013    1    1    2    0    0 -0.18225060262E+03  0.69446670038E+03  0.12555378384E+04  0.17304261162E+04  0.95000000000E+03 0.  0.
   -2000013    1    1    2    0    0  0.18225060262E+03 -0.69446670038E+03  0.32034432408E+03  0.12331341233E+04  0.95000000000E+03 0.  0.
<mgrwt>
<rscale>  0 0.25098376E+04</rscale>
<asrwt>0</asrwt>
<pdfrwt beam="1">  1        2 0.34918787E+00 0.25098376E+04</pdfrwt>
<pdfrwt beam="2">  1       -2 0.10674447E+00 0.25098376E+04</pdfrwt>
<totfact> 0.29690424E+00</totfact>
</mgrwt>
</event>
<event>
 4    1  0.1308745E-008  0.2732648E+04  0.7816531E-02  0.8324489E-01
          2   -1    0    0  501    0  0.00000000000E+00  0.00000000000E+00  0.13705476886E+04  0.13705476886E+04  0.00000000000E+00 0.  1.
         -2   -1    0    0    0  501 -0.00000000000E+00 -0.00000000000E+00 -0.13621133435E+04  0.13621133435E+04  0.00000000000E+00 0. -1.
    2000013    1    1    2    0    0 -0.58355959117E+03 -0.23384744463E+03  0.75861779063E+03  0.13686589700E+04  0.95000000000E+03 0.  0.
   -2000013    1    1    2    0    0  0.58355959117E+03  0.23384744463E+03 -0.75018344553E+03  0.13640020622E+04  0.95000000000E+03 0.  0.
<mgrwt>
<rscale>  0 0.27326480E+04</rscale>
<asrwt>0</asrwt>
<pdfrwt beam="1">  1        2 0.21085349E+00 0.27326480E+04</pdfrwt>
<pdfrwt beam="2">  1       -2 0.20955590E+00 0.27326480E+04</pdfrwt>
<totfact> 0.15174768E+00</totfact>
</mgrwt>
</event>
<event>
 4    1  0.1308745E-008  0.2715749E+04  0.7816531E-02  0.8329913E-01
          2   -1    0    0  501    0  0.00000000000E+00  0.00000000000E+00  0.10522422734E+04  0.10522422734E+04  0.00000000000E+00 0.  1.
         -2   -1    0    0    0  501 -0.00000000000E+00 -0.00000000000E+00 -0.17522802067E+04  0.17522802067E+04  0.00000000000E+00 0. -1.
    2000013    1    1    2    0    0 -0.17534511023E+02 -0.83570536558E+03 -0.85867683696E+03  0.15292275264E+04  0.95000000000E+03 0.  0.
   -2000013    1    1    2    0    0  0.17534511023E+02  0.83570536558E+03  0.15863890369E+03  0.12752949537E+04  0.95000000000E+03 0.  0.
<mgrwt>
<rscale>  0 0.27157491E+04</rscale>
<asrwt>0</asrwt>
<pdfrwt beam="1">  1        2 0.16188343E+00 0.27157491E+04</pdfrwt>
<pdfrwt beam="2">  1       -2 0.26958157E+00 0.27157491E+04</pdfrwt>
<totfact> 0.99662596E-01</totfact>
</mgrwt>
</event>
<event>
 4    1  0.1308745E-008  0.3234332E+04  0.7816531E-02  0.8179809E-01
          1   -1    0    0  501    0  0.00000000000E+00  0.00000000000E+00  0.15060839859E+04  0.15060839859E+04  0.00000000000E+00 0.  1.
         -1   -1    0    0    0  501 -0.00000000000E+00 -0.00000000000E+00 -0.17364405035E+04  0.17364405035E+04  0.00000000000E+00 0. -1.
    2000013    1    1    2    0    0  0.10819517636E+04 -0.70637582854E+03  0.93046695472E+02  0.16064694573E+04  0.95000000000E+03 0.  0.
   -2000013    1    1    2    0    0 -0.10819517636E+04  0.70637582854E+03 -0.32340321304E+03  0.16360550321E+04  0.95000000000E+03 0.  0.
<mgrwt>
<rscale>  0 0.32343316E+04</rscale>
<asrwt>0</asrwt>
<pdfrwt beam="1">  1        1 0.23170523E+00 0.32343316E+04</pdfrwt>
<pdfrwt beam="2">  1       -1 0.26714469E+00 0.32343316E+04</pdfrwt>
<totfact> 0.29139734E-01</totfact>
</mgrwt>
</event>
<event>
 4    1  0.1308745E-008  0.2251449E+04  0.7816531E-02  0.8497314E-01
         -2   -1    0    0    0  501 -0.00000000000E+00  0.00000000000E+00  0.40039447585E+03  0.40039447585E+03  0.00000000000E+00 0. -1.
          2   -1    0    0  501    0  0.00000000000E+00 -0.00000000000E+00 -0.31650169876E+04  0.31650169876E+04  0.00000000000E+00 0.  1.
    2000013    1    1    2    0    0  0.29755649697E+03  0.44002755193E+03 -0.18374192817E+04  0.21355968093E+04  0.95000000000E+03 0.  0.
   -2000013    1    1    2    0    0 -0.29755649697E+03 -0.44002755193E+03 -0.92720323013E+03  0.14298146542E+04  0.95000000000E+03 0.  0.
<mgrwt>
<rscale>  0 0.22514487E+04</rscale>
<asrwt>0</asrwt>
<pdfrwt beam="2">  1        2 0.48692570E+00 0.22514487E+04</pdfrwt>
<pdfrwt beam="1">  1       -2 0.61599150E-01 0.22514487E+04</pdfrwt>
<totfact> 0.30512524E+00</totfact>
</mgrwt>
</event>
<event>
 4    1  0.1308745E-008  0.2113027E+04  0.7816531E-02  0.8555526E-01
          2   -1    0    0  501    0  0.00000000000E+00  0.00000000000E+00  0.10858126151E+04  0.10858126151E+04  0.00000000000E+00 0.  1.
         -2   -1    0    0    0  501 -0.00000000000E+00 -0.00000000000E+00 -0.10280053836E+04  0.10280053836E+04  0.00000000000E+00 0. -1.
    2000013    1    1    2    0    0 -0.35495384704E+03  0.29363969424E+03  0.67708725067E+02  0.10579702146E+04  0.95000000000E+03 0.  0.
   -2000013    1    1    2    0    0  0.35495384704E+03 -0.29363969424E+03 -0.99014935429E+01  0.10558477841E+04  0.95000000000E+03 0.  0.
<mgrwt>
<rscale>  0 0.21130274E+04</rscale>
<asrwt>0</asrwt>
<pdfrwt beam="1">  1        2 0.16704809E+00 0.21130274E+04</pdfrwt>
<pdfrwt beam="2">  1       -2 0.15815467E+00 0.21130274E+04</pdfrwt>
<totfact> 0.53201901E+00</totfact>
</mgrwt>
</event>
<event>
 4    1  0.1308745E-008  0.2534254E+04  0.7816531E-02  0.8390883E-01
         -2   -1    0    0    0  501 -0.00000000000E+00  0.00000000000E+00  0.84252546378E+03  0.84252546378E+03  0.00000000000E+00 0. -1.
          2   -1    0    0  501    0  0.00000000000E+00 -0.00000000000E+00 -0.19057126587E+04  0.19057126587E+04  0.00000000000E+00 0.  1.
    2000013    1    1    2    0    0 -0.79266356993E+03 -0.25149173980E+03 -0.41505924243E+03  0.13290364197E+04  0.95000000000E+03 0.  0.
   -2000013    1    1    2    0    0  0.79266356993E+03  0.25149173980E+03 -0.64812795252E+03  0.14192017028E+04  0.95000000000E+03 0.  0.
<mgrwt>
<rscale>  0 0.25342545E+04</rscale>
<asrwt>0</asrwt>
<pdfrwt beam="2">  1        2 0.29318656E+00 0.25342545E+04</pdfrwt>
<pdfrwt beam="1">  1       -2 0.12961930E+00 0.25342545E+04</pdfrwt>
<totfact> 0.29335708E+00</totfact>
</mgrwt>
</event>
<event>
 4    1  0.1308745E-008  0.2758301E+04  0.7816531E-02  0.8316332E-01
         -2   -1    0    0    0  501 -0.00000000000E+00  0.00000000000E+00  0.26073002679E+04  0.26073002679E+04  0.00000000000E+00 0. -1.
          2   -1    0    0  501    0  0.00000000000E+00 -0.00000000000E+00 -0.72951174529E+03  0.72951174529E+03  0.00000000000E+00 0.  1.
    2000013    1    1    2    0    0 -0.91901879308E+03  0.31262335266E+03  0.12282896295E+04  0.18312630386E+04  0.95000000000E+03 0.  0.
   -2000013    1    1    2    0    0  0.91901879308E+03 -0.31262335266E+03  0.64949889307E+03  0.15055489745E+04  0.95000000000E+03 0.  0.
<mgrwt>
<rscale>  0 0.27583010E+04</rscale>
<asrwt>0</asrwt>
<pdfrwt beam="2">  1        2 0.11223258E+00 0.27583010E+04</pdfrwt>
<pdfrwt beam="1">  1       -2 0.40112311E+00 0.27583010E+04</pdfrwt>
<totfact> 0.24756749E-01</totfact>
</mgrwt>
</event>
<event>
 4    1  0.1308745E-008  0.3182171E+04  0.7816531E-02  0.8193542E-01
         -2   -1    0    0    0  501 -0.00000000000E+00  0.00000000000E+00  0.12188965717E+04  0.12188965717E+04  0.00000000000E+00 0. -1.
          2   -1    0    0  501    0  0.00000000000E+00 -0.00000000000E+00 -0.20769223170E+04  0.20769223170E+04  0.00000000000E+00 0.  1.
    2000013    1    1    2    0    0 -0.41659738799E+03  0.89145852760E+03  0.41291598937E+03  0.14287236627E+04  0.95000000000E+03 0.  0.
   -2000013    1    1    2    0    0  0.41659738799E+03 -0.89145852760E+03 -0.12709417347E+04  0.18670952260E+04  0.95000000000E+03 0.  0.
<mgrwt>
<rscale>  0 0.31821713E+04</rscale>
<asrwt>0</asrwt>
<pdfrwt beam="2">  1        2 0.31952651E+00 0.31821713E+04</pdfrwt>
<pdfrwt beam="1">  1       -2 0.18752255E+00 0.31821713E+04</pdfrwt>
<totfact> 0.82225048E-01</totfact>
</mgrwt>
</event>
<event>
 4    1  0.1308745E-008  0.2965316E+04  0.7816531E-02  0.8253705E-01
         -2   -1    0    0    0  501 -0.00000000000E+00  0.00000000000E+00  0.28459908742E+04  0.28459908742E+04  0.00000000000E+00 0. -1.
          2   -1    0    0  501    0  0.00000000000E+00 -0.00000000000E+00 -0.77241098934E+03  0.77241098934E+03  0.00000000000E+00 0.  1.
    2000013    1    1    2    0    0  0.65251315438E+03 -0.79870274588E+03  0.16246312951E+04  0.21460723049E+04  0.95000000000E+03 0.  0.
   -2000013    1    1    2    0    0 -0.65251315438E+03  0.79870274588E+03  0.44894858974E+03  0.14723295586E+04  0.95000000000E+03 0.  0.
<mgrwt>
<rscale>  0 0.29653159E+04</rscale>
<asrwt>0</asrwt>
<pdfrwt beam="2">  1        2 0.11883246E+00 0.29653159E+04</pdfrwt>
<pdfrwt beam="1">  1       -2 0.43784475E+00 0.29653159E+04</pdfrwt>
<totfact> 0.12924269E-01</totfact>
</mgrwt>
</event>
<event>
 4    1  0.1308745E-008  0.2449803E+04  0.7816531E-02  0.8421090E-01
         -1   -1    0    0    0  501 -0.00000000000E+00  0.00000000000E+00  0.18715389822E+04  0.18715389822E+04  0.00000000000E+00 0. -1.
          1   -1    0    0  501    0  0.00000000000E+00 -0.00000000000E+00 -0.80168451109E+03  0.80168451109E+03  0.00000000000E+00 0.  1.
    2000013    1    1    2    0    0  0.45030944867E+03  0.61225086997E+03  0.69022328933E+03  0.13987629951E+04  0.95000000000E+03 0.  0.
   -2000013    1    1    2    0    0 -0.45030944867E+03 -0.61225086997E+03  0.37963118183E+03  0.12744604982E+04  0.95000000000E+03 0.  0.
<mgrwt>
<rscale>  0 0.24498031E+04</rscale>
<asrwt>0</asrwt>
<pdfrwt beam="2">  1        1 0.12333608E+00 0.24498031E+04</pdfrwt>
<pdfrwt beam="1">  1       -1 0.28792907E+00 0.24498031E+04</pdfrwt>
<totfact> 0.77751873E-01</totfact>
</mgrwt>
</event>
<event>
 4    1  0.1308745E-008  0.2459776E+04  0.7816531E-02  0.8417457E-01
         -2   -1    0    0    0  501 -0.00000000000E+00  0.00000000000E+00  0.18112333275E+04  0.18112333275E+04  0.00000000000E+00 0. -1.
          2   -1    0    0  501    0  0.00000000000E+00 -0.00000000000E+00 -0.83513491276E+03  0.83513491276E+03  0.00000000000E+00 0.  1.
    2000013    1    1    2    0    0  0.77052191871E+03  0.36106054048E+02  0.62032505871E+03  0.13719733426E+04  0.95000000000E+03 0.  0.
   -2000013    1    1    2    0    0 -0.77052191871E+03 -0.36106054048E+02  0.35577335605E+03  0.12743948977E+04  0.95000000000E+03 0.  0.
<mgrwt>
<rscale>  0 0.24597758E+04</rscale>
<asrwt>0</asrwt>
<pdfrwt beam="2">  1        2 0.12848230E+00 0.24597758E+04</pdfrwt>
<pdfrwt beam="1">  1       -2 0.27865128E+00 0.24597758E+04</pdfrwt>
<totfact> 0.12486034E+00</totfact>
</mgrwt>
</event>
<event>
 4    1  0.1308745E-008  0.2165986E+04  0.7816531E-02  0.8532720E-01
          2   -1    0    0  501    0  0.00000000000E+00  0.00000000000E+00  0.25143145503E+04  0.25143145503E+04  0.00000000000E+00 0.  1.
         -2   -1    0    0    0  501 -0.00000000000E+00 -0.00000000000E+00 -0.46647847093E+03  0.46647847093E+03  0.00000000000E+00 0. -1.
    2000013    1    1    2    0    0  0.11390703489E+03 -0.43374340298E+03  0.66172961790E+03  0.12415692649E+04  0.95000000000E+03 0.  0.
   -2000013    1    1    2    0    0 -0.11390703489E+03  0.43374340298E+03  0.13861064614E+04  0.17392237563E+04  0.95000000000E+03 0.  0.
<mgrwt>
<rscale>  0 0.21659858E+04</rscale>
<asrwt>0</asrwt>
<pdfrwt beam="1">  1        2 0.38681762E+00 0.21659858E+04</pdfrwt>
<pdfrwt beam="2">  1       -2 0.71765920E-01 0.21659858E+04</pdfrwt>
<totfact> 0.55106533E+00</totfact>
</mgrwt>
</event>
<event>
 4    1  0.1308745E-008  0.3489309E+04  0.7816531E-02  0.8116328E-01
         -2   -1    0    0    0  501 -0.00000000000E+00  0.00000000000E+00  0.14234773560E+04  0.14234773560E+04  0.00000000000E+00 0. -1.
          2   -1    0    0  501    0  0.00000000000E+00 -0.00000000000E+00 -0.21382980893E+04  0.21382980893E+04  0.00000000000E+00 0.  1.
    2000013    1    1    2    0    0  0.10376174839E+04  0.94790356495E+03  0.58667199261E+02  0.16973841792E+04  0.95000000000E+03 0.  0.
   -2000013    1    1    2    0    0 -0.10376174839E+04 -0.94790356495E+03 -0.77348793251E+03  0.18643912661E+04  0.95000000000E+03 0.  0.
<mgrwt>
<rscale>  0 0.34893088E+04</rscale>
<asrwt>0</asrwt>
<pdfrwt beam="2">  1        2 0.32896894E+00 0.34893088E+04</pdfrwt>
<pdfrwt beam="1">  1       -2 0.21899652E+00 0.34893088E+04</pdfrwt>
<totfact> 0.46134733E-01</totfact>
</mgrwt>
</event>
<event>
 4    1  0.1308745E-008  0.2645112E+04  0.7816531E-02  0.8353037E-01
         -1   -1    0    0    0  501 -0.00000000000E+00  0.00000000000E+00  0.51563011470E+03  0.51563011470E+03  0.00000000000E+00 0. -1.
          1   -1    0    0  501    0  0.00000000000E+00 -0.00000000000E+00 -0.33922668145E+04  0.33922668145E+04  0.00000000000E+00 0.  1.
    2000013    1    1    2    0    0 -0.70472907385E+03 -0.53726244296E+03 -0.10723488265E+04  0.16845551359E+04  0.95000000000E+03 0.  0.
   -2000013    1    1    2    0    0  0.70472907385E+03  0.53726244296E+03 -0.18042878734E+04  0.22233417934E+04  0.95000000000E+03 0.  0.
<mgrwt>
<rscale>  0 0.26451124E+04</rscale>
<asrwt>0</asrwt>
<pdfrwt beam="2">  1        1 0.52188719E+00 0.26451124E+04</pdfrwt>
<pdfrwt beam="1">  1       -1 0.79327711E-01 0.26451124E+04</pdfrwt>
<totfact> 0.42268921E-01</totfact>
</mgrwt>
</event>
<event>
 4    1  0.1308745E-008  0.3305873E+04  0.7816531E-02  0.8161403E-01
          2   -1    0    0  501    0  0.00000000000E+00  0.00000000000E+00  0.17549185749E+04  0.17549185749E+04  0.00000000000E+00 0.  1.
         -2   -1    0    0    0  501 -0.00000000000E+00 -0.00000000000E+00 -0.15568803972E+04  0.15568803972E+04  0.00000000000E+00 0. -1.
    2000013    1    1    2    0    0  0.92974132641E+03 -0.71179392273E+03  0.77745452646E+03  0.16964684091E+04  0.95000000000E+03 0.  0.
   -2000013    1    1    2    0    0 -0.92974132641E+03  0.71179392273E+03 -0.57941634872E+03  0.16153305630E+04  0.95000000000E+03 0.  0.
<mgrwt>
<rscale>  0 0.33058725E+04</rscale>
<asrwt>0</asrwt>
<pdfrwt beam="1">  1        2 0.26998747E+00 0.33058725E+04</pdfrwt>
<pdfrwt beam="2">  1       -2 0.23952006E+00 0.33058725E+04</pdfrwt>
<totfact> 0.56918233E-01</totfact>
</mgrwt>
</event>
<event>
 4    1  0.1308745E-008  0.2400871E+04  0.7816531E-02  0.8439178E-01
         -1   -1    0    0    0  501 -0.00000000000E+00  0.00000000000E+00  0.82556252103E+03  0.82556252103E+03  0.00000000000E+00 0. -1.
          1   -1    0    0  501    0  0.00000000000E+00 -0.00000000000E+00 -0.17455307914E+04  0.17455307914E+04  0.00000000000E+00 0.  1.
    2000013    1    1    2    0    0 -0.68297651913E+03 -0.40354273970E+01 -0.74747970328E+03  0.13884160461E+04  0.95000000000E+03 0.  0.
   -2000013    1    1    2    0    0  0.68297651913E+03  0.40354273970E+01 -0.17248856705E+03  0.11826772663E+04  0.95000000000E+03 0.  0.
<mgrwt>
<rscale>  0 0.24008705E+04</rscale>
<asrwt>0</asrwt>
<pdfrwt beam="2">  1        1 0.26854320E+00 0.24008705E+04</pdfrwt>
<pdfrwt beam="1">  1       -1 0.12700962E+00 0.24008705E+04</pdfrwt>
<totfact> 0.21378967E+00</totfact>
</mgrwt>
</event>
<event>
 4    1  0.1308745E-008  0.2433854E+04  0.7816531E-02  0.8426937E-01
          2   -1    0    0  501    0  0.00000000000E+00  0.00000000000E+00  0.33214688298E+04  0.33214688298E+04  0.00000000000E+00 0.  1.
         -2   -1    0    0    0  501 -0.00000000000E+00 -0.00000000000E+00 -0.44586054557E+03  0.44586054557E+03  0.00000000000E+00 0. -1.
    2000013    1    1    2    0    0  0.71538794455E+03 -0.19413542290E+03  0.17011424188E+04  0.20846711978E+04  0.95000000000E+03 0.  0.
   -2000013    1    1    2    0    0 -0.71538794455E+03  0.19413542290E+03  0.11744658654E+04  0.16826581776E+04  0.95000000000E+03 0.  0.
<mgrwt>
<rscale>  0 0.24338545E+04</rscale>
<asrwt>0</asrwt>
<pdfrwt beam="1">  1        2 0.51099519E+00 0.24338545E+04</pdfrwt>
<pdfrwt beam="2">  1       -2 0.68593932E-01 0.24338545E+04</pdfrwt>
<totfact> 0.18797530E+00</totfact>
</mgrwt>
</event>
<event>
 4    1  0.1308745E-008  0.3699476E+04  0.7816531E-02  0.8068078E-01
          2   -1    0    0  501    0  0.00000000000E+00  0.00000000000E+00  0.22120765578E+04  0.22120765578E+04  0.00000000000E+00 0.  1.
         -2   -1    0    0    0  501 -0.00000000000E+00 -0.00000000000E+00 -0.15467508791E+04  0.15467508791E+04  0.00000000000E+00 0. -1.
    2000013    1    1    2    0    0 -0.15775395022E+04  0.15984047399E+03  0.26189266756E+03  0.18668871491E+04  0.95000000000E+03 0.  0.
   -2000013    1    1    2    0    0  0.15775395022E+04 -0.15984047399E+03  0.40343301111E+03  0.18919402878E+04  0.95000000000E+03 0.  0.
<mgrwt>
<rscale>  0 0.36994764E+04</rscale>
<asrwt>0</asrwt>
<pdfrwt beam="1">  1        2 0.34031947E+00 0.36994764E+04</pdfrwt>
<pdfrwt beam="2">  1       -2 0.23796167E+00 0.36994764E+04</pdfrwt>
<totfact> 0.31343940E-01</totfact>
</mgrwt>
</event>
<event>
 4    1  0.1308745E-008  0.3258739E+04  0.7816531E-02  0.8173474E-01
         -2   -1    0    0    0  501 -0.00000000000E+00  0.00000000000E+00  0.30730410097E+04  0.30730410097E+04  0.00000000000E+00 0. -1.
          2   -1    0    0  501    0  0.00000000000E+00 -0.00000000000E+00 -0.86391440166E+03  0.86391440166E+03  0.00000000000E+00 0.  1.
    2000013    1    1    2    0    0 -0.87523648334E+03  0.54957194209E+03  0.21039341400E+04  0.25292503014E+04  0.95000000000E+03 0.  0.
   -2000013    1    1    2    0    0  0.87523648334E+03 -0.54957194209E+03  0.10519246796E+03  0.14077051100E+04  0.95000000000E+03 0.  0.
<mgrwt>
<rscale>  0 0.32587386E+04</rscale>
<asrwt>0</asrwt>
<pdfrwt beam="2">  1        2 0.13290991E+00 0.32587386E+04</pdfrwt>
<pdfrwt beam="1">  1       -2 0.47277553E+00 0.32587386E+04</pdfrwt>
<totfact> 0.63862116E-02</totfact>
</mgrwt>
</event>
<event>
 4    1  0.1308745E-008  0.2935419E+04  0.7816531E-02  0.8262417E-01
         -2   -1    0    0    0  501 -0.00000000000E+00  0.00000000000E+00  0.90909273072E+03  0.90909273072E+03  0.00000000000E+00 0.  1.
          2   -1    0    0  501    0  0.00000000000E+00 -0.00000000000E+00 -0.23695831755E+04  0.23695831755E+04  0.00000000000E+00 0. -1.
    2000013    1    1    2    0    0  0.70866886323E+03 -0.85254118644E+03 -0.89827940425E+03  0.17141889979E+04  0.95000000000E+03 0.  0.
   -2000013    1    1    2    0    0 -0.70866886323E+03  0.85254118644E+03 -0.56221104049E+03  0.15644869083E+04  0.95000000000E+03 0.  0.
<mgrwt>
<rscale>  0 0.29354188E+04</rscale>
<asrwt>0</asrwt>
<pdfrwt beam="2">  1        2 0.36455125E+00 0.29354188E+04</pdfrwt>
<pdfrwt beam="1">  1       -2 0.13986042E+00 0.29354188E+04</pdfrwt>
<totfact> 0.12821748E+00</totfact>
</mgrwt>
</event>
<event>
 4    1  0.1308745E-008  0.2745312E+04  0.7816531E-02  0.8320451E-01
         -2   -1    0    0    0  501 -0.00000000000E+00  0.00000000000E+00  0.64545738675E+03  0.64545738675E+03  0.00000000000E+00 0. -1.
          2   -1    0    0  501    0  0.00000000000E+00 -0.00000000000E+00 -0.29191461119E+04  0.29191461119E+04  0.00000000000E+00 0.  1.
    2000013    1    1    2    0    0  0.93874080975E+03 -0.31668315827E+03 -0.11203236056E+04  0.17717639549E+04  0.95000000000E+03 0.  0.
   -2000013    1    1    2    0    0 -0.93874080975E+03  0.31668315827E+03 -0.11533651195E+04  0.17928395437E+04  0.95000000000E+03 0.  0.
<mgrwt>
<rscale>  0 0.27453119E+04</rscale>
<asrwt>0</asrwt>
<pdfrwt beam="2">  1        2 0.44909942E+00 0.27453119E+04</pdfrwt>
<pdfrwt beam="1">  1       -2 0.99301133E-01 0.27453119E+04</pdfrwt>
<totfact> 0.14347071E+00</totfact>
</mgrwt>
</event>
<event>
 4    1  0.1308745E-008  0.2412140E+04  0.7816531E-02  0.8434973E-01
         -2   -1    0    0    0  501 -0.00000000000E+00  0.00000000000E+00  0.91369743648E+03  0.91369743648E+03  0.00000000000E+00 0. -1.
          2   -1    0    0  501    0  0.00000000000E+00 -0.00000000000E+00 -0.15919981968E+04  0.15919981968E+04  0.00000000000E+00 0.  1.
    2000013    1    1    2    0    0  0.49623256393E+02  0.64902913944E+03  0.33081922849E+02  0.11520832023E+04  0.95000000000E+03 0.  0.
   -2000013    1    1    2    0    0 -0.49623256393E+02 -0.64902913944E+03 -0.71138268318E+03  0.13536124310E+04  0.95000000000E+03 0.  0.
<mgrwt>
<rscale>  0 0.24121399E+04</rscale>
<asrwt>0</asrwt>
<pdfrwt beam="2">  1        2 0.24492280E+00 0.24121399E+04</pdfrwt>
<pdfrwt beam="1">  1       -2 0.14056884E+00 0.24121399E+04</pdfrwt>
<totfact> 0.35979008E+00</totfact>
</mgrwt>
</event>
<event>
 4    1  0.1308745E-008  0.3935885E+04  0.7816531E-02  0.8017607E-01
         -1   -1    0    0    0  501 -0.00000000000E+00  0.00000000000E+00  0.21358990620E+04  0.21358990620E+04  0.00000000000E+00 0.  1.
          1   -1    0    0  501    0  0.00000000000E+00 -0.00000000000E+00 -0.18131936281E+04  0.18131936281E+04  0.00000000000E+00 0. -1.
    2000013    1    1    2    0    0  0.14539589114E+04 -0.41767663061E+03 -0.66715918858E+03  0.19068433776E+04  0.95000000000E+03 0.  0.
   -2000013    1    1    2    0    0 -0.14539589114E+04  0.41767663061E+03  0.98986462245E+03  0.20422493125E+04  0.95000000000E+03 0.  0.
<mgrwt>
<rscale>  0 0.39358855E+04</rscale>
<asrwt>0</asrwt>
<pdfrwt beam="2">  1        1 0.27895286E+00 0.39358855E+04</pdfrwt>
<pdfrwt beam="1">  1       -1 0.32859986E+00 0.39358855E+04</pdfrwt>
<totfact> 0.67493262E-02</totfact>
</mgrwt>
</event>
<event>
 4    1  0.1308745E-008  0.2295161E+04  0.7816531E-02  0.8479831E-01
          2   -1    0    0  501    0  0.00000000000E+00  0.00000000000E+00  0.10561501143E+04  0.10561501143E+04  0.00000000000E+00 0.  1.
         -2   -1    0    0    0  501 -0.00000000000E+00 -0.00000000000E+00 -0.12469264432E+04  0.12469264432E+04  0.00000000000E+00 0. -1.
    2000013    1    1    2    0    0 -0.34850231754E+03 -0.34633083247E+03 -0.51280661889E+03  0.11861153145E+04  0.95000000000E+03 0.  0.
   -2000013    1    1    2    0    0  0.34850231754E+03  0.34633083247E+03  0.32203028993E+03  0.11169612431E+04  0.95000000000E+03 0.  0.
<mgrwt>
<rscale>  0 0.22951614E+04</rscale>
<asrwt>0</asrwt>
<pdfrwt beam="1">  1        2 0.16248463E+00 0.22951614E+04</pdfrwt>
<pdfrwt beam="2">  1       -2 0.19183484E+00 0.22951614E+04</pdfrwt>
<totfact> 0.31700555E+00</totfact>
</mgrwt>
</event>
<event>
 4    1  0.1308745E-008  0.2603210E+04  0.7816531E-02  0.8367112E-01
          2   -1    0    0  501    0  0.00000000000E+00  0.00000000000E+00  0.23422064926E+04  0.23422064926E+04  0.00000000000E+00 0.  1.
         -2   -1    0    0    0  501 -0.00000000000E+00 -0.00000000000E+00 -0.72332452733E+03  0.72332452733E+03  0.00000000000E+00 0. -1.
    2000013    1    1    2    0    0  0.46182156205E+03 -0.55601166457E+02 -0.83752440618E+02  0.10610773375E+04  0.95000000000E+03 0.  0.
   -2000013    1    1    2    0    0 -0.46182156205E+03  0.55601166457E+02  0.17026344059E+04  0.20044536825E+04  0.95000000000E+03 0.  0.
<mgrwt>
<rscale>  0 0.26032099E+04</rscale>
<asrwt>0</asrwt>
<pdfrwt beam="1">  1        2 0.36033946E+00 0.26032099E+04</pdfrwt>
<pdfrwt beam="2">  1       -2 0.11128070E+00 0.26032099E+04</pdfrwt>
<totfact> 0.24229859E+00</totfact>
</mgrwt>
</event>
<event>
 4    1  0.1308745E-008  0.2174398E+04  0.7816531E-02  0.8529160E-01
          2   -1    0    0  501    0  0.00000000000E+00  0.00000000000E+00  0.79165523953E+03  0.79165523953E+03  0.00000000000E+00 0.  1.
         -2   -1    0    0    0  501 -0.00000000000E+00 -0.00000000000E+00 -0.14930762242E+04  0.14930762242E+04  0.00000000000E+00 0. -1.
    2000013    1    1    2    0    0  0.42172534632E+03  0.16209396316E+03 -0.63918636294E+03  0.12309288880E+04  0.95000000000E+03 0.  0.
   -2000013    1    1    2    0    0 -0.42172534632E+03 -0.16209396316E+03 -0.62234621756E+02  0.10538025758E+04  0.95000000000E+03 0.  0.
<mgrwt>
<rscale>  0 0.21743980E+04</rscale>
<asrwt>0</asrwt>
<pdfrwt beam="1">  1        2 0.12179311E+00 0.21743980E+04</pdfrwt>
<pdfrwt beam="2">  1       -2 0.22970404E+00 0.21743980E+04</pdfrwt>
<totfact> 0.27462284E+00</totfact>
</mgrwt>
</event>
<event>
 4    1  0.1308745E-008  0.2874095E+04  0.7816531E-02  0.8280627E-01
         -2   -1    0    0    0  501 -0.00000000000E+00  0.00000000000E+00  0.62280853126E+03  0.62280853126E+03  0.00000000000E+00 0. -1.
          2   -1    0    0  501    0  0.00000000000E+00 -0.00000000000E+00 -0.33157952603E+04  0.33157952603E+04  0.00000000000E+00 0.  1.
    2000013    1    1    2    0    0 -0.80542614155E+03  0.65259577507E+03 -0.93994264711E+03  0.16913263124E+04  0.95000000000E+03 0.  0.
   -2000013    1    1    2    0    0  0.80542614155E+03 -0.65259577507E+03 -0.17530440819E+04  0.22472774791E+04  0.95000000000E+03 0.  0.
<mgrwt>
<rscale>  0 0.28740950E+04</rscale>
<asrwt>0</asrwt>
<pdfrwt beam="2">  1        2 0.51012233E+00 0.28740950E+04</pdfrwt>
<pdfrwt beam="1">  1       -2 0.95816700E-01 0.28740950E+04</pdfrwt>
<totfact> 0.85846850E-01</totfact>
</mgrwt>
</event>
<event>
 4    1  0.1308745E-008  0.2265107E+04  0.7816531E-02  0.8491808E-01
          2   -1    0    0  501    0  0.00000000000E+00  0.00000000000E+00  0.10068932394E+04  0.10068932394E+04  0.00000000000E+00 0.  1.
         -2   -1    0    0    0  501 -0.00000000000E+00 -0.00000000000E+00 -0.12738957552E+04  0.12738957552E+04  0.00000000000E+00 0. -1.
    2000013    1    1    2    0    0 -0.61393360509E+03  0.47226934581E+02 -0.16585107388E+03  0.11441815562E+04  0.95000000000E+03 0.  0.
   -2000013    1    1    2    0    0  0.61393360509E+03 -0.47226934581E+02 -0.10115144197E+03  0.11366074384E+04  0.95000000000E+03 0.  0.
<mgrwt>
<rscale>  0 0.22651066E+04</rscale>
<asrwt>0</asrwt>
<pdfrwt beam="1">  1        2 0.15490665E+00 0.22651066E+04</pdfrwt>
<pdfrwt beam="2">  1       -2 0.19598396E+00 0.22651066E+04</pdfrwt>
<totfact> 0.32040910E+00</totfact>
</mgrwt>
</event>
<event>
 4    1  0.1308745E-008  0.2583621E+04  0.7816531E-02  0.8373786E-01
         -2   -1    0    0    0  501 -0.00000000000E+00  0.00000000000E+00  0.77906700815E+03  0.77906700815E+03  0.00000000000E+00 0. -1.
          2   -1    0    0  501    0  0.00000000000E+00 -0.00000000000E+00 -0.21420171246E+04  0.21420171246E+04  0.00000000000E+00 0.  1.
    2000013    1    1    2    0    0  0.51195624981E+03  0.70957710174E+03 -0.65207887206E+03  0.14468260851E+04  0.95000000000E+03 0.  0.
   -2000013    1    1    2    0    0 -0.51195624981E+03 -0.70957710174E+03 -0.71087124438E+03  0.14742580477E+04  0.95000000000E+03 0.  0.
<mgrwt>
<rscale>  0 0.25836214E+04</rscale>
<asrwt>0</asrwt>
<pdfrwt beam="2">  1        2 0.32954109E+00 0.25836214E+04</pdfrwt>
<pdfrwt beam="1">  1       -2 0.11985646E+00 0.25836214E+04</pdfrwt>
<totfact> 0.26255617E+00</totfact>
</mgrwt>
</event>
<event>
 4    1  0.1308745E-008  0.2384021E+04  0.7816531E-02  0.8445510E-01
         -2   -1    0    0    0  501 -0.00000000000E+00  0.00000000000E+00  0.61911079893E+03  0.61911079893E+03  0.00000000000E+00 0. -1.
          2   -1    0    0  501    0  0.00000000000E+00 -0.00000000000E+00 -0.22950480181E+04  0.22950480181E+04  0.00000000000E+00 0.  1.
    2000013    1    1    2    0    0 -0.68738534779E+03  0.19668537800E+03 -0.73420910148E+03  0.13974071558E+04  0.95000000000E+03 0.  0.
   -2000013    1    1    2    0    0  0.68738534779E+03 -0.19668537800E+03 -0.94172811767E+03  0.15167516612E+04  0.95000000000E+03 0.  0.
<mgrwt>
<rscale>  0 0.23840210E+04</rscale>
<asrwt>0</asrwt>
<pdfrwt beam="2">  1        2 0.35308431E+00 0.23840210E+04</pdfrwt>
<pdfrwt beam="1">  1       -2 0.95247815E-01 0.23840210E+04</pdfrwt>
<totfact> 0.38054347E+00</totfact>
</mgrwt>
</event>
<event>
 4    1  0.1308745E-008  0.2702972E+04  0.7816531E-02  0.8334041E-01
         -2   -1    0    0    0  501 -0.00000000000E+00  0.00000000000E+00  0.62111030423E+03  0.62111030423E+03  0.00000000000E+00 0. -1.
          2   -1    0    0  501    0  0.00000000000E+00 -0.00000000000E+00 -0.29407249353E+04  0.29407249353E+04  0.00000000000E+00 0.  1.
    2000013    1    1    2    0    0 -0.74095995659E+03 -0.54187469518E+03 -0.78392636212E+03  0.15361283748E+04  0.95000000000E+03 0.  0.
   -2000013    1    1    2    0    0  0.74095995659E+03  0.54187469518E+03 -0.15356882690E+04  0.20257068648E+04  0.95000000000E+03 0.  0.
<mgrwt>
<rscale>  0 0.27029721E+04</rscale>
<asrwt>0</asrwt>
<pdfrwt beam="2">  1        2 0.45241921E+00 0.27029721E+04</pdfrwt>
<pdfrwt beam="1">  1       -2 0.95555433E-01 0.27029721E+04</pdfrwt>
<totfact> 0.15283366E+00</totfact>
</mgrwt>
</event>
<event>
 4    1  0.1308745E-008  0.2146801E+04  0.7816531E-02  0.8540903E-01
         -2   -1    0    0    0  501 -0.00000000000E+00  0.00000000000E+00  0.25705700357E+04  0.25705700357E+04  0.00000000000E+00 0.  1.
          2   -1    0    0  501    0  0.00000000000E+00 -0.00000000000E+00 -0.44822284537E+03  0.44822284537E+03  0.00000000000E+00 0. -1.
    2000013    1    1    2    0    0  0.22480172093E+03 -0.43967463983E+03  0.95372606153E+03  0.14338559911E+04  0.95000000000E+03 0.  0.
   -2000013    1    1    2    0    0 -0.22480172093E+03  0.43967463983E+03  0.11686211288E+04  0.15849368900E+04  0.95000000000E+03 0.  0.
<mgrwt>
<rscale>  0 0.21468006E+04</rscale>
<asrwt>0</asrwt>
<pdfrwt beam="2">  1        2 0.68957362E-01 0.21468006E+04</pdfrwt>
<pdfrwt beam="1">  1       -2 0.39547230E+00 0.21468006E+04</pdfrwt>
<totfact> 0.51060089E-01</totfact>
</mgrwt>
</event>
<event>
 4    1  0.1308745E-008  0.2273137E+04  0.7816531E-02  0.8488589E-01
          2   -1    0    0  501    0  0.00000000000E+00  0.00000000000E+00  0.18349818987E+04  0.18349818987E+04  0.00000000000E+00 0.  1.
         -2   -1    0    0    0  501 -0.00000000000E+00 -0.00000000000E+00 -0.70397880460E+03  0.70397880460E+03  0.00000000000E+00 0. -1.
    2000013    1    1    2    0    0 -0.44690635017E+03  0.42682124810E+03  0.66149807493E+03  0.13122428764E+04  0.95000000000E+03 0.  0.
   -2000013    1    1    2    0    0  0.44690635017E+03 -0.42682124810E+03  0.46950501914E+03  0.12267178268E+04  0.95000000000E+03 0.  0.
<mgrwt>
<rscale>  0 0.22731374E+04</rscale>
<asrwt>0</asrwt>
<pdfrwt beam="1">  1        2 0.28230491E+00 0.22731374E+04</pdfrwt>
<pdfrwt beam="2">  1       -2 0.10830443E+00 0.22731374E+04</pdfrwt>
<totfact> 0.51147005E+00</totfact>
</mgrwt>
</event>
<event>
 4    1  0.1308745E-008  0.2570012E+04  0.7816531E-02  0.8378459E-01
          2   -1    0    0  501    0  0.00000000000E+00  0.00000000000E+00  0.11905670172E+04  0.11905670172E+04  0.00000000000E+00 0.  1.
         -2   -1    0    0    0  501 -0.00000000000E+00 -0.00000000000E+00 -0.13869363016E+04  0.13869363016E+04  0.00000000000E+00 0. -1.
    2000013    1    1    2    0    0  0.86141601875E+03 -0.10670684958E+02 -0.16774178636E+02  0.12825493339E+04  0.95000000000E+03 0.  0.
   -2000013    1    1    2    0    0 -0.86141601875E+03  0.10670684958E+02 -0.17959510585E+03  0.12949539849E+04  0.95000000000E+03 0.  0.
<mgrwt>
<rscale>  0 0.25700122E+04</rscale>
<asrwt>0</asrwt>
<pdfrwt beam="1">  1        2 0.18316416E+00 0.25700122E+04</pdfrwt>
<pdfrwt beam="2">  1       -2 0.21337481E+00 0.25700122E+04</pdfrwt>
<totfact> 0.18534558E+00</totfact>
</mgrwt>
</event>
<event>
 4    1  0.1308745E-008  0.1938993E+04  0.7816531E-02  0.8635687E-01
         -1   -1    0    0    0  501 -0.00000000000E+00  0.00000000000E+00  0.52290453373E+03  0.52290453373E+03  0.00000000000E+00 0. -1.
          1   -1    0    0  501    0  0.00000000000E+00 -0.00000000000E+00 -0.17975047832E+04  0.17975047832E+04  0.00000000000E+00 0.  1.
    2000013    1    1    2    0    0  0.16753117770E+03  0.85532936749E+02 -0.58323827397E+03  0.11305084975E+04  0.95000000000E+03 0.  0.
   -2000013    1    1    2    0    0 -0.16753117770E+03 -0.85532936749E+02 -0.69136197546E+03  0.11899008193E+04  0.95000000000E+03 0.  0.
<mgrwt>
<rscale>  0 0.19389929E+04</rscale>
<asrwt>0</asrwt>
<pdfrwt beam="2">  1        1 0.27653919E+00 0.19389929E+04</pdfrwt>
<pdfrwt beam="1">  1       -1 0.80446852E-01 0.19389929E+04</pdfrwt>
<totfact> 0.58784810E+00</totfact>
</mgrwt>
</event>
<event>
 4    1  0.1308745E-008  0.2261585E+04  0.7816531E-02  0.8493223E-01
          2   -1    0    0  501    0  0.00000000000E+00  0.00000000000E+00  0.24766836723E+04  0.24766836723E+04  0.00000000000E+00 0.  1.
         -2   -1    0    0    0  501 -0.00000000000E+00 -0.00000000000E+00 -0.51629190969E+03  0.51629190969E+03  0.00000000000E+00 0. -1.
    2000013    1    1    2    0    0  0.20962908825E+03 -0.19549477414E+03  0.26259086626E+03  0.10264582429E+04  0.95000000000E+03 0.  0.
   -2000013    1    1    2    0    0 -0.20962908825E+03  0.19549477414E+03  0.16978008964E+04  0.19665173391E+04  0.95000000000E+03 0.  0.
<mgrwt>
<rscale>  0 0.22615851E+04</rscale>
<asrwt>0</asrwt>
<pdfrwt beam="1">  1        2 0.38102825E+00 0.22615851E+04</pdfrwt>
<pdfrwt beam="2">  1       -2 0.79429526E-01 0.22615851E+04</pdfrwt>
<totfact> 0.45877261E+00</totfact>
</mgrwt>
</event>
<event>
 4    1  0.1308745E-008  0.2145428E+04  0.7816531E-02  0.8541492E-01
          2   -1    0    0  501    0  0.00000000000E+00  0.00000000000E+00  0.23500948387E+04  0.23500948387E+04  0.00000000000E+00 0.  1.
         -2   -1    0    0    0  501 -0.00000000000E+00 -0.00000000000E+00 -0.48964639283E+03  0.48964639283E+03  0.00000000000E+00 0. -1.
    2000013    1    1    2    0    0  0.20053026667E+03  0.41075721528E+03  0.11925610655E+04  0.15917398571E+04  0.95000000000E+03 0.  0.
   -2000013    1    1    2    0    0 -0.20053026667E+03 -0.41075721528E+03  0.66788738045E+03  0.12480013745E+04  0.95000000000E+03 0.  0.
<mgrwt>
<rscale>  0 0.21454281E+04</rscale>
<asrwt>0</asrwt>
<pdfrwt beam="1">  1        2 0.36155305E+00 0.21454281E+04</pdfrwt>
<pdfrwt beam="2">  1       -2 0.75330216E-01 0.21454281E+04</pdfrwt>
<totfact> 0.61640360E+00</totfact>
</mgrwt>
</event>
<event>
 4    1  0.1308745E-008  0.2404532E+04  0.7816531E-02  0.8437809E-01
         -2   -1    0    0    0  501 -0.00000000000E+00  0.00000000000E+00  0.60216757854E+03  0.60216757854E+03  0.00000000000E+00 0.  1.
          2   -1    0    0  501    0  0.00000000000E+00 -0.00000000000E+00 -0.24004017743E+04  0.24004017743E+04  0.00000000000E+00 0. -1.
    2000013    1    1    2    0    0 -0.71487537671E+03  0.17021682177E+03 -0.96663483970E+03  0.15417209488E+04  0.95000000000E+03 0.  0.
   -2000013    1    1    2    0    0  0.71487537671E+03 -0.17021682177E+03 -0.83159935610E+03  0.14608484041E+04  0.95000000000E+03 0.  0.
<mgrwt>
<rscale>  0 0.24045325E+04</rscale>
<asrwt>0</asrwt>
<pdfrwt beam="2">  1        2 0.36929258E+00 0.24045325E+04</pdfrwt>
<pdfrwt beam="1">  1       -2 0.92641165E-01 0.24045325E+04</pdfrwt>
<totfact> 0.35293538E+00</totfact>
</mgrwt>
</event>
<event>
 4    1  0.1308745E-008  0.3215993E+04  0.7816531E-02  0.8184606E-01
          2   -1    0    0  501    0  0.00000000000E+00  0.00000000000E+00  0.11501310361E+04  0.11501310361E+04  0.00000000000E+00 0.  1.
         -2   -1    0    0    0  501 -0.00000000000E+00 -0.00000000000E+00 -0.22481379604E+04  0.22481379604E+04  0.00000000000E+00 0. -1.
    2000013    1    1    2    0    0  0.87494188529E+03 -0.94115584473E+03 -0.73760082404E+03  0.17600717606E+04  0.95000000000E+03 0.  0.
   -2000013    1    1    2    0    0 -0.87494188529E+03  0.94115584473E+03 -0.36040610023E+03  0.16381972359E+04  0.95000000000E+03 0.  0.
<mgrwt>
<rscale>  0 0.32159933E+04</rscale>
<asrwt>0</asrwt>
<pdfrwt beam="1">  1        2 0.17694323E+00 0.32159933E+04</pdfrwt>
<pdfrwt beam="2">  1       -2 0.34586738E+00 0.32159933E+04</pdfrwt>
<totfact> 0.28187978E-01</totfact>
</mgrwt>
</event>
<event>
 4    1  0.1308745E-008  0.3196300E+04  0.7816531E-02  0.8189795E-01
         -2   -1    0    0    0  501 -0.00000000000E+00  0.00000000000E+00  0.11101065883E+04  0.11101065883E+04  0.00000000000E+00 0. -1.
          2   -1    0    0  501    0  0.00000000000E+00 -0.00000000000E+00 -0.23007550303E+04  0.23007550303E+04  0.00000000000E+00 0.  1.
    2000013    1    1    2    0    0  0.86833158186E+03 -0.55746089085E+03  0.22214116852E+03  0.14200736177E+04  0.95000000000E+03 0.  0.
   -2000013    1    1    2    0    0 -0.86833158186E+03  0.55746089085E+03 -0.14127896106E+04  0.19907880009E+04  0.95000000000E+03 0.  0.
<mgrwt>
<rscale>  0 0.31962999E+04</rscale>
<asrwt>0</asrwt>
<pdfrwt beam="2">  1        2 0.35396231E+00 0.31962999E+04</pdfrwt>
<pdfrwt beam="1">  1       -2 0.17078563E+00 0.31962999E+04</pdfrwt>
<totfact> 0.80266300E-01</totfact>
</mgrwt>
</event>
<event>
 4    1  0.1308745E-008  0.2529593E+04  0.7816531E-02  0.8392518E-01
         -2   -1    0    0    0  501 -0.00000000000E+00  0.00000000000E+00  0.13227410177E+04  0.13227410177E+04  0.00000000000E+00 0. -1.
          2   -1    0    0  501    0  0.00000000000E+00 -0.00000000000E+00 -0.12093901886E+04  0.12093901886E+04  0.00000000000E+00 0.  1.
    2000013    1    1    2    0    0  0.48064915196E+03  0.56159777026E+03  0.44538755762E+03  0.12834662985E+04  0.95000000000E+03 0.  0.
   -2000013    1    1    2    0    0 -0.48064915196E+03 -0.56159777026E+03 -0.33203672852E+03  0.12486649078E+04  0.95000000000E+03 0.  0.
<mgrwt>
<rscale>  0 0.25295929E+04</rscale>
<asrwt>0</asrwt>
<pdfrwt beam="2">  1        2 0.18606003E+00 0.25295929E+04</pdfrwt>
<pdfrwt beam="1">  1       -2 0.20349862E+00 0.25295929E+04</pdfrwt>
<totfact> 0.20988048E+00</totfact>
</mgrwt>
</event>
<event>
 4    1  0.1308745E-008  0.2238147E+04  0.7816531E-02  0.8502716E-01
          2   -1    0    0  501    0  0.00000000000E+00  0.00000000000E+00  0.21320021765E+04  0.21320021765E+04  0.00000000000E+00 0.  1.
         -2   -1    0    0    0  501 -0.00000000000E+00 -0.00000000000E+00 -0.58739400073E+03  0.58739400073E+03  0.00000000000E+00 0. -1.
    2000013    1    1    2    0    0  0.23495967372E+03 -0.52618145696E+03  0.93419087288E+03  0.14516492555E+04  0.95000000000E+03 0.  0.
   -2000013    1    1    2    0    0 -0.23495967372E+03  0.52618145696E+03  0.61041730284E+03  0.12677469217E+04  0.95000000000E+03 0.  0.
<mgrwt>
<rscale>  0 0.22381468E+04</rscale>
<asrwt>0</asrwt>
<pdfrwt beam="1">  1        2 0.32800033E+00 0.22381468E+04</pdfrwt>
<pdfrwt beam="2">  1       -2 0.90368308E-01 0.22381468E+04</pdfrwt>
<totfact> 0.53779167E+00</totfact>
</mgrwt>
</event>
<event>
 4    1  0.1308745E-008  0.2403645E+04  0.7816531E-02  0.8438140E-01
          2   -1    0    0  501    0  0.00000000000E+00  0.00000000000E+00  0.16303152637E+04  0.16303152637E+04  0.00000000000E+00 0.  1.
         -2   -1    0    0    0  501 -0.00000000000E+00 -0.00000000000E+00 -0.88594999274E+03  0.88594999274E+03  0.00000000000E+00 0. -1.
    2000013    1    1    2    0    0  0.70458430120E+02  0.70430866229E+03  0.16056608681E+03  0.11955319111E+04  0.95000000000E+03 0.  0.
   -2000013    1    1    2    0    0 -0.70458430120E+02 -0.70430866229E+03  0.58379918412E+03  0.13207333454E+04  0.95000000000E+03 0.  0.
<mgrwt>
<rscale>  0 0.24036454E+04</rscale>
<asrwt>0</asrwt>
<pdfrwt beam="1">  1        2 0.25081773E+00 0.24036454E+04</pdfrwt>
<pdfrwt beam="2">  1       -2 0.13630000E+00 0.24036454E+04</pdfrwt>
<totfact> 0.37119979E+00</totfact>
</mgrwt>
</event>
<event>
 4    1  0.1308745E-008  0.2610115E+04  0.7816531E-02  0.8364773E-01
          2   -1    0    0  501    0  0.00000000000E+00  0.00000000000E+00  0.33383623240E+04  0.33383623240E+04  0.00000000000E+00 0.  1.
         -2   -1    0    0    0  501 -0.00000000000E+00 -0.00000000000E+00 -0.51018289566E+03  0.51018289566E+03  0.00000000000E+00 0. -1.
    2000013    1    1    2    0    0  0.12103637748E+03 -0.88605601775E+03  0.13691174092E+04  0.18912238238E+04  0.95000000000E+03 0.  0.
   -2000013    1    1    2    0    0 -0.12103637748E+03  0.88605601775E+03  0.14590620191E+04  0.19573213959E+04  0.95000000000E+03 0.  0.
<mgrwt>
<rscale>  0 0.26101152E+04</rscale>
<asrwt>0</asrwt>
<pdfrwt beam="1">  1        2 0.51359419E+00 0.26101152E+04</pdfrwt>
<pdfrwt beam="2">  1       -2 0.78489678E-01 0.26101152E+04</pdfrwt>
<totfact> 0.13390706E+00</totfact>
</mgrwt>
</event>
<event>
 4    1  0.1308745E-008  0.2730596E+04  0.7816531E-02  0.8325145E-01
         -2   -1    0    0    0  501 -0.00000000000E+00  0.00000000000E+00  0.42140322682E+03  0.42140322682E+03  0.00000000000E+00 0. -1.
          2   -1    0    0  501    0  0.00000000000E+00 -0.00000000000E+00 -0.44234079696E+04  0.44234079696E+04  0.00000000000E+00 0.  1.
    2000013    1    1    2    0    0 -0.69643455418E+03  0.57472787536E+03 -0.13225789942E+04  0.18620011855E+04  0.95000000000E+03 0.  0.
   -2000013    1    1    2    0    0  0.69643455418E+03 -0.57472787536E+03 -0.26794257486E+04  0.29828100110E+04  0.95000000000E+03 0.  0.
<mgrwt>
<rscale>  0 0.27305958E+04</rscale>
<asrwt>0</asrwt>
<pdfrwt beam="2">  1        2 0.68052431E+00 0.27305958E+04</pdfrwt>
<pdfrwt beam="1">  1       -2 0.64831265E-01 0.27305958E+04</pdfrwt>
<totfact> 0.28085307E-01</totfact>
</mgrwt>
</event>
<event>
 4    1  0.1308745E-008  0.3827087E+04  0.7816531E-02  0.8040367E-01
         -2   -1    0    0    0  501 -0.00000000000E+00  0.00000000000E+00  0.20244798470E+04  0.20244798470E+04  0.00000000000E+00 0. -1.
          2   -1    0    0  501    0  0.00000000000E+00 -0.00000000000E+00 -0.18086859937E+04  0.18086859937E+04  0.00000000000E+00 0.  1.
    2000013    1    1    2    0    0  0.97858168431E+03 -0.58073866676E+03  0.13198887951E+04  0.19848138309E+04  0.95000000000E+03 0.  0.
   -2000013    1    1    2    0    0 -0.97858168431E+03  0.58073866676E+03 -0.11040949417E+04  0.18483520098E+04  0.95000000000E+03 0.  0.
<mgrwt>
<rscale>  0 0.38270868E+04</rscale>
<asrwt>0</asrwt>
<pdfrwt beam="2">  1        2 0.27825938E+00 0.38270868E+04</pdfrwt>
<pdfrwt beam="1">  1       -2 0.31145844E+00 0.38270868E+04</pdfrwt>
<totfact> 0.18453106E-01</totfact>
</mgrwt>
</event>
<event>
 4    1  0.1308745E-008  0.2327259E+04  0.7816531E-02  0.8467250E-01
          2   -1    0    0  501    0  0.00000000000E+00  0.00000000000E+00  0.13155244718E+04  0.13155244718E+04  0.00000000000E+00 0.  1.
         -2   -1    0    0    0  501 -0.00000000000E+00 -0.00000000000E+00 -0.10292729681E+04  0.10292729681E+04  0.00000000000E+00 0. -1.
    2000013    1    1    2    0    0 -0.36978221564E+03  0.52127754029E+03  0.35220978996E+03  0.11979235773E+04  0.95000000000E+03 0.  0.
   -2000013    1    1    2    0    0  0.36978221564E+03 -0.52127754029E+03 -0.65958286266E+02  0.11468738625E+04  0.95000000000E+03 0.  0.
<mgrwt>
<rscale>  0 0.23272591E+04</rscale>
<asrwt>0</asrwt>
<pdfrwt beam="1">  1        2 0.20238838E+00 0.23272591E+04</pdfrwt>
<pdfrwt beam="2">  1       -2 0.15834969E+00 0.23272591E+04</pdfrwt>
<totfact> 0.37951793E+00</totfact>
</mgrwt>
</event>
<event>
 4    1  0.1308745E-008  0.2218043E+04  0.7816531E-02  0.8510956E-01
         -2   -1    0    0    0  501 -0.00000000000E+00  0.00000000000E+00  0.63952812404E+03  0.63952812404E+03  0.00000000000E+00 0. -1.
          2   -1    0    0  501    0  0.00000000000E+00 -0.00000000000E+00 -0.19231816251E+04  0.19231816251E+04  0.00000000000E+00 0.  1.
    2000013    1    1    2    0    0  0.55394670063E+03  0.13133683394E+03 -0.57522937789E+03  0.12479964536E+04  0.95000000000E+03 0.  0.
   -2000013    1    1    2    0    0 -0.55394670063E+03 -0.13133683394E+03 -0.70842412315E+03  0.13147132955E+04  0.95000000000E+03 0.  0.
<mgrwt>
<rscale>  0 0.22180430E+04</rscale>
<asrwt>0</asrwt>
<pdfrwt beam="2">  1        2 0.29587410E+00 0.22180430E+04</pdfrwt>
<pdfrwt beam="1">  1       -2 0.98388942E-01 0.22180430E+04</pdfrwt>
<totfact> 0.57746906E+00</totfact>
</mgrwt>
</event>
<event>
 4    1  0.1308745E-008  0.2388279E+04  0.7816531E-02  0.8443905E-01
          1   -1    0    0  501    0  0.00000000000E+00  0.00000000000E+00  0.14691250229E+04  0.14691250229E+04  0.00000000000E+00 0.  1.
         -1   -1    0    0    0  501 -0.00000000000E+00 -0.00000000000E+00 -0.97062465691E+03  0.97062465691E+03  0.00000000000E+00 0. -1.
    2000013    1    1    2    0    0  0.48351118991E+03  0.30627486429E+03 -0.20287330207E+03  0.11274949844E+04  0.95000000000E+03 0.  0.
   -2000013    1    1    2    0    0 -0.48351118991E+03 -0.30627486429E+03  0.70137366808E+03  0.13122546954E+04  0.95000000000E+03 0.  0.
<mgrwt>
<rscale>  0 0.23882789E+04</rscale>
<asrwt>0</asrwt>
<pdfrwt beam="1">  1        1 0.22601923E+00 0.23882789E+04</pdfrwt>
<pdfrwt beam="2">  1       -1 0.14932687E+00 0.23882789E+04</pdfrwt>
<totfact> 0.21774524E+00</totfact>
</mgrwt>
</event>
<event>
 4    1  0.1308745E-008  0.2664669E+04  0.7816531E-02  0.8346560E-01
         -2   -1    0    0    0  501 -0.00000000000E+00  0.00000000000E+00  0.12396170110E+04  0.12396170110E+04  0.00000000000E+00 0. -1.
          2   -1    0    0  501    0  0.00000000000E+00 -0.00000000000E+00 -0.14319871364E+04  0.14319871364E+04  0.00000000000E+00 0.  1.
    2000013    1    1    2    0    0  0.84693629254E+03  0.21408198018E+03  0.23555887905E+03  0.13119146936E+04  0.95000000000E+03 0.  0.
   -2000013    1    1    2    0    0 -0.84693629254E+03 -0.21408198018E+03 -0.42792900440E+03  0.13596894538E+04  0.95000000000E+03 0.  0.
<mgrwt>
<rscale>  0 0.26646693E+04</rscale>
<asrwt>0</asrwt>
<pdfrwt beam="2">  1        2 0.22030571E+00 0.26646693E+04</pdfrwt>
<pdfrwt beam="1">  1       -2 0.19071031E+00 0.26646693E+04</pdfrwt>
<totfact> 0.18716523E+00</totfact>
</mgrwt>
</event>
<event>
 4    1  0.1308745E-008  0.1993582E+04  0.7816531E-02  0.8609627E-01
         -2   -1    0    0    0  501 -0.00000000000E+00  0.00000000000E+00  0.80269174795E+03  0.80269174795E+03  0.00000000000E+00 0. -1.
          2   -1    0    0  501    0  0.00000000000E+00 -0.00000000000E+00 -0.12378258966E+04  0.12378258966E+04  0.00000000000E+00 0.  1.
    2000013    1    1    2    0    0  0.20583445560E+02  0.30110827357E+03 -0.21926811486E+03  0.10206215640E+04  0.95000000000E+03 0.  0.
   -2000013    1    1    2    0    0 -0.20583445560E+02 -0.30110827357E+03 -0.21586603380E+03  0.10198960806E+04  0.95000000000E+03 0.  0.
<mgrwt>
<rscale>  0 0.19935823E+04</rscale>
<asrwt>0</asrwt>
<pdfrwt beam="2">  1        2 0.19043475E+00 0.19935823E+04</pdfrwt>
<pdfrwt beam="1">  1       -2 0.12349104E+00 0.19935823E+04</pdfrwt>
<totfact> 0.82645224E+00</totfact>
</mgrwt>
</event>
<event>
 4    1  0.1308745E-008  0.2746670E+04  0.7816531E-02  0.8320019E-01
          2   -1    0    0  501    0  0.00000000000E+00  0.00000000000E+00  0.85400778341E+03  0.85400778341E+03  0.00000000000E+00 0.  1.
         -2   -1    0    0    0  501 -0.00000000000E+00 -0.00000000000E+00 -0.22084684812E+04  0.22084684812E+04  0.00000000000E+00 0. -1.
    2000013    1    1    2    0    0 -0.21693753622E+03 -0.96719644319E+03 -0.71281225974E+03  0.15469751685E+04  0.95000000000E+03 0.  0.
   -2000013    1    1    2    0    0  0.21693753622E+03  0.96719644319E+03 -0.64164843809E+03  0.15155010962E+04  0.95000000000E+03 0.  0.
<mgrwt>
<rscale>  0 0.27466702E+04</rscale>
<asrwt>0</asrwt>
<pdfrwt beam="1">  1        2 0.13138581E+00 0.27466702E+04</pdfrwt>
<pdfrwt beam="2">  1       -2 0.33976438E+00 0.27466702E+04</pdfrwt>
<totfact> 0.49726351E-01</totfact>
</mgrwt>
</event>
<event>
 4    1  0.1308745E-008  0.2175843E+04  0.7816531E-02  0.8528551E-01
         -2   -1    0    0    0  501 -0.00000000000E+00  0.00000000000E+00  0.15700184363E+04  0.15700184363E+04  0.00000000000E+00 0. -1.
          2   -1    0    0  501    0  0.00000000000E+00 -0.00000000000E+00 -0.75385917862E+03  0.75385917862E+03  0.00000000000E+00 0.  1.
    2000013    1    1    2    0    0 -0.48560997262E+03  0.11953230784E+03  0.22013025701E+03  0.10959299011E+04  0.95000000000E+03 0.  0.
   -2000013    1    1    2    0    0  0.48560997262E+03 -0.11953230784E+03  0.59602900065E+03  0.12279477138E+04  0.95000000000E+03 0.  0.
<mgrwt>
<rscale>  0 0.21758426E+04</rscale>
<asrwt>0</asrwt>
<pdfrwt beam="2">  1        2 0.11597834E+00 0.21758426E+04</pdfrwt>
<pdfrwt beam="1">  1       -2 0.24154130E+00 0.21758426E+04</pdfrwt>
<totfact> 0.24715377E+00</totfact>
</mgrwt>
</event>
<event>
 4    1  0.1308745E-008  0.2772569E+04  0.7816531E-02  0.8311835E-01
         -1   -1    0    0    0  501 -0.00000000000E+00  0.00000000000E+00  0.13436473634E+04  0.13436473634E+04  0.00000000000E+00 0. -1.
          1   -1    0    0  501    0  0.00000000000E+00 -0.00000000000E+00 -0.14302746930E+04  0.14302746930E+04  0.00000000000E+00 0.  1.
    2000013    1    1    2    0    0 -0.91272491412E+03 -0.37469490166E+03  0.17085102384E+03  0.13802728392E+04  0.95000000000E+03 0.  0.
   -2000013    1    1    2    0    0  0.91272491412E+03  0.37469490166E+03 -0.25747835348E+03  0.13936492172E+04  0.95000000000E+03 0.  0.
<mgrwt>
<rscale>  0 0.27725691E+04</rscale>
<asrwt>0</asrwt>
<pdfrwt beam="2">  1        1 0.22004226E+00 0.27725691E+04</pdfrwt>
<pdfrwt beam="1">  1       -1 0.20671498E+00 0.27725691E+04</pdfrwt>
<totfact> 0.85932799E-01</totfact>
</mgrwt>
</event>
<event>
 4    1  0.1308745E-008  0.2343165E+04  0.7816531E-02  0.8461094E-01
         -2   -1    0    0    0  501 -0.00000000000E+00  0.00000000000E+00  0.20296252240E+04  0.20296252240E+04  0.00000000000E+00 0. -1.
          2   -1    0    0  501    0  0.00000000000E+00 -0.00000000000E+00 -0.67628534848E+03  0.67628534848E+03  0.00000000000E+00 0.  1.
    2000013    1    1    2    0    0 -0.50902927163E+03 -0.45905839075E+03  0.69530487771E+03  0.13622754048E+04  0.95000000000E+03 0.  0.
   -2000013    1    1    2    0    0  0.50902927163E+03  0.45905839075E+03  0.65803499776E+03  0.13436351677E+04  0.95000000000E+03 0.  0.
<mgrwt>
<rscale>  0 0.23431652E+04</rscale>
<asrwt>0</asrwt>
<pdfrwt beam="2">  1        2 0.10404390E+00 0.23431652E+04</pdfrwt>
<pdfrwt beam="1">  1       -2 0.31225003E+00 0.23431652E+04</pdfrwt>
<totfact> 0.10339048E+00</totfact>
</mgrwt>
</event>
<event>
 4    1  0.1308745E-008  0.2976655E+04  0.7816531E-02  0.8250429E-01
         -2   -1    0    0    0  501 -0.00000000000E+00  0.00000000000E+00  0.63203341071E+03  0.63203341071E+03  0.00000000000E+00 0.  1.
          2   -1    0    0  501    0  0.00000000000E+00 -0.00000000000E+00 -0.35047484421E+04  0.35047484421E+04  0.00000000000E+00 0. -1.
    2000013    1    1    2    0    0 -0.23073479194E+03  0.11072956364E+04 -0.11828450308E+04  0.18923436627E+04  0.95000000000E+03 0.  0.
   -2000013    1    1    2    0    0  0.23073479194E+03 -0.11072956364E+04 -0.16898700006E+04  0.22444381902E+04  0.95000000000E+03 0.  0.
<mgrwt>
<rscale>  0 0.29766546E+04</rscale>
<asrwt>0</asrwt>
<pdfrwt beam="2">  1        2 0.53919206E+00 0.29766546E+04</pdfrwt>
<pdfrwt beam="1">  1       -2 0.97235910E-01 0.29766546E+04</pdfrwt>
<totfact> 0.61019449E-01</totfact>
</mgrwt>
</event>
<event>
 4    1  0.1308745E-008  0.2927479E+04  0.7816531E-02  0.8264748E-01
          2   -1    0    0  501    0  0.00000000000E+00  0.00000000000E+00  0.31997264725E+04  0.31997264725E+04  0.00000000000E+00 0.  1.
         -2   -1    0    0    0  501 -0.00000000000E+00 -0.00000000000E+00 -0.66959901524E+03  0.66959901524E+03  0.00000000000E+00 0. -1.
    2000013    1    1    2    0    0  0.11412485599E+03  0.75129562832E+03  0.23409227986E+04  0.26381601834E+04  0.95000000000E+03 0.  0.
   -2000013    1    1    2    0    0 -0.11412485599E+03 -0.75129562832E+03  0.18920465862E+03  0.12311653044E+04  0.95000000000E+03 0.  0.
<mgrwt>
<rscale>  0 0.29274793E+04</rscale>
<asrwt>0</asrwt>
<pdfrwt beam="1">  1        2 0.49226560E+00 0.29274793E+04</pdfrwt>
<pdfrwt beam="2">  1       -2 0.10301523E+00 0.29274793E+04</pdfrwt>
<totfact> 0.85911547E-01</totfact>
</mgrwt>
</event>
<event>
 4    1  0.1308745E-008  0.3478013E+04  0.7816531E-02  0.8119021E-01
          2   -1    0    0  501    0  0.00000000000E+00  0.00000000000E+00  0.32336939785E+04  0.32336939785E+04  0.00000000000E+00 0.  1.
         -2   -1    0    0    0  501 -0.00000000000E+00 -0.00000000000E+00 -0.93519763107E+03  0.93519763107E+03  0.00000000000E+00 0. -1.
    2000013    1    1    2    0    0 -0.12858914508E+04  0.56278021972E+03  0.68284777568E+03  0.18272984113E+04  0.95000000000E+03 0.  0.
   -2000013    1    1    2    0    0  0.12858914508E+04 -0.56278021972E+03  0.16156485718E+04  0.23415931983E+04  0.95000000000E+03 0.  0.
<mgrwt>
<rscale>  0 0.34780126E+04</rscale>
<asrwt>0</asrwt>
<pdfrwt beam="1">  1        2 0.49749138E+00 0.34780126E+04</pdfrwt>
<pdfrwt beam="2">  1       -2 0.14387656E+00 0.34780126E+04</pdfrwt>
<totfact> 0.33892764E-01</totfact>
</mgrwt>
</event>
<event>
 4    1  0.1308745E-008  0.2056632E+04  0.7816531E-02  0.8580592E-01
          2   -1    0    0  501    0  0.00000000000E+00  0.00000000000E+00  0.80344715787E+03  0.80344715787E+03  0.00000000000E+00 0.  1.
         -2   -1    0    0    0  501 -0.00000000000E+00 -0.00000000000E+00 -0.13161210656E+04  0.13161210656E+04  0.00000000000E+00 0. -1.
    2000013    1    1    2    0    0 -0.32501951796E+03 -0.22012125112E+03 -0.22641971689E+03  0.10525478329E+04  0.95000000000E+03 0.  0.
   -2000013    1    1    2    0    0  0.32501951796E+03  0.22012125112E+03 -0.28625419087E+03  0.10670203906E+04  0.95000000000E+03 0.  0.
<mgrwt>
<rscale>  0 0.20566319E+04</rscale>
<asrwt>0</asrwt>
<pdfrwt beam="1">  1        2 0.12360726E+00 0.20566319E+04</pdfrwt>
<pdfrwt beam="2">  1       -2 0.20248016E+00 0.20566319E+04</pdfrwt>
<totfact> 0.40558588E+00</totfact>
</mgrwt>
</event>
<event>
 4    1  0.1308745E-008  0.3297086E+04  0.7816531E-02  0.8163637E-01
         -2   -1    0    0    0  501 -0.00000000000E+00  0.00000000000E+00  0.13637772654E+04  0.13637772654E+04  0.00000000000E+00 0. -1.
          2   -1    0    0  501    0  0.00000000000E+00 -0.00000000000E+00 -0.19927691773E+04  0.19927691773E+04  0.00000000000E+00 0.  1.
    2000013    1    1    2    0    0 -0.11238882438E+04  0.73378314969E+03 -0.43335252169E+03  0.17005460603E+04  0.95000000000E+03 0.  0.
   -2000013    1    1    2    0    0  0.11238882438E+04 -0.73378314969E+03 -0.19563939028E+03  0.16560003823E+04  0.95000000000E+03 0.  0.
<mgrwt>
<rscale>  0 0.32970856E+04</rscale>
<asrwt>0</asrwt>
<pdfrwt beam="2">  1        2 0.30657987E+00 0.32970856E+04</pdfrwt>
<pdfrwt beam="1">  1       -2 0.20981189E+00 0.32970856E+04</pdfrwt>
<totfact> 0.64693749E-01</totfact>
</mgrwt>
</event>
<event>
 4    1  0.1308745E-008  0.2120919E+04  0.7816531E-02  0.8552084E-01
          2   -1    0    0  501    0  0.00000000000E+00  0.00000000000E+00  0.14088895861E+04  0.14088895861E+04  0.00000000000E+00 0.  1.
         -2   -1    0    0    0  501 -0.00000000000E+00 -0.00000000000E+00 -0.79819895563E+03  0.79819895563E+03  0.00000000000E+00 0. -1.
    2000013    1    1    2    0    0  0.16592377107E+03 -0.42781916678E+03  0.19368118197E+03  0.10726473500E+04  0.95000000000E+03 0.  0.
   -2000013    1    1    2    0    0 -0.16592377107E+03  0.42781916678E+03  0.41700944846E+03  0.11344411917E+04  0.95000000000E+03 0.  0.
<mgrwt>
<rscale>  0 0.21209189E+04</rscale>
<asrwt>0</asrwt>
<pdfrwt beam="1">  1        2 0.21675224E+00 0.21209189E+04</pdfrwt>
<pdfrwt beam="2">  1       -2 0.12279984E+00 0.21209189E+04</pdfrwt>
<totfact> 0.65971768E+00</totfact>
</mgrwt>
</event>
<event>
 4    1  0.1308745E-008  0.2662474E+04  0.7816531E-02  0.8347285E-01
          2   -1    0    0  501    0  0.00000000000E+00  0.00000000000E+00  0.11664490206E+04  0.11664490206E+04  0.00000000000E+00 0.  1.
         -2   -1    0    0    0  501 -0.00000000000E+00 -0.00000000000E+00 -0.15193048031E+04  0.15193048031E+04  0.00000000000E+00 0. -1.
    2000013    1    1    2    0    0  0.43236168473E+03  0.68805312216E+03  0.28510725148E+03  0.12822401765E+04  0.95000000000E+03 0.  0.
   -2000013    1    1    2    0    0 -0.43236168473E+03 -0.68805312216E+03 -0.63796303389E+03  0.14035136472E+04  0.95000000000E+03 0.  0.
<mgrwt>
<rscale>  0 0.26624737E+04</rscale>
<asrwt>0</asrwt>
<pdfrwt beam="1">  1        2 0.17945370E+00 0.26624737E+04</pdfrwt>
<pdfrwt beam="2">  1       -2 0.23373920E+00 0.26624737E+04</pdfrwt>
<totfact> 0.14146115E+00</totfact>
</mgrwt>
</event>
<event>
 4    1  0.1308745E-008  0.4859262E+04  0.7816531E-02  0.7850592E-01
         -2   -1    0    0    0  501 -0.00000000000E+00  0.00000000000E+00  0.17551267092E+04  0.17551267092E+04  0.00000000000E+00 0.  1.
          2   -1    0    0  501    0  0.00000000000E+00 -0.00000000000E+00 -0.33633503553E+04  0.33633503553E+04  0.00000000000E+00 0. -1.
    2000013    1    1    2    0    0 -0.18816398301E+04 -0.11724898864E+04 -0.49646115467E+03  0.24625748033E+04  0.95000000000E+03 0.  0.
   -2000013    1    1    2    0    0  0.18816398301E+04  0.11724898864E+04 -0.11117624914E+04  0.26559022612E+04  0.95000000000E+03 0.  0.
<mgrwt>
<rscale>  0 0.48592617E+04</rscale>
<asrwt>0</asrwt>
<pdfrwt beam="2">  1        2 0.51743851E+00 0.48592617E+04</pdfrwt>
<pdfrwt beam="1">  1       -2 0.27001950E+00 0.48592617E+04</pdfrwt>
<totfact> 0.35966736E-02</totfact>
</mgrwt>
</event>
<event>
 4    1  0.1308745E-008  0.2624349E+04  0.7816531E-02  0.8359977E-01
          2   -1    0    0  501    0  0.00000000000E+00  0.00000000000E+00  0.55365730864E+04  0.55365730864E+04  0.00000000000E+00 0.  1.
         -2   -1    0    0    0  501 -0.00000000000E+00 -0.00000000000E+00 -0.31098690219E+03  0.31098690219E+03  0.00000000000E+00 0. -1.
    2000013    1    1    2    0    0  0.32530610646E+03 -0.40849040183E+03  0.42601708441E+04  0.43959349508E+04  0.95000000000E+03 0.  0.
   -2000013    1    1    2    0    0 -0.32530610646E+03  0.40849040183E+03  0.96541534014E+03  0.14516250378E+04  0.95000000000E+03 0.  0.
<mgrwt>
<rscale>  0 0.26243488E+04</rscale>
<asrwt>0</asrwt>
<pdfrwt beam="1">  1        2 0.85178040E+00 0.26243488E+04</pdfrwt>
<pdfrwt beam="2">  1       -2 0.47844143E-01 0.26243488E+04</pdfrwt>
<totfact> 0.18901808E-02</totfact>
</mgrwt>
</event>
<event>
 4    1  0.1308745E-008  0.2653123E+04  0.7816531E-02  0.8350377E-01
         -2   -1    0    0    0  501 -0.00000000000E+00  0.00000000000E+00  0.65306908303E+03  0.65306908303E+03  0.00000000000E+00 0. -1.
          2   -1    0    0  501    0  0.00000000000E+00 -0.00000000000E+00 -0.26946089669E+04  0.26946089669E+04  0.00000000000E+00 0.  1.
    2000013    1    1    2    0    0  0.43986681859E+03  0.62966560184E+03 -0.16731326971E+04  0.20716743495E+04  0.95000000000E+03 0.  0.
   -2000013    1    1    2    0    0 -0.43986681859E+03 -0.62966560184E+03 -0.36840718678E+03  0.12760037004E+04  0.95000000000E+03 0.  0.
<mgrwt>
<rscale>  0 0.26531233E+04</rscale>
<asrwt>0</asrwt>
<pdfrwt beam="2">  1        2 0.41455521E+00 0.26531233E+04</pdfrwt>
<pdfrwt beam="1">  1       -2 0.10047217E+00 0.26531233E+04</pdfrwt>
<totfact> 0.19239280E+00</totfact>
</mgrwt>
</event>
<event>
 4    1  0.1308745E-008  0.2264648E+04  0.7816531E-02  0.8491992E-01
         -2   -1    0    0    0  501 -0.00000000000E+00  0.00000000000E+00  0.59323850079E+03  0.59323850079E+03  0.00000000000E+00 0. -1.
          2   -1    0    0  501    0  0.00000000000E+00 -0.00000000000E+00 -0.21612852678E+04  0.21612852678E+04  0.00000000000E+00 0.  1.
    2000013    1    1    2    0    0 -0.13534039068E+03  0.57943244900E+03 -0.58941823327E+03  0.12664804926E+04  0.95000000000E+03 0.  0.
   -2000013    1    1    2    0    0  0.13534039068E+03 -0.57943244900E+03 -0.97862853375E+03  0.14880432760E+04  0.95000000000E+03 0.  0.
<mgrwt>
<rscale>  0 0.22646480E+04</rscale>
<asrwt>0</asrwt>
<pdfrwt beam="2">  1        2 0.33250543E+00 0.22646480E+04</pdfrwt>
<pdfrwt beam="1">  1       -2 0.91267460E-01 0.22646480E+04</pdfrwt>
<totfact> 0.50501105E+00</totfact>
</mgrwt>
</event>
<event>
 4    1  0.1308745E-008  0.2713250E+04  0.7816531E-02  0.8330719E-01
         -2   -1    0    0    0  501 -0.00000000000E+00  0.00000000000E+00  0.84565620323E+03  0.84565620323E+03  0.00000000000E+00 0. -1.
          2   -1    0    0  501    0  0.00000000000E+00 -0.00000000000E+00 -0.21763356260E+04  0.21763356260E+04  0.00000000000E+00 0.  1.
    2000013    1    1    2    0    0 -0.12392338083E+03 -0.94924066676E+03 -0.50196191645E+03  0.14390554587E+04  0.95000000000E+03 0.  0.
   -2000013    1    1    2    0    0  0.12392338083E+03  0.94924066676E+03 -0.82871750632E+03  0.15829363705E+04  0.95000000000E+03 0.  0.
<mgrwt>
<rscale>  0 0.27132502E+04</rscale>
<asrwt>0</asrwt>
<pdfrwt beam="2">  1        2 0.33482086E+00 0.27132502E+04</pdfrwt>
<pdfrwt beam="1">  1       -2 0.13010096E+00 0.27132502E+04</pdfrwt>
<totfact> 0.20224169E+00</totfact>
</mgrwt>
</event>
<event>
 4    1  0.1308745E-008  0.2071880E+04  0.7816531E-02  0.8573732E-01
          2   -1    0    0  501    0  0.00000000000E+00  0.00000000000E+00  0.20445589470E+04  0.20445589470E+04  0.00000000000E+00 0.  1.
         -2   -1    0    0    0  501 -0.00000000000E+00 -0.00000000000E+00 -0.52489173834E+03  0.52489173834E+03  0.00000000000E+00 0. -1.
    2000013    1    1    2    0    0  0.10509031837E+03 -0.37683037860E+03  0.59518248375E+03  0.11873446417E+04  0.95000000000E+03 0.  0.
   -2000013    1    1    2    0    0 -0.10509031837E+03  0.37683037860E+03  0.92448472494E+03  0.13821060437E+04  0.95000000000E+03 0.  0.
<mgrwt>
<rscale>  0 0.20718804E+04</rscale>
<asrwt>0</asrwt>
<pdfrwt beam="1">  1        2 0.31454753E+00 0.20718804E+04</pdfrwt>
<pdfrwt beam="2">  1       -2 0.80752576E-01 0.20718804E+04</pdfrwt>
<totfact> 0.78875668E+00</totfact>
</mgrwt>
</event>
<event>
 4    1  0.1308745E-008  0.2323891E+04  0.7816531E-02  0.8468560E-01
         -1   -1    0    0    0  501 -0.00000000000E+00  0.00000000000E+00  0.88697181825E+03  0.88697181825E+03  0.00000000000E+00 0. -1.
          1   -1    0    0  501    0  0.00000000000E+00 -0.00000000000E+00 -0.15221653149E+04  0.15221653149E+04  0.00000000000E+00 0.  1.
    2000013    1    1    2    0    0  0.35553932663E+03 -0.56389851666E+03 -0.25869724920E+03  0.11890391148E+04  0.95000000000E+03 0.  0.
   -2000013    1    1    2    0    0 -0.35553932663E+03  0.56389851666E+03 -0.37649624742E+03  0.12200980183E+04  0.95000000000E+03 0.  0.
<mgrwt>
<rscale>  0 0.23238913E+04</rscale>
<asrwt>0</asrwt>
<pdfrwt beam="2">  1        1 0.23417928E+00 0.23238913E+04</pdfrwt>
<pdfrwt beam="1">  1       -1 0.13645720E+00 0.23238913E+04</pdfrwt>
<totfact> 0.25522171E+00</totfact>
</mgrwt>
</event>
<event>
 4    1  0.1308745E-008  0.2264303E+04  0.7816531E-02  0.8492130E-01
          2   -1    0    0  501    0  0.00000000000E+00  0.00000000000E+00  0.14768118274E+04  0.14768118274E+04  0.00000000000E+00 0.  1.
         -2   -1    0    0    0  501 -0.00000000000E+00 -0.00000000000E+00 -0.86792879829E+03  0.86792879829E+03  0.00000000000E+00 0. -1.
    2000013    1    1    2    0    0 -0.37054759348E+03  0.49115625027E+03  0.33237252659E+03  0.11796234474E+04  0.95000000000E+03 0.  0.
   -2000013    1    1    2    0    0  0.37054759348E+03 -0.49115625027E+03  0.27651050257E+03  0.11651171783E+04  0.95000000000E+03 0.  0.
<mgrwt>
<rscale>  0 0.22643034E+04</rscale>
<asrwt>0</asrwt>
<pdfrwt beam="1">  1        2 0.22720182E+00 0.22643034E+04</pdfrwt>
<pdfrwt beam="2">  1       -2 0.13352751E+00 0.22643034E+04</pdfrwt>
<totfact> 0.48273596E+00</totfact>
</mgrwt>
</event>
<event>
 4    1  0.1308745E-008  0.2296810E+04  0.7816531E-02  0.8479180E-01
          2   -1    0    0  501    0  0.00000000000E+00  0.00000000000E+00  0.22694408938E+04  0.22694408938E+04  0.00000000000E+00 0.  1.
         -2   -1    0    0    0  501 -0.00000000000E+00 -0.00000000000E+00 -0.58112732858E+03  0.58112732858E+03  0.00000000000E+00 0. -1.
    2000013    1    1    2    0    0 -0.13499036555E+03 -0.49280777094E+03  0.13331752654E+04  0.17149163788E+04  0.95000000000E+03 0.  0.
   -2000013    1    1    2    0    0  0.13499036555E+03  0.49280777094E+03  0.35513829983E+03  0.11356518436E+04  0.95000000000E+03 0.  0.
<mgrwt>
<rscale>  0 0.22968101E+04</rscale>
<asrwt>0</asrwt>
<pdfrwt beam="1">  1        2 0.34914475E+00 0.22968101E+04</pdfrwt>
<pdfrwt beam="2">  1       -2 0.89404205E-01 0.22968101E+04</pdfrwt>
<totfact> 0.45909444E+00</totfact>
</mgrwt>
</event>
<event>
 4    1  0.1308745E-008  0.2145681E+04  0.7816531E-02  0.8541383E-01
          2   -1    0    0  501    0  0.00000000000E+00  0.00000000000E+00  0.33091254647E+04  0.33091254647E+04  0.00000000000E+00 0.  1.
         -2   -1    0    0    0  501 -0.00000000000E+00 -0.00000000000E+00 -0.34782216269E+03  0.34782216269E+03  0.00000000000E+00 0. -1.
    2000013    1    1    2    0    0  0.17551546118E+03 -0.25952333682E+03  0.81984396806E+03  0.12933685366E+04  0.95000000000E+03 0.  0.
   -2000013    1    1    2    0    0 -0.17551546118E+03  0.25952333682E+03  0.21414593339E+04  0.23635790908E+04  0.95000000000E+03 0.  0.
<mgrwt>
<rscale>  0 0.21456814E+04</rscale>
<asrwt>0</asrwt>
<pdfrwt beam="1">  1        2 0.50909620E+00 0.21456814E+04</pdfrwt>
<pdfrwt beam="2">  1       -2 0.53511104E-01 0.21456814E+04</pdfrwt>
<totfact> 0.33286208E+00</totfact>
</mgrwt>
</event>
<event>
 4    1  0.1308745E-008  0.2001734E+04  0.7816531E-02  0.8605811E-01
         -2   -1    0    0    0  501 -0.00000000000E+00  0.00000000000E+00  0.51910760432E+03  0.51910760432E+03  0.00000000000E+00 0. -1.
          2   -1    0    0  501    0  0.00000000000E+00 -0.00000000000E+00 -0.19297238509E+04  0.19297238509E+04  0.00000000000E+00 0.  1.
    2000013    1    1    2    0    0 -0.31210328314E+03 -0.39568319835E+02 -0.72504225065E+03  0.12357833048E+04  0.95000000000E+03 0.  0.
   -2000013    1    1    2    0    0  0.31210328314E+03  0.39568319835E+02 -0.68557399595E+03  0.12130481504E+04  0.95000000000E+03 0.  0.
<mgrwt>
<rscale>  0 0.20017336E+04</rscale>
<asrwt>0</asrwt>
<pdfrwt beam="2">  1        2 0.29688059E+00 0.20017336E+04</pdfrwt>
<pdfrwt beam="1">  1       -2 0.79862709E-01 0.20017336E+04</pdfrwt>
<totfact> 0.94223092E+00</totfact>
</mgrwt>
</event>
<event>
 4    1  0.1308745E-008  0.3190056E+04  0.7816531E-02  0.8191448E-01
          2   -1    0    0  501    0  0.00000000000E+00  0.00000000000E+00  0.23977964187E+04  0.23977964187E+04  0.00000000000E+00 0.  1.
         -2   -1    0    0    0  501 -0.00000000000E+00 -0.00000000000E+00 -0.10610216833E+04  0.10610216833E+04  0.00000000000E+00 0. -1.
    2000013    1    1    2    0    0  0.12167489012E+04  0.30928522379E+02  0.23444410290E+03  0.15616973137E+04  0.95000000000E+03 0.  0.
   -2000013    1    1    2    0    0 -0.12167489012E+04 -0.30928522379E+02  0.11023306325E+04  0.18971207883E+04  0.95000000000E+03 0.  0.
<mgrwt>
<rscale>  0 0.31900558E+04</rscale>
<asrwt>0</asrwt>
<pdfrwt beam="1">  1        2 0.36889176E+00 0.31900558E+04</pdfrwt>
<pdfrwt beam="2">  1       -2 0.16323411E+00 0.31900558E+04</pdfrwt>
<totfact> 0.80120329E-01</totfact>
</mgrwt>
</event>
<event>
 4    1  0.1308745E-008  0.2951241E+04  0.7816531E-02  0.8257793E-01
         -2   -1    0    0    0  501 -0.00000000000E+00  0.00000000000E+00  0.81350891642E+03  0.81350891642E+03  0.00000000000E+00 0. -1.
          2   -1    0    0  501    0  0.00000000000E+00 -0.00000000000E+00 -0.26766221592E+04  0.26766221592E+04  0.00000000000E+00 0.  1.
    2000013    1    1    2    0    0 -0.55217964119E+03 -0.26092685443E+03 -0.20546950601E+04  0.23446229909E+04  0.95000000000E+03 0.  0.
   -2000013    1    1    2    0    0  0.55217964119E+03  0.26092685443E+03  0.19158181727E+03  0.11455080847E+04  0.95000000000E+03 0.  0.
<mgrwt>
<rscale>  0 0.29512411E+04</rscale>
<asrwt>0</asrwt>
<pdfrwt beam="2">  1        2 0.41178803E+00 0.29512411E+04</pdfrwt>
<pdfrwt beam="1">  1       -2 0.12515522E+00 0.29512411E+04</pdfrwt>
<totfact> 0.11260218E+00</totfact>
</mgrwt>
</event>
<event>
 4    1  0.1308745E-008  0.1987921E+04  0.7816531E-02  0.8612289E-01
         -2   -1    0    0    0  501 -0.00000000000E+00  0.00000000000E+00  0.39285000693E+03  0.39285000693E+03  0.00000000000E+00 0. -1.
          2   -1    0    0  501    0  0.00000000000E+00 -0.00000000000E+00 -0.25148455041E+04  0.25148455041E+04  0.00000000000E+00 0.  1.
    2000013    1    1    2    0    0  0.49447521418E+02  0.96913497146E+02 -0.66412874472E+03  0.11642183098E+04  0.95000000000E+03 0.  0.
   -2000013    1    1    2    0    0 -0.49447521418E+02 -0.96913497146E+02 -0.14578667524E+04  0.17434772012E+04  0.95000000000E+03 0.  0.
<mgrwt>
<rscale>  0 0.19879206E+04</rscale>
<asrwt>0</asrwt>
<pdfrwt beam="2">  1        2 0.38689933E+00 0.19879206E+04</pdfrwt>
<pdfrwt beam="1">  1       -2 0.60438460E-01 0.19879206E+04</pdfrwt>
<totfact> 0.80989150E+00</totfact>
</mgrwt>
</event>
<event>
 4    1  0.1308745E-008  0.2058233E+04  0.7816531E-02  0.8579868E-01
         -1   -1    0    0    0  501 -0.00000000000E+00  0.00000000000E+00  0.53416655213E+03  0.53416655213E+03  0.00000000000E+00 0. -1.
          1   -1    0    0  501    0  0.00000000000E+00 -0.00000000000E+00 -0.19826798205E+04  0.19826798205E+04  0.00000000000E+00 0.  1.
    2000013    1    1    2    0    0 -0.20655284264E+03 -0.15997817760E+03 -0.10876707610E+04  0.14675778611E+04  0.95000000000E+03 0.  0.
   -2000013    1    1    2    0    0  0.20655284264E+03  0.15997817760E+03 -0.36084250736E+03  0.10492685115E+04  0.95000000000E+03 0.  0.
<mgrwt>
<rscale>  0 0.20582335E+04</rscale>
<asrwt>0</asrwt>
<pdfrwt beam="2">  1        1 0.30502767E+00 0.20582335E+04</pdfrwt>
<pdfrwt beam="1">  1       -1 0.82179469E-01 0.20582335E+04</pdfrwt>
<totfact> 0.41613102E+00</totfact>
</mgrwt>
</event>
<event>
 4    1  0.1308745E-008  0.3597421E+04  0.7816531E-02  0.8091083E-01
          2   -1    0    0  501    0  0.00000000000E+00  0.00000000000E+00  0.21346027409E+04  0.21346027409E+04  0.00000000000E+00 0.  1.
         -2   -1    0    0    0  501 -0.00000000000E+00 -0.00000000000E+00 -0.15156727690E+04  0.15156727690E+04  0.00000000000E+00 0. -1.
    2000013    1    1    2    0    0 -0.81430505640E+03  0.24994140169E+03  0.15958835569E+04  0.20432591016E+04  0.95000000000E+03 0.  0.
   -2000013    1    1    2    0    0  0.81430505640E+03 -0.24994140169E+03 -0.97695358503E+03  0.16070164083E+04  0.95000000000E+03 0.  0.
<mgrwt>
<rscale>  0 0.35974209E+04</rscale>
<asrwt>0</asrwt>
<pdfrwt beam="1">  1        2 0.32840042E+00 0.35974209E+04</pdfrwt>
<pdfrwt beam="2">  1       -2 0.23318043E+00 0.35974209E+04</pdfrwt>
<totfact> 0.37417003E-01</totfact>
</mgrwt>
</event>
<event>
 4    1  0.1308745E-008  0.2984397E+04  0.7816531E-02  0.8248201E-01
          2   -1    0    0  501    0  0.00000000000E+00  0.00000000000E+00  0.15473302444E+04  0.15473302444E+04  0.00000000000E+00 0.  1.
         -2   -1    0    0    0  501 -0.00000000000E+00 -0.00000000000E+00 -0.14390306680E+04  0.14390306680E+04  0.00000000000E+00 0. -1.
    2000013    1    1    2    0    0  0.81055881076E+03  0.33126155216E+03 -0.69294452557E+03  0.14660872816E+04  0.95000000000E+03 0.  0.
   -2000013    1    1    2    0    0 -0.81055881076E+03 -0.33126155216E+03  0.80124410203E+03  0.15202736309E+04  0.95000000000E+03 0.  0.
<mgrwt>
<rscale>  0 0.29843965E+04</rscale>
<asrwt>0</asrwt>
<pdfrwt beam="1">  1        2 0.23805081E+00 0.29843965E+04</pdfrwt>
<pdfrwt beam="2">  1       -2 0.22138933E+00 0.29843965E+04</pdfrwt>
<totfact> 0.99103787E-01</totfact>
</mgrwt>
</event>
<event>
 4    1  0.1308745E-008  0.2355223E+04  0.7816531E-02  0.8456460E-01
         -2   -1    0    0    0  501 -0.00000000000E+00  0.00000000000E+00  0.56747138094E+03  0.56747138094E+03  0.00000000000E+00 0. -1.
          2   -1    0    0  501    0  0.00000000000E+00 -0.00000000000E+00 -0.24437688954E+04  0.24437688954E+04  0.00000000000E+00 0.  1.
    2000013    1    1    2    0    0 -0.40032268975E+03  0.55542566427E+03 -0.77890549813E+03  0.14063959967E+04  0.95000000000E+03 0.  0.
   -2000013    1    1    2    0    0  0.40032268975E+03 -0.55542566427E+03 -0.10973920163E+04  0.16048442796E+04  0.95000000000E+03 0.  0.
<mgrwt>
<rscale>  0 0.23552231E+04</rscale>
<asrwt>0</asrwt>
<pdfrwt beam="2">  1        2 0.37596445E+00 0.23552231E+04</pdfrwt>
<pdfrwt beam="1">  1       -2 0.87303289E-01 0.23552231E+04</pdfrwt>
<totfact> 0.38375282E+00</totfact>
</mgrwt>
</event>
<event>
 4    1  0.1308745E-008  0.2425125E+04  0.7816531E-02  0.8430157E-01
          2   -1    0    0  501    0  0.00000000000E+00  0.00000000000E+00  0.28759064418E+04  0.28759064418E+04  0.00000000000E+00 0.  1.
         -2   -1    0    0    0  501 -0.00000000000E+00 -0.00000000000E+00 -0.51125026315E+03  0.51125026315E+03  0.00000000000E+00 0. -1.
    2000013    1    1    2    0    0  0.16058626867E+03  0.73588445656E+03  0.12133724774E+04  0.17152511921E+04  0.95000000000E+03 0.  0.
   -2000013    1    1    2    0    0 -0.16058626867E+03 -0.73588445656E+03  0.11512837013E+04  0.16719055128E+04  0.95000000000E+03 0.  0.
<mgrwt>
<rscale>  0 0.24251251E+04</rscale>
<asrwt>0</asrwt>
<pdfrwt beam="1">  1        2 0.44244714E+00 0.24251251E+04</pdfrwt>
<pdfrwt beam="2">  1       -2 0.78653888E-01 0.24251251E+04</pdfrwt>
<totfact> 0.26793044E+00</totfact>
</mgrwt>
</event>
<event>
 4    1  0.1308745E-008  0.2241153E+04  0.7816531E-02  0.8501492E-01
          1   -1    0    0  501    0  0.00000000000E+00  0.00000000000E+00  0.25451187730E+04  0.25451187730E+04  0.00000000000E+00 0.  1.
         -1   -1    0    0    0  501 -0.00000000000E+00 -0.00000000000E+00 -0.49337269314E+03  0.49337269314E+03  0.00000000000E+00 0. -1.
    2000013    1    1    2    0    0  0.40446636265E+03  0.27041421597E+03  0.56316908968E+03  0.12068041723E+04  0.95000000000E+03 0.  0.
   -2000013    1    1    2    0    0 -0.40446636265E+03 -0.27041421597E+03  0.14885769902E+04  0.18316872938E+04  0.95000000000E+03 0.  0.
<mgrwt>
<rscale>  0 0.22411534E+04</rscale>
<asrwt>0</asrwt>
<pdfrwt beam="1">  1        1 0.39155673E+00 0.22411534E+04</pdfrwt>
<pdfrwt beam="2">  1       -1 0.75903493E-01 0.22411534E+04</pdfrwt>
<totfact> 0.19962759E+00</totfact>
</mgrwt>
</event>
<event>
 4    1  0.1308745E-008  0.2354597E+04  0.7816531E-02  0.8456700E-01
         -2   -1    0    0    0  501 -0.00000000000E+00  0.00000000000E+00  0.11130272919E+04  0.11130272919E+04  0.00000000000E+00 0. -1.
          2   -1    0    0  501    0  0.00000000000E+00 -0.00000000000E+00 -0.12452808374E+04  0.12452808374E+04  0.00000000000E+00 0.  1.
    2000013    1    1    2    0    0 -0.64604422913E+03 -0.95555387252E+02 -0.30530765568E+03  0.11925672906E+04  0.95000000000E+03 0.  0.
   -2000013    1    1    2    0    0  0.64604422913E+03  0.95555387252E+02  0.17305411015E+03  0.11657408387E+04  0.95000000000E+03 0.  0.
<mgrwt>
<rscale>  0 0.23545968E+04</rscale>
<asrwt>0</asrwt>
<pdfrwt beam="2">  1        2 0.19158167E+00 0.23545968E+04</pdfrwt>
<pdfrwt beam="1">  1       -2 0.17123497E+00 0.23545968E+04</pdfrwt>
<totfact> 0.33561825E+00</totfact>
</mgrwt>
</event>
<event>
 4    1  0.1308745E-008  0.1995229E+04  0.7816531E-02  0.8608854E-01
         -2   -1    0    0    0  501 -0.00000000000E+00  0.00000000000E+00  0.74096249488E+03  0.74096249488E+03  0.00000000000E+00 0. -1.
          2   -1    0    0  501    0  0.00000000000E+00 -0.00000000000E+00 -0.13431653332E+04  0.13431653332E+04  0.00000000000E+00 0.  1.
    2000013    1    1    2    0    0 -0.22708591361E+03 -0.18945082394E+03 -0.22523253283E+03  0.10201418140E+04  0.95000000000E+03 0.  0.
   -2000013    1    1    2    0    0  0.22708591361E+03  0.18945082394E+03 -0.37697030546E+03  0.10639860140E+04  0.95000000000E+03 0.  0.
<mgrwt>
<rscale>  0 0.19952294E+04</rscale>
<asrwt>0</asrwt>
<pdfrwt beam="2">  1        2 0.20664082E+00 0.19952294E+04</pdfrwt>
<pdfrwt beam="1">  1       -2 0.11399423E+00 0.19952294E+04</pdfrwt>
<totfact> 0.87380453E+00</totfact>
</mgrwt>
</event>
<event>
 4    1  0.1308745E-008  0.2992788E+04  0.7816531E-02  0.8245793E-01
          2   -1    0    0  501    0  0.00000000000E+00  0.00000000000E+00  0.19542607160E+04  0.19542607160E+04  0.00000000000E+00 0.  1.
         -2   -1    0    0    0  501 -0.00000000000E+00 -0.00000000000E+00 -0.11458013791E+04  0.11458013791E+04  0.00000000000E+00 0. -1.
    2000013    1    1    2    0    0 -0.11245816321E+04 -0.24186737225E+03  0.28382663481E+03  0.15186313679E+04  0.95000000000E+03 0.  0.
   -2000013    1    1    2    0    0  0.11245816321E+04  0.24186737225E+03  0.52463270203E+03  0.15814307272E+04  0.95000000000E+03 0.  0.
<mgrwt>
<rscale>  0 0.29927877E+04</rscale>
<asrwt>0</asrwt>
<pdfrwt beam="1">  1        2 0.30065549E+00 0.29927877E+04</pdfrwt>
<pdfrwt beam="2">  1       -2 0.17627714E+00 0.29927877E+04</pdfrwt>
<totfact> 0.11679896E+00</totfact>
</mgrwt>
</event>
<event>
 4    1  0.1308745E-008  0.3115164E+04  0.7816531E-02  0.8211589E-01
         -2   -1    0    0    0  501 -0.00000000000E+00  0.00000000000E+00  0.30163711232E+04  0.30163711232E+04  0.00000000000E+00 0.  1.
          2   -1    0    0  501    0  0.00000000000E+00 -0.00000000000E+00 -0.80429811339E+03  0.80429811339E+03  0.00000000000E+00 0. -1.
    2000013    1    1    2    0    0 -0.10564134518E+04  0.63594965825E+03  0.10375265693E+04  0.18706690597E+04  0.95000000000E+03 0.  0.
   -2000013    1    1    2    0    0  0.10564134518E+04 -0.63594965825E+03  0.11745464404E+04  0.19500001768E+04  0.95000000000E+03 0.  0.
<mgrwt>
<rscale>  0 0.31151639E+04</rscale>
<asrwt>0</asrwt>
<pdfrwt beam="2">  1        2 0.12373817E+00 0.31151639E+04</pdfrwt>
<pdfrwt beam="1">  1       -2 0.46405709E+00 0.31151639E+04</pdfrwt>
<totfact> 0.81180624E-02</totfact>
</mgrwt>
</event>
<event>
 4    1  0.1308745E-008  0.2470047E+04  0.7816531E-02  0.8413735E-01
          2   -1    0    0  501    0  0.00000000000E+00  0.00000000000E+00  0.14492721417E+04  0.14492721417E+04  0.00000000000E+00 0.  1.
         -2   -1    0    0    0  501 -0.00000000000E+00 -0.00000000000E+00 -0.10524480541E+04  0.10524480541E+04  0.00000000000E+00 0. -1.
    2000013    1    1    2    0    0  0.72812759891E+03 -0.26337876985E+03  0.35283170188E+03  0.12753542200E+04  0.95000000000E+03 0.  0.
   -2000013    1    1    2    0    0 -0.72812759891E+03  0.26337876985E+03  0.43992385695E+02  0.12263659758E+04  0.95000000000E+03 0.  0.
<mgrwt>
<rscale>  0 0.24700475E+04</rscale>
<asrwt>0</asrwt>
<pdfrwt beam="1">  1        2 0.22296495E+00 0.24700475E+04</pdfrwt>
<pdfrwt beam="2">  1       -2 0.16191508E+00 0.24700475E+04</pdfrwt>
<totfact> 0.29573080E+00</totfact>
</mgrwt>
</event>
<event>
 4    1  0.1308745E-008  0.2834832E+04  0.7816531E-02  0.8292535E-01
         -2   -1    0    0    0  501 -0.00000000000E+00  0.00000000000E+00  0.55431003474E+03  0.55431003474E+03  0.00000000000E+00 0.  1.
          2   -1    0    0  501    0  0.00000000000E+00 -0.00000000000E+00 -0.36244474064E+04  0.36244474064E+04  0.00000000000E+00 0. -1.
    2000013    1    1    2    0    0  0.93867052991E+03  0.31387003981E+03 -0.10098530817E+04  0.17035022783E+04  0.95000000000E+03 0.  0.
   -2000013    1    1    2    0    0 -0.93867052991E+03 -0.31387003981E+03 -0.20602842899E+04  0.24752551628E+04  0.95000000000E+03 0.  0.
<mgrwt>
<rscale>  0 0.28348316E+04</rscale>
<asrwt>0</asrwt>
<pdfrwt beam="2">  1        2 0.55760731E+00 0.28348316E+04</pdfrwt>
<pdfrwt beam="1">  1       -2 0.85278465E-01 0.28348316E+04</pdfrwt>
<totfact> 0.68780356E-01</totfact>
</mgrwt>
</event>
<event>
 4    1  0.1308745E-008  0.4164537E+04  0.7816531E-02  0.7972153E-01
          2   -1    0    0  501    0  0.00000000000E+00  0.00000000000E+00  0.23698418098E+04  0.23698418098E+04  0.00000000000E+00 0. -1.
         -2   -1    0    0    0  501 -0.00000000000E+00 -0.00000000000E+00 -0.18295910908E+04  0.18295910908E+04  0.00000000000E+00 0.  1.
    2000013    1    1    2    0    0  0.96050435138E+03 -0.11834781857E+04 -0.79234108528E+03  0.19630317421E+04  0.95000000000E+03 0.  0.
   -2000013    1    1    2    0    0 -0.96050435138E+03  0.11834781857E+04  0.13325918043E+04  0.22364011585E+04  0.95000000000E+03 0.  0.
<mgrwt>
<rscale>  0 0.41645367E+04</rscale>
<asrwt>0</asrwt>
<pdfrwt beam="1">  1        2 0.36459105E+00 0.41645367E+04</pdfrwt>
<pdfrwt beam="2">  1       -2 0.28147555E+00 0.41645367E+04</pdfrwt>
<totfact> 0.13284371E-01</totfact>
</mgrwt>
</event>
<event>
 4    1  0.1308745E-008  0.2414152E+04  0.7816531E-02  0.8434224E-01
         -2   -1    0    0    0  501 -0.00000000000E+00  0.00000000000E+00  0.47882514297E+03  0.47882514297E+03  0.00000000000E+00 0. -1.
          2   -1    0    0  501    0  0.00000000000E+00 -0.00000000000E+00 -0.30429333239E+04  0.30429333239E+04  0.00000000000E+00 0.  1.
    2000013    1    1    2    0    0 -0.69333163106E+03 -0.50334023774E+02 -0.89255057802E+03  0.14772910339E+04  0.95000000000E+03 0.  0.
   -2000013    1    1    2    0    0  0.69333163106E+03  0.50334023774E+02 -0.16715576029E+04  0.20444674330E+04  0.95000000000E+03 0.  0.
<mgrwt>
<rscale>  0 0.24141524E+04</rscale>
<asrwt>0</asrwt>
<pdfrwt beam="2">  1        2 0.46814358E+00 0.24141524E+04</pdfrwt>
<pdfrwt beam="1">  1       -2 0.73665408E-01 0.24141524E+04</pdfrwt>
<totfact> 0.24428934E+00</totfact>
</mgrwt>
</event>
<event>
 4    1  0.1308745E-008  0.2664523E+04  0.7816531E-02  0.8346609E-01
          2   -1    0    0  501    0  0.00000000000E+00  0.00000000000E+00  0.18961806596E+04  0.18961806596E+04  0.00000000000E+00 0.  1.
         -2   -1    0    0    0  501 -0.00000000000E+00 -0.00000000000E+00 -0.93605009321E+03  0.93605009321E+03  0.00000000000E+00 0. -1.
    2000013    1    1    2    0    0 -0.38306843058E+03  0.65424373475E+03  0.10599713526E+04  0.16127044228E+04  0.95000000000E+03 0.  0.
   -2000013    1    1    2    0    0  0.38306843058E+03 -0.65424373475E+03 -0.99840786214E+02  0.12195263300E+04  0.95000000000E+03 0.  0.
<mgrwt>
<rscale>  0 0.26645225E+04</rscale>
<asrwt>0</asrwt>
<pdfrwt beam="1">  1        2 0.29172010E+00 0.26645225E+04</pdfrwt>
<pdfrwt beam="2">  1       -2 0.14400771E+00 0.26645225E+04</pdfrwt>
<totfact> 0.22402285E+00</totfact>
</mgrwt>
</event>
<event>
 4    1  0.1308745E-008  0.3389594E+04  0.7816531E-02  0.8140465E-01
          2   -1    0    0  501    0  0.00000000000E+00  0.00000000000E+00  0.28473306951E+04  0.28473306951E+04  0.00000000000E+00 0.  1.
         -2   -1    0    0    0  501 -0.00000000000E+00 -0.00000000000E+00 -0.10087822241E+04  0.10087822241E+04  0.00000000000E+00 0. -1.
    2000013    1    1    2    0    0 -0.11682850023E+04 -0.39037564825E+03  0.16845837152E+04  0.22929468565E+04  0.95000000000E+03 0.  0.
   -2000013    1    1    2    0    0  0.11682850023E+04  0.39037564825E+03  0.15396475580E+03  0.15631660626E+04  0.95000000000E+03 0.  0.
<mgrwt>
<rscale>  0 0.33895938E+04</rscale>
<asrwt>0</asrwt>
<pdfrwt beam="1">  1        2 0.43805087E+00 0.33895938E+04</pdfrwt>
<pdfrwt beam="2">  1       -2 0.15519727E+00 0.33895938E+04</pdfrwt>
<totfact> 0.49067020E-01</totfact>
</mgrwt>
</event>
<event>
 4    1  0.1308745E-008  0.3277969E+04  0.7816531E-02  0.8168524E-01
         -2   -1    0    0    0  501 -0.00000000000E+00  0.00000000000E+00  0.10781640433E+04  0.10781640433E+04  0.00000000000E+00 0. -1.
          2   -1    0    0  501    0  0.00000000000E+00 -0.00000000000E+00 -0.24915231633E+04  0.24915231633E+04  0.00000000000E+00 0.  1.
    2000013    1    1    2    0    0 -0.74339196499E+03 -0.10597097499E+04 -0.34854418865E+03  0.16430457751E+04  0.95000000000E+03 0.  0.
   -2000013    1    1    2    0    0  0.74339196499E+03  0.10597097499E+04 -0.10648149313E+04  0.19266414315E+04  0.95000000000E+03 0.  0.
<mgrwt>
<rscale>  0 0.32779693E+04</rscale>
<asrwt>0</asrwt>
<pdfrwt beam="2">  1        2 0.38331125E+00 0.32779693E+04</pdfrwt>
<pdfrwt beam="1">  1       -2 0.16587139E+00 0.32779693E+04</pdfrwt>
<totfact> 0.67205873E-01</totfact>
</mgrwt>
</event>
<event>
 4    1  0.1308745E-008  0.3350517E+04  0.7816531E-02  0.8150159E-01
         -1   -1    0    0    0  501 -0.00000000000E+00  0.00000000000E+00  0.11514980237E+04  0.11514980237E+04  0.00000000000E+00 0. -1.
          1   -1    0    0  501    0  0.00000000000E+00 -0.00000000000E+00 -0.24372525987E+04  0.24372525987E+04  0.00000000000E+00 0.  1.
    2000013    1    1    2    0    0  0.12423435447E+04 -0.33115454660E+03 -0.11794036129E+04  0.19865985248E+04  0.95000000000E+03 0.  0.
   -2000013    1    1    2    0    0 -0.12423435447E+04  0.33115454660E+03 -0.10635096214E+03  0.16021520976E+04  0.95000000000E+03 0.  0.
<mgrwt>
<rscale>  0 0.33505173E+04</rscale>
<asrwt>0</asrwt>
<pdfrwt beam="2">  1        1 0.37496193E+00 0.33505173E+04</pdfrwt>
<pdfrwt beam="1">  1       -1 0.17715354E+00 0.33505173E+04</pdfrwt>
<totfact> 0.26984637E-01</totfact>
</mgrwt>
</event>
<event>
 4    1  0.1308745E-008  0.2030392E+04  0.7816531E-02  0.8592542E-01
         -2   -1    0    0    0  501 -0.00000000000E+00  0.00000000000E+00  0.40210724446E+03  0.40210724446E+03  0.00000000000E+00 0. -1.
          2   -1    0    0  501    0  0.00000000000E+00 -0.00000000000E+00 -0.25630558218E+04  0.25630558218E+04  0.00000000000E+00 0.  1.
    2000013    1    1    2    0    0 -0.11864967983E+03 -0.28470764169E+03 -0.13457154040E+04  0.16758836882E+04  0.95000000000E+03 0.  0.
   -2000013    1    1    2    0    0  0.11864967983E+03  0.28470764169E+03 -0.81523317330E+03  0.12892793780E+04  0.95000000000E+03 0.  0.
<mgrwt>
<rscale>  0 0.20303924E+04</rscale>
<asrwt>0</asrwt>
<pdfrwt beam="2">  1        2 0.39431628E+00 0.20303924E+04</pdfrwt>
<pdfrwt beam="1">  1       -2 0.61862652E-01 0.20303924E+04</pdfrwt>
<totfact> 0.71999841E+00</totfact>
</mgrwt>
</event>
<event>
 4    1  0.1308745E-008  0.2318728E+04  0.7816531E-02  0.8470573E-01
          2   -1    0    0  501    0  0.00000000000E+00  0.00000000000E+00  0.14381827150E+04  0.14381827150E+04  0.00000000000E+00 0.  1.
         -2   -1    0    0    0  501 -0.00000000000E+00 -0.00000000000E+00 -0.93459961877E+03  0.93459961877E+03  0.00000000000E+00 0. -1.
    2000013    1    1    2    0    0  0.39016379297E+03  0.53747594323E+03  0.22852740394E+03  0.11814537440E+04  0.95000000000E+03 0.  0.
   -2000013    1    1    2    0    0 -0.39016379297E+03 -0.53747594323E+03  0.27505569227E+03  0.11913285897E+04  0.95000000000E+03 0.  0.
<mgrwt>
<rscale>  0 0.23187281E+04</rscale>
<asrwt>0</asrwt>
<pdfrwt beam="1">  1        2 0.22125888E+00 0.23187281E+04</pdfrwt>
<pdfrwt beam="2">  1       -2 0.14378456E+00 0.23187281E+04</pdfrwt>
<totfact> 0.41739177E+00</totfact>
</mgrwt>
</event>
<event>
 4    1  0.1308745E-008  0.2766316E+04  0.7816531E-02  0.8313803E-01
          2   -1    0    0  501    0  0.00000000000E+00  0.00000000000E+00  0.32462908256E+04  0.32462908256E+04  0.00000000000E+00 0.  1.
         -2   -1    0    0    0  501 -0.00000000000E+00 -0.00000000000E+00 -0.58932693887E+03  0.58932693887E+03  0.00000000000E+00 0. -1.
    2000013    1    1    2    0    0  0.33290328474E+03 -0.58177970183E+03  0.23673115103E+04  0.26374146441E+04  0.95000000000E+03 0.  0.
   -2000013    1    1    2    0    0 -0.33290328474E+03  0.58177970183E+03  0.28965237650E+03  0.11982031204E+04  0.95000000000E+03 0.  0.
<mgrwt>
<rscale>  0 0.27663164E+04</rscale>
<asrwt>0</asrwt>
<pdfrwt beam="1">  1        2 0.49942935E+00 0.27663164E+04</pdfrwt>
<pdfrwt beam="2">  1       -2 0.90665685E-01 0.27663164E+04</pdfrwt>
<totfact> 0.10958320E+00</totfact>
</mgrwt>
</event>
<event>
 4    1  0.1308745E-008  0.2490057E+04  0.7816531E-02  0.8406536E-01
          2   -1    0    0  501    0  0.00000000000E+00  0.00000000000E+00  0.74660871729E+03  0.74660871729E+03  0.00000000000E+00 0. -1.
         -2   -1    0    0    0  501 -0.00000000000E+00 -0.00000000000E+00 -0.20761827655E+04  0.20761827655E+04  0.00000000000E+00 0.  1.
    2000013    1    1    2    0    0 -0.54494850981E+03 -0.58923133665E+03 -0.73121499301E+03  0.14426842386E+04  0.95000000000E+03 0.  0.
   -2000013    1    1    2    0    0  0.54494850981E+03  0.58923133665E+03 -0.59835905521E+03  0.13801072442E+04  0.95000000000E+03 0.  0.
<mgrwt>
<rscale>  0 0.24900571E+04</rscale>
<asrwt>0</asrwt>
<pdfrwt beam="1">  1        2 0.11486288E+00 0.24900571E+04</pdfrwt>
<pdfrwt beam="2">  1       -2 0.31941273E+00 0.24900571E+04</pdfrwt>
<totfact> 0.81325046E-01</totfact>
</mgrwt>
</event>
<event>
 4    1  0.1308745E-008  0.2971036E+04  0.7816531E-02  0.8252051E-01
          2   -1    0    0  501    0  0.00000000000E+00  0.00000000000E+00  0.26798901454E+04  0.26798901454E+04  0.00000000000E+00 0.  1.
         -2   -1    0    0    0  501 -0.00000000000E+00 -0.00000000000E+00 -0.82345278541E+03  0.82345278541E+03  0.00000000000E+00 0. -1.
    2000013    1    1    2    0    0  0.99889339469E+02  0.96130628469E+03  0.21079029267E+03  0.13715028985E+04  0.95000000000E+03 0.  0.
   -2000013    1    1    2    0    0 -0.99889339469E+02 -0.96130628469E+03  0.16456470673E+04  0.21318400323E+04  0.95000000000E+03 0.  0.
<mgrwt>
<rscale>  0 0.29710355E+04</rscale>
<asrwt>0</asrwt>
<pdfrwt beam="1">  1        2 0.41229079E+00 0.29710355E+04</pdfrwt>
<pdfrwt beam="2">  1       -2 0.12668505E+00 0.29710355E+04</pdfrwt>
<totfact> 0.10854776E+00</totfact>
</mgrwt>
</event>
<event>
 4    1  0.1308745E-008  0.3676895E+04  0.7816531E-02  0.8073102E-01
         -2   -1    0    0    0  501 -0.00000000000E+00  0.00000000000E+00  0.12637599820E+04  0.12637599820E+04  0.00000000000E+00 0. -1.
          2   -1    0    0  501    0  0.00000000000E+00 -0.00000000000E+00 -0.26744707658E+04  0.26744707658E+04  0.00000000000E+00 0.  1.
    2000013    1    1    2    0    0 -0.14179074537E+04 -0.11328371386E+03 -0.14271157070E+04  0.22276566136E+04  0.95000000000E+03 0.  0.
   -2000013    1    1    2    0    0  0.14179074537E+04  0.11328371386E+03  0.16404923266E+02  0.17105741342E+04  0.95000000000E+03 0.  0.
<mgrwt>
<rscale>  0 0.36768950E+04</rscale>
<asrwt>0</asrwt>
<pdfrwt beam="2">  1        2 0.41145704E+00 0.36768950E+04</pdfrwt>
<pdfrwt beam="1">  1       -2 0.19442461E+00 0.36768950E+04</pdfrwt>
<totfact> 0.32242301E-01</totfact>
</mgrwt>
</event>
<event>
 4    1  0.1308745E-008  0.3199437E+04  0.7816531E-02  0.8188966E-01
          2   -1    0    0  501    0  0.00000000000E+00  0.00000000000E+00  0.12334547948E+04  0.12334547948E+04  0.00000000000E+00 0.  1.
         -2   -1    0    0    0  501 -0.00000000000E+00 -0.00000000000E+00 -0.20747404315E+04  0.20747404315E+04  0.00000000000E+00 0. -1.
    2000013    1    1    2    0    0 -0.88574468505E+03  0.93348258176E+03 -0.44731013376E+03  0.16608792049E+04  0.95000000000E+03 0.  0.
   -2000013    1    1    2    0    0  0.88574468505E+03 -0.93348258176E+03 -0.39397550297E+03  0.16473160214E+04  0.95000000000E+03 0.  0.
<mgrwt>
<rscale>  0 0.31994365E+04</rscale>
<asrwt>0</asrwt>
<pdfrwt beam="1">  1        2 0.18976228E+00 0.31994365E+04</pdfrwt>
<pdfrwt beam="2">  1       -2 0.31919083E+00 0.31994365E+04</pdfrwt>
<totfact> 0.36892868E-01</totfact>
</mgrwt>
</event>
<event>
 4    1  0.1308745E-008  0.3287377E+04  0.7816531E-02  0.8166115E-01
         -2   -1    0    0    0  501 -0.00000000000E+00  0.00000000000E+00  0.18862770169E+04  0.18862770169E+04  0.00000000000E+00 0. -1.
          2   -1    0    0  501    0  0.00000000000E+00 -0.00000000000E+00 -0.14322987579E+04  0.14322987579E+04  0.00000000000E+00 0.  1.
    2000013    1    1    2    0    0  0.97100668560E+03 -0.44445641370E+03  0.10463675310E+04  0.17713781350E+04  0.95000000000E+03 0.  0.
   -2000013    1    1    2    0    0 -0.97100668560E+03  0.44445641370E+03 -0.59238927198E+03  0.15471976398E+04  0.95000000000E+03 0.  0.
<mgrwt>
<rscale>  0 0.32873772E+04</rscale>
<asrwt>0</asrwt>
<pdfrwt beam="2">  1        2 0.22035366E+00 0.32873772E+04</pdfrwt>
<pdfrwt beam="1">  1       -2 0.29019646E+00 0.32873772E+04</pdfrwt>
<totfact> 0.42304994E-01</totfact>
</mgrwt>
</event>
<event>
 4    1  0.1308745E-008  0.2752663E+04  0.7816531E-02  0.8318117E-01
         -2   -1    0    0    0  501 -0.00000000000E+00  0.00000000000E+00  0.18118851920E+04  0.18118851920E+04  0.00000000000E+00 0. -1.
          2   -1    0    0  501    0  0.00000000000E+00 -0.00000000000E+00 -0.10454791726E+04  0.10454791726E+04  0.00000000000E+00 0.  1.
    2000013    1    1    2    0    0  0.14739707571E+02  0.99226549184E+03  0.29647777563E+03  0.14054206263E+04  0.95000000000E+03 0.  0.
   -2000013    1    1    2    0    0 -0.14739707571E+02 -0.99226549184E+03  0.46992824377E+03  0.14519437384E+04  0.95000000000E+03 0.  0.
<mgrwt>
<rscale>  0 0.27526629E+04</rscale>
<asrwt>0</asrwt>
<pdfrwt beam="2">  1        2 0.16084295E+00 0.27526629E+04</pdfrwt>
<pdfrwt beam="1">  1       -2 0.27875157E+00 0.27526629E+04</pdfrwt>
<totfact> 0.88209321E-01</totfact>
</mgrwt>
</event>
<event>
 4    1  0.1308745E-008  0.2902980E+04  0.7816531E-02  0.8271991E-01
          2   -1    0    0  501    0  0.00000000000E+00  0.00000000000E+00  0.16765893241E+04  0.16765893241E+04  0.00000000000E+00 0.  1.
         -2   -1    0    0    0  501 -0.00000000000E+00 -0.00000000000E+00 -0.12566128759E+04  0.12566128759E+04  0.00000000000E+00 0. -1.
    2000013    1    1    2    0    0  0.31352943856E+03 -0.64237912268E+03  0.10513467159E+04  0.15870669687E+04  0.95000000000E+03 0.  0.
   -2000013    1    1    2    0    0 -0.31352943856E+03  0.64237912268E+03 -0.63137026767E+03  0.13461352313E+04  0.95000000000E+03 0.  0.
<mgrwt>
<rscale>  0 0.29029804E+04</rscale>
<asrwt>0</asrwt>
<pdfrwt beam="1">  1        2 0.25793682E+00 0.29029804E+04</pdfrwt>
<pdfrwt beam="2">  1       -2 0.19332506E+00 0.29029804E+04</pdfrwt>
<totfact> 0.12842038E+00</totfact>
</mgrwt>
</event>
<event>
 4    1  0.1308745E-008  0.2261044E+04  0.7816531E-02  0.8493441E-01
         -1   -1    0    0    0  501 -0.00000000000E+00  0.00000000000E+00  0.12883196858E+04  0.12883196858E+04  0.00000000000E+00 0. -1.
          1   -1    0    0  501    0  0.00000000000E+00 -0.00000000000E+00 -0.99205176905E+03  0.99205176905E+03  0.00000000000E+00 0.  1.
    2000013    1    1    2    0    0  0.42573266545E+03  0.38835429172E+02 -0.29473618285E+03  0.10826476391E+04  0.95000000000E+03 0.  0.
   -2000013    1    1    2    0    0 -0.42573266545E+03 -0.38835429172E+02  0.59100409955E+03  0.11977238157E+04  0.95000000000E+03 0.  0.
<mgrwt>
<rscale>  0 0.22610439E+04</rscale>
<asrwt>0</asrwt>
<pdfrwt beam="2">  1        1 0.15262335E+00 0.22610439E+04</pdfrwt>
<pdfrwt beam="1">  1       -1 0.19820303E+00 0.22610439E+04</pdfrwt>
<totfact> 0.21559442E+00</totfact>
</mgrwt>
</event>
<event>
 4    1  0.1308745E-008  0.2983440E+04  0.7816531E-02  0.8248476E-01
         -2   -1    0    0    0  501 -0.00000000000E+00  0.00000000000E+00  0.45261396449E+03  0.45261396449E+03  0.00000000000E+00 0. -1.
          2   -1    0    0  501    0  0.00000000000E+00 -0.00000000000E+00 -0.49163923168E+04  0.49163923168E+04  0.00000000000E+00 0.  1.
    2000013    1    1    2    0    0  0.76389311915E+03  0.84510383044E+03 -0.19473775076E+04  0.24479608532E+04  0.95000000000E+03 0.  0.
   -2000013    1    1    2    0    0 -0.76389311915E+03 -0.84510383044E+03 -0.25164008447E+04  0.29210454281E+04  0.95000000000E+03 0.  0.
<mgrwt>
<rscale>  0 0.29834395E+04</rscale>
<asrwt>0</asrwt>
<pdfrwt beam="2">  1        2 0.75636802E+00 0.29834395E+04</pdfrwt>
<pdfrwt beam="1">  1       -2 0.69632920E-01 0.29834395E+04</pdfrwt>
<totfact> 0.70150887E-02</totfact>
</mgrwt>
</event>
<event>
 4    1  0.1308745E-008  0.3098112E+04  0.7816531E-02  0.8216256E-01
         -2   -1    0    0    0  501 -0.00000000000E+00  0.00000000000E+00  0.12493404337E+04  0.12493404337E+04  0.00000000000E+00 0. -1.
          2   -1    0    0  501    0  0.00000000000E+00 -0.00000000000E+00 -0.19206728944E+04  0.19206728944E+04  0.00000000000E+00 0.  1.
    2000013    1    1    2    0    0 -0.18420116060E+03 -0.11848947621E+04 -0.86774886724E+02  0.15322974730E+04  0.95000000000E+03 0.  0.
   -2000013    1    1    2    0    0  0.18420116060E+03  0.11848947621E+04 -0.58455757403E+03  0.16377158551E+04  0.95000000000E+03 0.  0.
<mgrwt>
<rscale>  0 0.30981119E+04</rscale>
<asrwt>0</asrwt>
<pdfrwt beam="2">  1        2 0.29548814E+00 0.30981119E+04</pdfrwt>
<pdfrwt beam="1">  1       -2 0.19220622E+00 0.30981119E+04</pdfrwt>
<totfact> 0.94088666E-01</totfact>
</mgrwt>
</event>
<event>
 4    1  0.1308745E-008  0.3346743E+04  0.7816531E-02  0.8151103E-01
         -2   -1    0    0    0  501 -0.00000000000E+00  0.00000000000E+00  0.73384651379E+03  0.73384651379E+03  0.00000000000E+00 0.  1.
          2   -1    0    0  501    0  0.00000000000E+00 -0.00000000000E+00 -0.38157454416E+04  0.38157454416E+04  0.00000000000E+00 0. -1.
    2000013    1    1    2    0    0  0.12066858232E+04 -0.56644642058E+03 -0.10686271851E+04  0.19548443119E+04  0.95000000000E+03 0.  0.
   -2000013    1    1    2    0    0 -0.12066858232E+04  0.56644642058E+03 -0.20132717428E+04  0.25947476435E+04  0.95000000000E+03 0.  0.
<mgrwt>
<rscale>  0 0.33467426E+04</rscale>
<asrwt>0</asrwt>
<pdfrwt beam="2">  1        2 0.58703776E+00 0.33467426E+04</pdfrwt>
<pdfrwt beam="1">  1       -2 0.11289946E+00 0.33467426E+04</pdfrwt>
<totfact> 0.24468018E-01</totfact>
</mgrwt>
</event>
<event>
 4    1  0.1308745E-008  0.2958610E+04  0.7816531E-02  0.8255650E-01
         -2   -1    0    0    0  501 -0.00000000000E+00  0.00000000000E+00  0.13925892541E+04  0.13925892541E+04  0.00000000000E+00 0. -1.
          2   -1    0    0  501    0  0.00000000000E+00 -0.00000000000E+00 -0.15714209302E+04  0.15714209302E+04  0.00000000000E+00 0.  1.
    2000013    1    1    2    0    0  0.44175047431E+03 -0.81818693694E+03  0.56082233566E+03  0.14427733840E+04  0.95000000000E+03 0.  0.
   -2000013    1    1    2    0    0 -0.44175047431E+03  0.81818693694E+03 -0.73965401176E+03  0.15212368003E+04  0.95000000000E+03 0.  0.
<mgrwt>
<rscale>  0 0.29586104E+04</rscale>
<asrwt>0</asrwt>
<pdfrwt beam="2">  1        2 0.24175707E+00 0.29586104E+04</pdfrwt>
<pdfrwt beam="1">  1       -2 0.21424450E+00 0.29586104E+04</pdfrwt>
<totfact> 0.10689058E+00</totfact>
</mgrwt>
</event>
<event>
 4    1  0.1308745E-008  0.2224645E+04  0.7816531E-02  0.8508240E-01
         -2   -1    0    0    0  501 -0.00000000000E+00  0.00000000000E+00  0.58671749792E+03  0.58671749792E+03  0.00000000000E+00 0. -1.
          2   -1    0    0  501    0  0.00000000000E+00 -0.00000000000E+00 -0.21087856664E+04  0.21087856664E+04  0.00000000000E+00 0.  1.
    2000013    1    1    2    0    0  0.34674017553E+03  0.15961666064E+03 -0.12878676641E+04  0.16452383863E+04  0.95000000000E+03 0.  0.
   -2000013    1    1    2    0    0 -0.34674017553E+03 -0.15961666064E+03 -0.23420050444E+03  0.10502647780E+04  0.95000000000E+03 0.  0.
<mgrwt>
<rscale>  0 0.22246451E+04</rscale>
<asrwt>0</asrwt>
<pdfrwt beam="2">  1        2 0.32442857E+00 0.22246451E+04</pdfrwt>
<pdfrwt beam="1">  1       -2 0.90264229E-01 0.22246451E+04</pdfrwt>
<totfact> 0.55622158E+00</totfact>
</mgrwt>
</event>
<event>
 4    1  0.1308745E-008  0.3029886E+04  0.7816531E-02  0.8235248E-01
          2   -1    0    0  501    0  0.00000000000E+00  0.00000000000E+00  0.27382779691E+04  0.27382779691E+04  0.00000000000E+00 0.  1.
         -2   -1    0    0    0  501 -0.00000000000E+00 -0.00000000000E+00 -0.83813690787E+03  0.83813690787E+03  0.00000000000E+00 0. -1.
    2000013    1    1    2    0    0  0.39536596535E+03 -0.10710563887E+04  0.59777956711E+03  0.16010360537E+04  0.95000000000E+03 0.  0.
   -2000013    1    1    2    0    0 -0.39536596535E+03  0.10710563887E+04  0.13023614941E+04  0.19753788233E+04  0.95000000000E+03 0.  0.
<mgrwt>
<rscale>  0 0.30298857E+04</rscale>
<asrwt>0</asrwt>
<pdfrwt beam="1">  1        2 0.42127353E+00 0.30298857E+04</pdfrwt>
<pdfrwt beam="2">  1       -2 0.12894414E+00 0.30298857E+04</pdfrwt>
<totfact> 0.95336952E-01</totfact>
</mgrwt>
</event>
<event>
 4    1  0.1308745E-008  0.2108223E+04  0.7816531E-02  0.8557630E-01
         -1   -1    0    0    0  501 -0.00000000000E+00  0.00000000000E+00  0.80303853193E+03  0.80303853193E+03  0.00000000000E+00 0.  1.
          1   -1    0    0  501    0  0.00000000000E+00 -0.00000000000E+00 -0.13836836321E+04  0.13836836321E+04  0.00000000000E+00 0. -1.
    2000013    1    1    2    0    0  0.17041360427E+03  0.34084785953E+03 -0.55155996113E+03  0.11627280209E+04  0.95000000000E+03 0.  0.
   -2000013    1    1    2    0    0 -0.17041360427E+03 -0.34084785953E+03 -0.29085139044E+02  0.10239941431E+04  0.95000000000E+03 0.  0.
<mgrwt>
<rscale>  0 0.21082232E+04</rscale>
<asrwt>0</asrwt>
<pdfrwt beam="2">  1        1 0.21287440E+00 0.21082232E+04</pdfrwt>
<pdfrwt beam="1">  1       -1 0.12354439E+00 0.21082232E+04</pdfrwt>
<totfact> 0.41773912E+00</totfact>
</mgrwt>
</event>
<event>
 4    1  0.1308745E-008  0.3113952E+04  0.7816531E-02  0.8211919E-01
          1   -1    0    0  501    0  0.00000000000E+00  0.00000000000E+00  0.32182218858E+04  0.32182218858E+04  0.00000000000E+00 0. -1.
         -1   -1    0    0    0  501 -0.00000000000E+00 -0.00000000000E+00 -0.75326490916E+03  0.75326490916E+03  0.00000000000E+00 0.  1.
    2000013    1    1    2    0    0 -0.42300144286E+03 -0.11138023449E+04  0.82477854788E+03  0.17326989170E+04  0.95000000000E+03 0.  0.
   -2000013    1    1    2    0    0  0.42300144286E+03  0.11138023449E+04  0.16401784287E+04  0.22387878779E+04  0.95000000000E+03 0.  0.
<mgrwt>
<rscale>  0 0.31139516E+04</rscale>
<asrwt>0</asrwt>
<pdfrwt beam="1">  1        1 0.49511105E+00 0.31139516E+04</pdfrwt>
<pdfrwt beam="2">  1       -1 0.11588691E+00 0.31139516E+04</pdfrwt>
<totfact> 0.23368727E-01</totfact>
</mgrwt>
</event>
<event>
 4    1  0.1308745E-008  0.2997832E+04  0.7816531E-02  0.8244350E-01
         -2   -1    0    0    0  501 -0.00000000000E+00  0.00000000000E+00  0.97265759841E+03  0.97265759841E+03  0.00000000000E+00 0. -1.
          2   -1    0    0  501    0  0.00000000000E+00 -0.00000000000E+00 -0.23099078786E+04  0.23099078786E+04  0.00000000000E+00 0.  1.
    2000013    1    1    2    0    0  0.68258667624E+03 -0.80910374012E+03 -0.11864892221E+04  0.18522500120E+04  0.95000000000E+03 0.  0.
   -2000013    1    1    2    0    0 -0.68258667624E+03  0.80910374012E+03 -0.15076105813E+03  0.14303154650E+04  0.95000000000E+03 0.  0.
<mgrwt>
<rscale>  0 0.29978322E+04</rscale>
<asrwt>0</asrwt>
<pdfrwt beam="2">  1        2 0.35537044E+00 0.29978322E+04</pdfrwt>
<pdfrwt beam="1">  1       -2 0.14963963E+00 0.29978322E+04</pdfrwt>
<totfact> 0.11552541E+00</totfact>
</mgrwt>
</event>
<event>
 4    1  0.1308745E-008  0.2181994E+04  0.7816531E-02  0.8525960E-01
         -2   -1    0    0    0  501 -0.00000000000E+00  0.00000000000E+00  0.45815055270E+03  0.45815055270E+03  0.00000000000E+00 0. -1.
          2   -1    0    0  501    0  0.00000000000E+00 -0.00000000000E+00 -0.25979973860E+04  0.25979973860E+04  0.00000000000E+00 0.  1.
    2000013    1    1    2    0    0 -0.42888311315E+03 -0.30812153161E+03 -0.12020157658E+04  0.16205620952E+04  0.95000000000E+03 0.  0.
   -2000013    1    1    2    0    0  0.42888311315E+03  0.30812153161E+03 -0.93783106744E+03  0.14355858435E+04  0.95000000000E+03 0.  0.
<mgrwt>
<rscale>  0 0.21819935E+04</rscale>
<asrwt>0</asrwt>
<pdfrwt beam="2">  1        2 0.39969190E+00 0.21819935E+04</pdfrwt>
<pdfrwt beam="1">  1       -2 0.70484701E-01 0.21819935E+04</pdfrwt>
<totfact> 0.51161894E+00</totfact>
</mgrwt>
</event>
<event>
 4    1  0.1308745E-008  0.3939274E+04  0.7816531E-02  0.8016910E-01
         -2   -1    0    0    0  501 -0.00000000000E+00  0.00000000000E+00  0.11261853800E+04  0.11261853800E+04  0.00000000000E+00 0. -1.
          2   -1    0    0  501    0  0.00000000000E+00 -0.00000000000E+00 -0.34447885483E+04  0.34447885483E+04  0.00000000000E+00 0.  1.
    2000013    1    1    2    0    0  0.17087773095E+04  0.10783365670E+03 -0.91199932453E+03  0.21600441567E+04  0.95000000000E+03 0.  0.
   -2000013    1    1    2    0    0 -0.17087773095E+04 -0.10783365670E+03 -0.14066038438E+04  0.24109297717E+04  0.95000000000E+03 0.  0.
<mgrwt>
<rscale>  0 0.39392743E+04</rscale>
<asrwt>0</asrwt>
<pdfrwt beam="2">  1        2 0.52996747E+00 0.39392743E+04</pdfrwt>
<pdfrwt beam="1">  1       -2 0.17325929E+00 0.39392743E+04</pdfrwt>
<totfact> 0.14206597E-01</totfact>
</mgrwt>
</event>
<event>
 4    1  0.1308745E-008  0.3999369E+04  0.7816531E-02  0.8004674E-01
         -1   -1    0    0    0  501 -0.00000000000E+00  0.00000000000E+00  0.17166818535E+04  0.17166818535E+04  0.00000000000E+00 0. -1.
          1   -1    0    0  501    0  0.00000000000E+00 -0.00000000000E+00 -0.23293410588E+04  0.23293410588E+04  0.00000000000E+00 0.  1.
    2000013    1    1    2    0    0 -0.14239693529E+04 -0.19590136558E+03 -0.13331432934E+04  0.21784942286E+04  0.95000000000E+03 0.  0.
   -2000013    1    1    2    0    0  0.14239693529E+04  0.19590136558E+03  0.72048408814E+03  0.18675286837E+04  0.95000000000E+03 0.  0.
<mgrwt>
<rscale>  0 0.39993687E+04</rscale>
<asrwt>0</asrwt>
<pdfrwt beam="2">  1        1 0.35836016E+00 0.39993687E+04</pdfrwt>
<pdfrwt beam="1">  1       -1 0.26410490E+00 0.39993687E+04</pdfrwt>
<totfact> 0.78481216E-02</totfact>
</mgrwt>
</event>
<event>
 4    1  0.1308745E-008  0.2204094E+04  0.7816531E-02  0.8516726E-01
          2   -1    0    0  501    0  0.00000000000E+00  0.00000000000E+00  0.30839719153E+04  0.30839719153E+04  0.00000000000E+00 0.  1.
         -2   -1    0    0    0  501 -0.00000000000E+00 -0.00000000000E+00 -0.39381273920E+03  0.39381273920E+03  0.00000000000E+00 0. -1.
    2000013    1    1    2    0    0  0.45483618918E+03  0.32084295693E+03  0.14189414265E+04  0.17960264291E+04  0.95000000000E+03 0.  0.
   -2000013    1    1    2    0    0 -0.45483618918E+03 -0.32084295693E+03  0.12712177496E+04  0.16817582254E+04  0.95000000000E+03 0.  0.
<mgrwt>
<rscale>  0 0.22040939E+04</rscale>
<asrwt>0</asrwt>
<pdfrwt beam="1">  1        2 0.47445720E+00 0.22040939E+04</pdfrwt>
<pdfrwt beam="2">  1       -2 0.60586577E-01 0.22040939E+04</pdfrwt>
<totfact> 0.35771797E+00</totfact>
</mgrwt>
</event>
<event>
 4    1  0.1308745E-008  0.3061963E+04  0.7816531E-02  0.8226255E-01
          2   -1    0    0  501    0  0.00000000000E+00  0.00000000000E+00  0.16610225183E+04  0.16610225183E+04  0.00000000000E+00 0.  1.
         -2   -1    0    0    0  501 -0.00000000000E+00 -0.00000000000E+00 -0.14111213564E+04  0.14111213564E+04  0.00000000000E+00 0. -1.
    2000013    1    1    2    0    0 -0.39189906956E+03 -0.90096053441E+03 -0.56733606218E+03  0.14797584170E+04  0.95000000000E+03 0.  0.
   -2000013    1    1    2    0    0  0.39189906956E+03  0.90096053441E+03  0.81723722404E+03  0.15923854576E+04  0.95000000000E+03 0.  0.
<mgrwt>
<rscale>  0 0.30619630E+04</rscale>
<asrwt>0</asrwt>
<pdfrwt beam="1">  1        2 0.25554193E+00 0.30619630E+04</pdfrwt>
<pdfrwt beam="2">  1       -2 0.21709559E+00 0.30619630E+04</pdfrwt>
<totfact> 0.90558935E-01</totfact>
</mgrwt>
</event>
<event>
 4    1  0.1308745E-008  0.2512197E+04  0.7816531E-02  0.8398653E-01
         -2   -1    0    0    0  501 -0.00000000000E+00  0.00000000000E+00  0.10714394778E+04  0.10714394778E+04  0.00000000000E+00 0. -1.
          2   -1    0    0  501    0  0.00000000000E+00 -0.00000000000E+00 -0.14725825370E+04  0.14725825370E+04  0.00000000000E+00 0.  1.
    2000013    1    1    2    0    0  0.12493404391E+03 -0.59615602889E+03 -0.75916853514E+03  0.13600909495E+04  0.95000000000E+03 0.  0.
   -2000013    1    1    2    0    0 -0.12493404391E+03  0.59615602889E+03  0.35802547597E+03  0.11839310654E+04  0.95000000000E+03 0.  0.
<mgrwt>
<rscale>  0 0.25121967E+04</rscale>
<asrwt>0</asrwt>
<pdfrwt beam="2">  1        2 0.22655116E+00 0.25121967E+04</pdfrwt>
<pdfrwt beam="1">  1       -2 0.16483684E+00 0.25121967E+04</pdfrwt>
<totfact> 0.27215773E+00</totfact>
</mgrwt>
</event>
<event>
 4    1  0.1308745E-008  0.2410774E+04  0.7816531E-02  0.8435481E-01
         -2   -1    0    0    0  501 -0.00000000000E+00  0.00000000000E+00  0.12318085077E+04  0.12318085077E+04  0.00000000000E+00 0. -1.
          2   -1    0    0  501    0  0.00000000000E+00 -0.00000000000E+00 -0.11795320816E+04  0.11795320816E+04  0.00000000000E+00 0.  1.
    2000013    1    1    2    0    0  0.40124250302E+03 -0.39282056097E+03  0.51117912619E+03  0.12161856924E+04  0.95000000000E+03 0.  0.
   -2000013    1    1    2    0    0 -0.40124250302E+03  0.39282056097E+03 -0.45890270007E+03  0.11951548969E+04  0.95000000000E+03 0.  0.
<mgrwt>
<rscale>  0 0.24107739E+04</rscale>
<asrwt>0</asrwt>
<pdfrwt beam="2">  1        2 0.18146647E+00 0.24107739E+04</pdfrwt>
<pdfrwt beam="1">  1       -2 0.18950900E+00 0.24107739E+04</pdfrwt>
<totfact> 0.27339668E+00</totfact>
</mgrwt>
</event>
<event>
 4    1  0.1308745E-008  0.2359977E+04  0.7816531E-02  0.8454642E-01
          2   -1    0    0  501    0  0.00000000000E+00  0.00000000000E+00  0.14349969195E+04  0.14349969195E+04  0.00000000000E+00 0.  1.
         -2   -1    0    0    0  501 -0.00000000000E+00 -0.00000000000E+00 -0.97029643079E+03  0.97029643079E+03  0.00000000000E+00 0. -1.
    2000013    1    1    2    0    0  0.51293091909E+03 -0.42818512314E+03  0.44475492214E+03  0.12436830658E+04  0.95000000000E+03 0.  0.
   -2000013    1    1    2    0    0 -0.51293091909E+03  0.42818512314E+03  0.19945566617E+02  0.11616102845E+04  0.95000000000E+03 0.  0.
<mgrwt>
<rscale>  0 0.23599766E+04</rscale>
<asrwt>0</asrwt>
<pdfrwt beam="1">  1        2 0.22076876E+00 0.23599766E+04</pdfrwt>
<pdfrwt beam="2">  1       -2 0.14927637E+00 0.23599766E+04</pdfrwt>
<totfact> 0.37843341E+00</totfact>
</mgrwt>
</event>
<event>
 4    1  0.1308745E-008  0.2522634E+04  0.7816531E-02  0.8394966E-01
         -2   -1    0    0    0  501 -0.00000000000E+00  0.00000000000E+00  0.87725264478E+03  0.87725264478E+03  0.00000000000E+00 0. -1.
          2   -1    0    0  501    0  0.00000000000E+00 -0.00000000000E+00 -0.18135254299E+04  0.18135254299E+04  0.00000000000E+00 0.  1.
    2000013    1    1    2    0    0  0.82850493030E+03 -0.14075497806E+02 -0.42286397473E+03  0.13296362210E+04  0.95000000000E+03 0.  0.
   -2000013    1    1    2    0    0 -0.82850493030E+03  0.14075497806E+02 -0.51340881042E+03  0.13611418537E+04  0.95000000000E+03 0.  0.
<mgrwt>
<rscale>  0 0.25226335E+04</rscale>
<asrwt>0</asrwt>
<pdfrwt beam="2">  1        2 0.27900391E+00 0.25226335E+04</pdfrwt>
<pdfrwt beam="1">  1       -2 0.13496195E+00 0.25226335E+04</pdfrwt>
<totfact> 0.29810097E+00</totfact>
</mgrwt>
</event>
<event>
 4    1  0.1308745E-008  0.2516118E+04  0.7816531E-02  0.8397266E-01
         -2   -1    0    0    0  501 -0.00000000000E+00  0.00000000000E+00  0.95633603773E+03  0.95633603773E+03  0.00000000000E+00 0. -1.
          2   -1    0    0  501    0  0.00000000000E+00 -0.00000000000E+00 -0.16549752176E+04  0.16549752176E+04  0.00000000000E+00 0.  1.
    2000013    1    1    2    0    0  0.22307739191E+03  0.75923368328E+03 -0.10811957892E+03  0.12411241485E+04  0.95000000000E+03 0.  0.
   -2000013    1    1    2    0    0 -0.22307739191E+03 -0.75923368328E+03 -0.59051960091E+03  0.13701871068E+04  0.95000000000E+03 0.  0.
<mgrwt>
<rscale>  0 0.25161180E+04</rscale>
<asrwt>0</asrwt>
<pdfrwt beam="2">  1        2 0.25461157E+00 0.25161180E+04</pdfrwt>
<pdfrwt beam="1">  1       -2 0.14712862E+00 0.25161180E+04</pdfrwt>
<totfact> 0.29188098E+00</totfact>
</mgrwt>
</event>
<event>
 4    1  0.1308745E-008  0.2291753E+04  0.7816531E-02  0.8481180E-01
         -1   -1    0    0    0  501 -0.00000000000E+00  0.00000000000E+00  0.17744834372E+04  0.17744834372E+04  0.00000000000E+00 0. -1.
          1   -1    0    0  501    0  0.00000000000E+00 -0.00000000000E+00 -0.73995230030E+03  0.73995230030E+03  0.00000000000E+00 0.  1.
    2000013    1    1    2    0    0 -0.50181461627E+03 -0.38686402903E+03  0.41288228607E+03  0.12142707557E+04  0.95000000000E+03 0.  0.
   -2000013    1    1    2    0    0  0.50181461627E+03  0.38686402903E+03  0.62164885080E+03  0.13001649817E+04  0.95000000000E+03 0.  0.
<mgrwt>
<rscale>  0 0.22917531E+04</rscale>
<asrwt>0</asrwt>
<pdfrwt beam="2">  1        1 0.11383882E+00 0.22917531E+04</pdfrwt>
<pdfrwt beam="1">  1       -1 0.27299745E+00 0.22917531E+04</pdfrwt>
<totfact> 0.11179100E+00</totfact>
</mgrwt>
</event>
<event>
 4    1  0.1308745E-008  0.2017877E+04  0.7816531E-02  0.8598308E-01
         -2   -1    0    0    0  501 -0.00000000000E+00  0.00000000000E+00  0.87177148592E+03  0.87177148592E+03  0.00000000000E+00 0. -1.
          2   -1    0    0  501    0  0.00000000000E+00 -0.00000000000E+00 -0.11676876123E+04  0.11676876123E+04  0.00000000000E+00 0.  1.
    2000013    1    1    2    0    0 -0.18179790266E+03  0.28656101199E+03 -0.13077404325E+03  0.10172362269E+04  0.95000000000E+03 0.  0.
   -2000013    1    1    2    0    0  0.18179790266E+03 -0.28656101199E+03 -0.16514208316E+03  0.10222228713E+04  0.95000000000E+03 0.  0.
<mgrwt>
<rscale>  0 0.20178769E+04</rscale>
<asrwt>0</asrwt>
<pdfrwt beam="2">  1        2 0.17964425E+00 0.20178769E+04</pdfrwt>
<pdfrwt beam="1">  1       -2 0.13411869E+00 0.20178769E+04</pdfrwt>
<totfact> 0.73726893E+00</totfact>
</mgrwt>
</event>
<event>
 4    1  0.1308745E-008  0.2218814E+04  0.7816531E-02  0.8510638E-01
          1   -1    0    0  501    0  0.00000000000E+00  0.00000000000E+00  0.14001085573E+04  0.14001085573E+04  0.00000000000E+00 0. -1.
         -1   -1    0    0    0  501 -0.00000000000E+00 -0.00000000000E+00 -0.87906288822E+03  0.87906288822E+03  0.00000000000E+00 0.  1.
    2000013    1    1    2    0    0  0.18857765238E+03  0.25104224613E+03 -0.23178462448E+03  0.10270383890E+04  0.95000000000E+03 0.  0.
   -2000013    1    1    2    0    0 -0.18857765238E+03 -0.25104224613E+03  0.75283029355E+03  0.12521330565E+04  0.95000000000E+03 0.  0.
<mgrwt>
<rscale>  0 0.22188136E+04</rscale>
<asrwt>0</asrwt>
<pdfrwt beam="1">  1        1 0.21540132E+00 0.22188136E+04</pdfrwt>
<pdfrwt beam="2">  1       -1 0.13524044E+00 0.22188136E+04</pdfrwt>
<totfact> 0.32062399E+00</totfact>
</mgrwt>
</event>
<event>
 4    1  0.1308745E-008  0.4491541E+04  0.7816531E-02  0.7912119E-01
          2   -1    0    0  501    0  0.00000000000E+00  0.00000000000E+00  0.27448430092E+04  0.27448430092E+04  0.00000000000E+00 0.  1.
         -2   -1    0    0    0  501 -0.00000000000E+00 -0.00000000000E+00 -0.18374405908E+04  0.18374405908E+04  0.00000000000E+00 0. -1.
    2000013    1    1    2    0    0  0.42808172821E+03 -0.17161201691E+04  0.14803435034E+04  0.24944416788E+04  0.95000000000E+03 0.  0.
   -2000013    1    1    2    0    0 -0.42808172821E+03  0.17161201691E+04 -0.57294108508E+03  0.20878419212E+04  0.95000000000E+03 0.  0.
<mgrwt>
<rscale>  0 0.44915414E+04</rscale>
<asrwt>0</asrwt>
<pdfrwt beam="1">  1        2 0.42228354E+00 0.44915414E+04</pdfrwt>
<pdfrwt beam="2">  1       -2 0.28268316E+00 0.44915414E+04</pdfrwt>
<totfact> 0.76753120E-02</totfact>
</mgrwt>
</event>
<event>
 4    1  0.1308745E-008  0.3226714E+04  0.7816531E-02  0.8181797E-01
          2   -1    0    0  501    0  0.00000000000E+00  0.00000000000E+00  0.30883990067E+04  0.30883990067E+04  0.00000000000E+00 0.  1.
         -2   -1    0    0    0  501 -0.00000000000E+00 -0.00000000000E+00 -0.84280596961E+03  0.84280596961E+03  0.00000000000E+00 0. -1.
    2000013    1    1    2    0    0  0.62239396608E+03 -0.11443960109E+04  0.10517077773E+04  0.19249949942E+04  0.95000000000E+03 0.  0.
   -2000013    1    1    2    0    0 -0.62239396608E+03  0.11443960109E+04  0.11938852597E+04  0.20062099821E+04  0.95000000000E+03 0.  0.
<mgrwt>
<rscale>  0 0.32267142E+04</rscale>
<asrwt>0</asrwt>
<pdfrwt beam="1">  1        2 0.47513830E+00 0.32267142E+04</pdfrwt>
<pdfrwt beam="2">  1       -2 0.12966246E+00 0.32267142E+04</pdfrwt>
<totfact> 0.56180333E-01</totfact>
</mgrwt>
</event>
<event>
 4    1  0.1308745E-008  0.2574648E+04  0.7816531E-02  0.8376864E-01
          2   -1    0    0  501    0  0.00000000000E+00  0.00000000000E+00  0.24999310243E+04  0.24999310243E+04  0.00000000000E+00 0.  1.
         -2   -1    0    0    0  501 -0.00000000000E+00 -0.00000000000E+00 -0.66289941532E+03  0.66289941532E+03  0.00000000000E+00 0. -1.
    2000013    1    1    2    0    0  0.70809965806E+03  0.30121410347E+03  0.42320787137E+03  0.12937310247E+04  0.95000000000E+03 0.  0.
   -2000013    1    1    2    0    0 -0.70809965806E+03 -0.30121410347E+03  0.14138237377E+04  0.18690994150E+04  0.95000000000E+03 0.  0.
<mgrwt>
<rscale>  0 0.25746478E+04</rscale>
<asrwt>0</asrwt>
<pdfrwt beam="1">  1        2 0.38460477E+00 0.25746478E+04</pdfrwt>
<pdfrwt beam="2">  1       -2 0.10198453E+00 0.25746478E+04</pdfrwt>
<totfact> 0.24319664E+00</totfact>
</mgrwt>
</event>
<event>
 4    1  0.1308745E-008  0.3133996E+04  0.7816531E-02  0.8206470E-01
          2   -1    0    0  501    0  0.00000000000E+00  0.00000000000E+00  0.17151453726E+04  0.17151453726E+04  0.00000000000E+00 0.  1.
         -2   -1    0    0    0  501 -0.00000000000E+00 -0.00000000000E+00 -0.14316466117E+04  0.14316466117E+04  0.00000000000E+00 0. -1.
    2000013    1    1    2    0    0  0.11178547963E+04  0.33026907149E+03  0.58434968385E+03  0.16132704542E+04  0.95000000000E+03 0.  0.
   -2000013    1    1    2    0    0 -0.11178547963E+04 -0.33026907149E+03 -0.30085092297E+03  0.15335215301E+04  0.95000000000E+03 0.  0.
<mgrwt>
<rscale>  0 0.31339956E+04</rscale>
<asrwt>0</asrwt>
<pdfrwt beam="1">  1        2 0.26386852E+00 0.31339956E+04</pdfrwt>
<pdfrwt beam="2">  1       -2 0.22025333E+00 0.31339956E+04</pdfrwt>
<totfact> 0.80195211E-01</totfact>
</mgrwt>
</event>
<event>
 4    1  0.1308745E-008  0.2473190E+04  0.7816531E-02  0.8412600E-01
         -2   -1    0    0    0  501 -0.00000000000E+00  0.00000000000E+00  0.50724216691E+03  0.50724216691E+03  0.00000000000E+00 0. -1.
          2   -1    0    0  501    0  0.00000000000E+00 -0.00000000000E+00 -0.30146677628E+04  0.30146677628E+04  0.00000000000E+00 0.  1.
    2000013    1    1    2    0    0 -0.44409638928E+00 -0.74965204742E+03 -0.16159002863E+04  0.20188145345E+04  0.95000000000E+03 0.  0.
   -2000013    1    1    2    0    0  0.44409638928E+00  0.74965204742E+03 -0.89152530952E+03  0.15030953952E+04  0.95000000000E+03 0.  0.
<mgrwt>
<rscale>  0 0.24731895E+04</rscale>
<asrwt>0</asrwt>
<pdfrwt beam="2">  1        2 0.46379504E+00 0.24731895E+04</pdfrwt>
<pdfrwt beam="1">  1       -2 0.78037257E-01 0.24731895E+04</pdfrwt>
<totfact> 0.22275175E+00</totfact>
</mgrwt>
</event>
<event>
 4    1  0.1308745E-008  0.3012712E+04  0.7816531E-02  0.8240110E-01
         -2   -1    0    0    0  501 -0.00000000000E+00  0.00000000000E+00  0.81789010729E+03  0.81789010729E+03  0.00000000000E+00 0. -1.
          2   -1    0    0  501    0  0.00000000000E+00 -0.00000000000E+00 -0.27743429666E+04  0.27743429666E+04  0.00000000000E+00 0.  1.
    2000013    1    1    2    0    0 -0.10123296144E+04 -0.58336722203E+03 -0.10240834790E+04  0.18210918527E+04  0.95000000000E+03 0.  0.
   -2000013    1    1    2    0    0  0.10123296144E+04  0.58336722203E+03 -0.93236938032E+03  0.17711412212E+04  0.95000000000E+03 0.  0.
<mgrwt>
<rscale>  0 0.30127115E+04</rscale>
<asrwt>0</asrwt>
<pdfrwt beam="2">  1        2 0.42682200E+00 0.30127115E+04</pdfrwt>
<pdfrwt beam="1">  1       -2 0.12582925E+00 0.30127115E+04</pdfrwt>
<totfact> 0.96597396E-01</totfact>
</mgrwt>
</event>
<event>
 4    1  0.1308745E-008  0.3026754E+04  0.7816531E-02  0.8236132E-01
          2   -1    0    0  501    0  0.00000000000E+00  0.00000000000E+00  0.17658547308E+04  0.17658547308E+04  0.00000000000E+00 0.  1.
         -2   -1    0    0    0  501 -0.00000000000E+00 -0.00000000000E+00 -0.12969978329E+04  0.12969978329E+04  0.00000000000E+00 0. -1.
    2000013    1    1    2    0    0 -0.10616311134E+04  0.15233563143E+03 -0.25876817717E+03  0.14559284787E+04  0.95000000000E+03 0.  0.
   -2000013    1    1    2    0    0  0.10616311134E+04 -0.15233563143E+03  0.72762507508E+03  0.16069240851E+04  0.95000000000E+03 0.  0.
<mgrwt>
<rscale>  0 0.30267539E+04</rscale>
<asrwt>0</asrwt>
<pdfrwt beam="1">  1        2 0.27166996E+00 0.30267539E+04</pdfrwt>
<pdfrwt beam="2">  1       -2 0.19953813E+00 0.30267539E+04</pdfrwt>
<totfact> 0.10312865E+00</totfact>
</mgrwt>
</event>
<event>
 4    1  0.1308745E-008  0.3171566E+04  0.7816531E-02  0.8196367E-01
          2   -1    0    0  501    0  0.00000000000E+00  0.00000000000E+00  0.35733758806E+04  0.35733758806E+04  0.00000000000E+00 0. -1.
         -2   -1    0    0    0  501 -0.00000000000E+00 -0.00000000000E+00 -0.70373439878E+03  0.70373439878E+03  0.00000000000E+00 0.  1.
    2000013    1    1    2    0    0  0.11671238129E+04 -0.41082022921E+02  0.76277068184E+03  0.16876566121E+04  0.95000000000E+03 0.  0.
   -2000013    1    1    2    0    0 -0.11671238129E+04  0.41082022921E+02  0.21068708000E+04  0.25894536673E+04  0.95000000000E+03 0.  0.
<mgrwt>
<rscale>  0 0.31715659E+04</rscale>
<asrwt>0</asrwt>
<pdfrwt beam="1">  1        2 0.54975012E+00 0.31715659E+04</pdfrwt>
<pdfrwt beam="2">  1       -2 0.10826683E+00 0.31715659E+04</pdfrwt>
<totfact> 0.41519498E-01</totfact>
</mgrwt>
</event>
<event>
 4    1  0.1308745E-008  0.2706236E+04  0.7816531E-02  0.8332984E-01
          2   -1    0    0  501    0  0.00000000000E+00  0.00000000000E+00  0.11859945450E+04  0.11859945450E+04  0.00000000000E+00 0.  1.
         -2   -1    0    0    0  501 -0.00000000000E+00 -0.00000000000E+00 -0.15437917480E+04  0.15437917480E+04  0.00000000000E+00 0. -1.
    2000013    1    1    2    0    0  0.34509148420E+03  0.48191546733E+02  0.72726073534E+03  0.12461214768E+04  0.95000000000E+03 0.  0.
   -2000013    1    1    2    0    0 -0.34509148420E+03 -0.48191546733E+02 -0.10850579383E+04  0.14836648163E+04  0.95000000000E+03 0.  0.
<mgrwt>
<rscale>  0 0.27062362E+04</rscale>
<asrwt>0</asrwt>
<pdfrwt beam="1">  1        2 0.18246070E+00 0.27062362E+04</pdfrwt>
<pdfrwt beam="2">  1       -2 0.23750642E+00 0.27062362E+04</pdfrwt>
<totfact> 0.12997355E+00</totfact>
</mgrwt>
</event>
<event>
 4    1  0.1308745E-008  0.2484819E+04  0.7816531E-02  0.8408414E-01
         -1   -1    0    0    0  501 -0.00000000000E+00  0.00000000000E+00  0.19021967731E+04  0.19021967731E+04  0.00000000000E+00 0. -1.
          1   -1    0    0  501    0  0.00000000000E+00 -0.00000000000E+00 -0.81147334148E+03  0.81147334148E+03  0.00000000000E+00 0.  1.
    2000013    1    1    2    0    0 -0.19464600753E+03  0.67928243874E+03  0.13416011816E+03  0.11915580712E+04  0.95000000000E+03 0.  0.
   -2000013    1    1    2    0    0  0.19464600753E+03 -0.67928243874E+03  0.95656331347E+03  0.15221120433E+04  0.95000000000E+03 0.  0.
<mgrwt>
<rscale>  0 0.24848195E+04</rscale>
<asrwt>0</asrwt>
<pdfrwt beam="2">  1        1 0.12484205E+00 0.24848195E+04</pdfrwt>
<pdfrwt beam="1">  1       -1 0.29264566E+00 0.24848195E+04</pdfrwt>
<totfact> 0.70847395E-01</totfact>
</mgrwt>
</event>
<event>
 4    1  0.1308745E-008  0.2224325E+04  0.7816531E-02  0.8508371E-01
          2   -1    0    0  501    0  0.00000000000E+00  0.00000000000E+00  0.28453650395E+04  0.28453650395E+04  0.00000000000E+00 0.  1.
         -2   -1    0    0    0  501 -0.00000000000E+00 -0.00000000000E+00 -0.43470872023E+03  0.43470872023E+03  0.00000000000E+00 0. -1.
    2000013    1    1    2    0    0 -0.45352832795E+03 -0.25772292324E+03  0.83727094650E+03  0.13695370339E+04  0.95000000000E+03 0.  0.
   -2000013    1    1    2    0    0  0.45352832795E+03  0.25772292324E+03  0.15733853728E+04  0.19105367258E+04  0.95000000000E+03 0.  0.
<mgrwt>
<rscale>  0 0.22243246E+04</rscale>
<asrwt>0</asrwt>
<pdfrwt beam="1">  1        2 0.43774846E+00 0.22243246E+04</pdfrwt>
<pdfrwt beam="2">  1       -2 0.66878266E-01 0.22243246E+04</pdfrwt>
<totfact> 0.40668069E+00</totfact>
</mgrwt>
</event>
<event>
 4    1  0.1308745E-008  0.3548095E+04  0.7816531E-02  0.8102486E-01
         -2   -1    0    0    0  501 -0.00000000000E+00  0.00000000000E+00  0.29565828723E+04  0.29565828723E+04  0.00000000000E+00 0. -1.
          2   -1    0    0  501    0  0.00000000000E+00 -0.00000000000E+00 -0.10644873024E+04  0.10644873024E+04  0.00000000000E+00 0.  1.
    2000013    1    1    2    0    0  0.14774093143E+04  0.12405022171E+03  0.70135336053E+03  0.18953952822E+04  0.95000000000E+03 0.  0.
   -2000013    1    1    2    0    0 -0.14774093143E+04 -0.12405022171E+03  0.11907422094E+04  0.21256748925E+04  0.95000000000E+03 0.  0.
<mgrwt>
<rscale>  0 0.35480952E+04</rscale>
<asrwt>0</asrwt>
<pdfrwt beam="2">  1        2 0.16376728E+00 0.35480952E+04</pdfrwt>
<pdfrwt beam="1">  1       -2 0.45485890E+00 0.35480952E+04</pdfrwt>
<totfact> 0.60420662E-02</totfact>
</mgrwt>
</event>
<event>
 4    1  0.1308745E-008  0.2614724E+04  0.7816531E-02  0.8363217E-01
          2   -1    0    0  501    0  0.00000000000E+00  0.00000000000E+00  0.32825416855E+04  0.32825416855E+04  0.00000000000E+00 0.  1.
         -2   -1    0    0    0  501 -0.00000000000E+00 -0.00000000000E+00 -0.52069278923E+03  0.52069278923E+03  0.00000000000E+00 0. -1.
    2000013    1    1    2    0    0 -0.71641442746E+03  0.36082064451E+03  0.19686301908E+04  0.23283998792E+04  0.95000000000E+03 0.  0.
   -2000013    1    1    2    0    0  0.71641442746E+03 -0.36082064451E+03  0.79321870542E+03  0.14748345955E+04  0.95000000000E+03 0.  0.
<mgrwt>
<rscale>  0 0.26147243E+04</rscale>
<asrwt>0</asrwt>
<pdfrwt beam="1">  1        2 0.50500640E+00 0.26147243E+04</pdfrwt>
<pdfrwt beam="2">  1       -2 0.80106585E-01 0.26147243E+04</pdfrwt>
<totfact> 0.13933332E+00</totfact>
</mgrwt>
</event>
<event>
 4    1  0.1308745E-008  0.3300712E+04  0.7816531E-02  0.8162714E-01
         -2   -1    0    0    0  501 -0.00000000000E+00  0.00000000000E+00  0.26811464938E+04  0.26811464938E+04  0.00000000000E+00 0. -1.
          2   -1    0    0  501    0  0.00000000000E+00 -0.00000000000E+00 -0.10158619263E+04  0.10158619263E+04  0.00000000000E+00 0.  1.
    2000013    1    1    2    0    0  0.96538595708E+03  0.24480657363E+02  0.18884802592E+04  0.23240970372E+04  0.95000000000E+03 0.  0.
   -2000013    1    1    2    0    0 -0.96538595708E+03 -0.24480657363E+02 -0.22319569176E+03  0.13729113830E+04  0.95000000000E+03 0.  0.
<mgrwt>
<rscale>  0 0.33007118E+04</rscale>
<asrwt>0</asrwt>
<pdfrwt beam="2">  1        2 0.15628645E+00 0.33007118E+04</pdfrwt>
<pdfrwt beam="1">  1       -2 0.41248407E+00 0.33007118E+04</pdfrwt>
<totfact> 0.12616793E-01</totfact>
</mgrwt>
</event>
<event>
 4    1  0.1308745E-008  0.2077064E+04  0.7816531E-02  0.8571415E-01
          2   -1    0    0  501    0  0.00000000000E+00  0.00000000000E+00  0.11808782481E+04  0.11808782481E+04  0.00000000000E+00 0.  1.
         -2   -1    0    0    0  501 -0.00000000000E+00 -0.00000000000E+00 -0.91334436500E+03  0.91334436500E+03  0.00000000000E+00 0. -1.
    2000013    1    1    2    0    0  0.12805051277E+03 -0.32045226338E+03  0.37440552912E+03  0.10778525350E+04  0.95000000000E+03 0.  0.
   -2000013    1    1    2    0    0 -0.12805051277E+03  0.32045226338E+03 -0.10687164603E+03  0.10163700781E+04  0.95000000000E+03 0.  0.
<mgrwt>
<rscale>  0 0.20770638E+04</rscale>
<asrwt>0</asrwt>
<pdfrwt beam="1">  1        2 0.18167358E+00 0.20770638E+04</pdfrwt>
<pdfrwt beam="2">  1       -2 0.14051452E+00 0.20770638E+04</pdfrwt>
<totfact> 0.63883773E+00</totfact>
</mgrwt>
</event>
<event>
 4    1  0.1308745E-008  0.2277223E+04  0.7816531E-02  0.8486956E-01
         -2   -1    0    0    0  501 -0.00000000000E+00  0.00000000000E+00  0.34726758303E+03  0.34726758303E+03  0.00000000000E+00 0. -1.
          2   -1    0    0  501    0  0.00000000000E+00 -0.00000000000E+00 -0.37332480626E+04  0.37332480626E+04  0.00000000000E+00 0.  1.
    2000013    1    1    2    0    0  0.37253243942E+03  0.48911977499E+03 -0.19190620300E+04  0.22278504546E+04  0.95000000000E+03 0.  0.
   -2000013    1    1    2    0    0 -0.37253243942E+03 -0.48911977499E+03 -0.14669184496E+04  0.18526651911E+04  0.95000000000E+03 0.  0.
<mgrwt>
<rscale>  0 0.22772229E+04</rscale>
<asrwt>0</asrwt>
<pdfrwt beam="2">  1        2 0.57434585E+00 0.22772229E+04</pdfrwt>
<pdfrwt beam="1">  1       -2 0.53425782E-01 0.22772229E+04</pdfrwt>
<totfact> 0.16609174E+00</totfact>
</mgrwt>
</event>
<event>
 4    1  0.1308745E-008  0.5243334E+04  0.7816531E-02  0.7792029E-01
          2   -1    0    0  501    0  0.00000000000E+00  0.00000000000E+00  0.15457822616E+04  0.15457822616E+04  0.00000000000E+00 0. -1.
         -2   -1    0    0    0  501 -0.00000000000E+00 -0.00000000000E+00 -0.44463819777E+04  0.44463819777E+04  0.00000000000E+00 0.  1.
    2000013    1    1    2    0    0 -0.19906413004E+04 -0.74393537148E+03 -0.72012211007E+02  0.23289006811E+04  0.95000000000E+03 0.  0.
   -2000013    1    1    2    0    0  0.19906413004E+04  0.74393537148E+03 -0.28285875051E+04  0.36632635583E+04  0.95000000000E+03 0.  0.
<mgrwt>
<rscale>  0 0.52433342E+04</rscale>
<asrwt>0</asrwt>
<pdfrwt beam="1">  1        2 0.23781265E+00 0.52433342E+04</pdfrwt>
<pdfrwt beam="2">  1       -2 0.68405877E+00 0.52433342E+04</pdfrwt>
<totfact> 0.22342996E-03</totfact>
</mgrwt>
</event>
<event>
 4    1  0.1308745E-008  0.2644548E+04  0.7816531E-02  0.8353225E-01
          2   -1    0    0  501    0  0.00000000000E+00  0.00000000000E+00  0.19649705146E+04  0.19649705146E+04  0.00000000000E+00 0.  1.
         -2   -1    0    0    0  501 -0.00000000000E+00 -0.00000000000E+00 -0.88978892118E+03  0.88978892118E+03  0.00000000000E+00 0. -1.
    2000013    1    1    2    0    0  0.44105972377E+03 -0.76831405119E+03  0.80435516252E+03  0.15278505780E+04  0.95000000000E+03 0.  0.
   -2000013    1    1    2    0    0 -0.44105972377E+03  0.76831405119E+03  0.27082643088E+03  0.13269088578E+04  0.95000000000E+03 0.  0.
<mgrwt>
<rscale>  0 0.26445484E+04</rscale>
<asrwt>0</asrwt>
<pdfrwt beam="1">  1        2 0.30230316E+00 0.26445484E+04</pdfrwt>
<pdfrwt beam="2">  1       -2 0.13689060E+00 0.26445484E+04</pdfrwt>
<totfact> 0.23446499E+00</totfact>
</mgrwt>
</event>
<event>
 4    1  0.1308745E-008  0.2181466E+04  0.7816531E-02  0.8526182E-01
         -2   -1    0    0    0  501 -0.00000000000E+00  0.00000000000E+00  0.40640650096E+03  0.40640650096E+03  0.00000000000E+00 0. -1.
          2   -1    0    0  501    0  0.00000000000E+00 -0.00000000000E+00 -0.29273609531E+04  0.29273609531E+04  0.00000000000E+00 0.  1.
    2000013    1    1    2    0    0  0.41139647409E+03 -0.32629446390E+03 -0.10967119483E+04  0.15430464133E+04  0.95000000000E+03 0.  0.
   -2000013    1    1    2    0    0 -0.41139647409E+03  0.32629446390E+03 -0.14242425038E+04  0.17907210408E+04  0.95000000000E+03 0.  0.
<mgrwt>
<rscale>  0 0.21814660E+04</rscale>
<asrwt>0</asrwt>
<pdfrwt beam="2">  1        2 0.45036320E+00 0.21814660E+04</pdfrwt>
<pdfrwt beam="1">  1       -2 0.62524080E-01 0.21814660E+04</pdfrwt>
<totfact> 0.42018376E+00</totfact>
</mgrwt>
</event>
<event>
 4    1  0.1308745E-008  0.2358196E+04  0.7816531E-02  0.8455322E-01
          2   -1    0    0  501    0  0.00000000000E+00  0.00000000000E+00  0.94269365937E+03  0.94269365937E+03  0.00000000000E+00 0.  1.
         -2   -1    0    0    0  501 -0.00000000000E+00 -0.00000000000E+00 -0.14747864498E+04  0.14747864498E+04  0.00000000000E+00 0. -1.
    2000013    1    1    2    0    0  0.97962180041E+02 -0.68093822338E+03 -0.38948267578E+03  0.12359086566E+04  0.95000000000E+03 0.  0.
   -2000013    1    1    2    0    0 -0.97962180041E+02  0.68093822338E+03 -0.14261011469E+03  0.11815714526E+04  0.95000000000E+03 0.  0.
<mgrwt>
<rscale>  0 0.23581958E+04</rscale>
<asrwt>0</asrwt>
<pdfrwt beam="1">  1        2 0.14502980E+00 0.23581958E+04</pdfrwt>
<pdfrwt beam="2">  1       -2 0.22689022E+00 0.23581958E+04</pdfrwt>
<totfact> 0.22146632E+00</totfact>
</mgrwt>
</event>
<event>
 4    1  0.1308745E-008  0.2719756E+04  0.7816531E-02  0.8328623E-01
         -1   -1    0    0    0  501 -0.00000000000E+00  0.00000000000E+00  0.10616070460E+04  0.10616070460E+04  0.00000000000E+00 0. -1.
          1   -1    0    0  501    0  0.00000000000E+00 -0.00000000000E+00 -0.17419521016E+04  0.17419521016E+04  0.00000000000E+00 0.  1.
    2000013    1    1    2    0    0 -0.43433503583E+03 -0.84395009361E+03 -0.11940061650E+03  0.13482044322E+04  0.95000000000E+03 0.  0.
   -2000013    1    1    2    0    0  0.43433503583E+03  0.84395009361E+03 -0.56094443902E+03  0.14553547154E+04  0.95000000000E+03 0.  0.
<mgrwt>
<rscale>  0 0.27197563E+04</rscale>
<asrwt>0</asrwt>
<pdfrwt beam="2">  1        1 0.26799263E+00 0.27197563E+04</pdfrwt>
<pdfrwt beam="1">  1       -1 0.16332416E+00 0.27197563E+04</pdfrwt>
<totfact> 0.10728981E+00</totfact>
</mgrwt>
</event>
<event>
 4    1  0.1308745E-008  0.3542475E+04  0.7816531E-02  0.8103797E-01
          2   -1    0    0  501    0  0.00000000000E+00  0.00000000000E+00  0.23072377635E+04  0.23072377635E+04  0.00000000000E+00 0.  1.
         -2   -1    0    0    0  501 -0.00000000000E+00 -0.00000000000E+00 -0.13597569832E+04  0.13597569832E+04  0.00000000000E+00 0. -1.
    2000013    1    1    2    0    0  0.38302265827E+03  0.13752501941E+04  0.93291240851E+03  0.19521385748E+04  0.95000000000E+03 0.  0.
   -2000013    1    1    2    0    0 -0.38302265827E+03 -0.13752501941E+04  0.14568371852E+02  0.17148561720E+04  0.95000000000E+03 0.  0.
<mgrwt>
<rscale>  0 0.35424752E+04</rscale>
<asrwt>0</asrwt>
<pdfrwt beam="1">  1        2 0.35495966E+00 0.35424752E+04</pdfrwt>
<pdfrwt beam="2">  1       -2 0.20919338E+00 0.35424752E+04</pdfrwt>
<totfact> 0.42617177E-01</totfact>
</mgrwt>
</event>
<event>
 4    1  0.1308745E-008  0.2864499E+04  0.7816531E-02  0.8283519E-01
         -2   -1    0    0    0  501 -0.00000000000E+00  0.00000000000E+00  0.85061022296E+03  0.85061022296E+03  0.00000000000E+00 0. -1.
          2   -1    0    0  501    0  0.00000000000E+00 -0.00000000000E+00 -0.24116089108E+04  0.24116089108E+04  0.00000000000E+00 0.  1.
    2000013    1    1    2    0    0 -0.85841707896E+03  0.55725797477E+03 -0.11431866248E+04  0.18046584139E+04  0.95000000000E+03 0.  0.
   -2000013    1    1    2    0    0  0.85841707896E+03 -0.55725797477E+03 -0.41781206301E+03  0.14575607198E+04  0.95000000000E+03 0.  0.
<mgrwt>
<rscale>  0 0.28644994E+04</rscale>
<asrwt>0</asrwt>
<pdfrwt beam="2">  1        2 0.37101675E+00 0.28644994E+04</pdfrwt>
<pdfrwt beam="1">  1       -2 0.13086311E+00 0.28644994E+04</pdfrwt>
<totfact> 0.14469792E+00</totfact>
</mgrwt>
</event>
<event>
 4    1  0.1308745E-008  0.2000287E+04  0.7816531E-02  0.8606486E-01
          2   -1    0    0  501    0  0.00000000000E+00  0.00000000000E+00  0.33446328565E+04  0.33446328565E+04  0.00000000000E+00 0.  1.
         -2   -1    0    0    0  501 -0.00000000000E+00 -0.00000000000E+00 -0.29907238604E+03  0.29907238604E+03  0.00000000000E+00 0. -1.
    2000013    1    1    2    0    0 -0.28923347666E+03 -0.27253439517E+02  0.17335547184E+04  0.19980267055E+04  0.95000000000E+03 0.  0.
   -2000013    1    1    2    0    0  0.28923347666E+03  0.27253439517E+02  0.13120057520E+04  0.16456785370E+04  0.95000000000E+03 0.  0.
<mgrwt>
<rscale>  0 0.20002873E+04</rscale>
<asrwt>0</asrwt>
<pdfrwt beam="1">  1        2 0.51455887E+00 0.20002873E+04</pdfrwt>
<pdfrwt beam="2">  1       -2 0.46011139E-01 0.20002873E+04</pdfrwt>
<totfact> 0.43452924E+00</totfact>
</mgrwt>
</event>
<event>
 4    1  0.1308745E-008  0.3630241E+04  0.7816531E-02  0.8083600E-01
          1   -1    0    0  501    0  0.00000000000E+00  0.00000000000E+00  0.39601438264E+04  0.39601438264E+04  0.00000000000E+00 0.  1.
         -1   -1    0    0    0  501 -0.00000000000E+00 -0.00000000000E+00 -0.83195504822E+03  0.83195504822E+03  0.00000000000E+00 0. -1.
    2000013    1    1    2    0    0  0.31603841855E+03 -0.14895542200E+04  0.12061938363E+04  0.21624189296E+04  0.95000000000E+03 0.  0.
   -2000013    1    1    2    0    0 -0.31603841855E+03  0.14895542200E+04  0.19219949419E+04  0.26296799450E+04  0.95000000000E+03 0.  0.
<mgrwt>
<rscale>  0 0.36302406E+04</rscale>
<asrwt>0</asrwt>
<pdfrwt beam="1">  1        1 0.60925289E+00 0.36302406E+04</pdfrwt>
<pdfrwt beam="2">  1       -1 0.12799309E+00 0.36302406E+04</pdfrwt>
<totfact> 0.44143678E-02</totfact>
</mgrwt>
</event>
<event>
 4    1  0.1308745E-008  0.3108403E+04  0.7816531E-02  0.8213435E-01
         -2   -1    0    0    0  501 -0.00000000000E+00  0.00000000000E+00  0.86717660175E+03  0.86717660175E+03  0.00000000000E+00 0. -1.
          2   -1    0    0  501    0  0.00000000000E+00 -0.00000000000E+00 -0.27855257671E+04  0.27855257671E+04  0.00000000000E+00 0.  1.
    2000013    1    1    2    0    0  0.37174224256E+02  0.90474273750E+03 -0.19374819424E+04  0.23401447864E+04  0.95000000000E+03 0.  0.
   -2000013    1    1    2    0    0 -0.37174224256E+02 -0.90474273750E+03  0.19132777119E+02  0.13125575824E+04  0.95000000000E+03 0.  0.
<mgrwt>
<rscale>  0 0.31084033E+04</rscale>
<asrwt>0</asrwt>
<pdfrwt beam="2">  1        2 0.42854243E+00 0.31084033E+04</pdfrwt>
<pdfrwt beam="1">  1       -2 0.13341178E+00 0.31084033E+04</pdfrwt>
<totfact> 0.81362941E-01</totfact>
</mgrwt>
</event>
<event>
 4    1  0.1308745E-008  0.2166115E+04  0.7816531E-02  0.8532666E-01
         -2   -1    0    0    0  501 -0.00000000000E+00  0.00000000000E+00  0.88000668316E+03  0.88000668316E+03  0.00000000000E+00 0. -1.
          2   -1    0    0  501    0  0.00000000000E+00 -0.00000000000E+00 -0.13329594945E+04  0.13329594945E+04  0.00000000000E+00 0.  1.
    2000013    1    1    2    0    0 -0.21014124103E+03 -0.34974176887E+03 -0.55599676817E+03  0.11739297476E+04  0.95000000000E+03 0.  0.
   -2000013    1    1    2    0    0  0.21014124103E+03  0.34974176887E+03  0.10304395679E+03  0.10390364301E+04  0.95000000000E+03 0.  0.
<mgrwt>
<rscale>  0 0.21661147E+04</rscale>
<asrwt>0</asrwt>
<pdfrwt beam="2">  1        2 0.20507069E+00 0.21661147E+04</pdfrwt>
<pdfrwt beam="1">  1       -2 0.13538564E+00 0.21661147E+04</pdfrwt>
<totfact> 0.56789642E+00</totfact>
</mgrwt>
</event>
<event>
 4    1  0.1308745E-008  0.2387749E+04  0.7816531E-02  0.8444104E-01
         -2   -1    0    0    0  501 -0.00000000000E+00  0.00000000000E+00  0.11940031395E+04  0.11940031395E+04  0.00000000000E+00 0. -1.
          2   -1    0    0  501    0  0.00000000000E+00 -0.00000000000E+00 -0.11937462693E+04  0.11937462693E+04  0.00000000000E+00 0.  1.
    2000013    1    1    2    0    0  0.48181277682E+02 -0.64695865064E+03  0.31943998103E+03  0.11939090554E+04  0.95000000000E+03 0.  0.
   -2000013    1    1    2    0    0 -0.48181277682E+02  0.64695865064E+03 -0.31918311086E+03  0.11938403534E+04  0.95000000000E+03 0.  0.
<mgrwt>
<rscale>  0 0.23877494E+04</rscale>
<asrwt>0</asrwt>
<pdfrwt beam="2">  1        2 0.18365327E+00 0.23877494E+04</pdfrwt>
<pdfrwt beam="1">  1       -2 0.18369279E+00 0.23877494E+04</pdfrwt>
<totfact> 0.29411608E+00</totfact>
</mgrwt>
</event>
<event>
 4    1  0.1308745E-008  0.2589494E+04  0.7816531E-02  0.8371779E-01
          1   -1    0    0  501    0  0.00000000000E+00  0.00000000000E+00  0.23909396629E+04  0.23909396629E+04  0.00000000000E+00 0. -1.
         -1   -1    0    0    0  501 -0.00000000000E+00 -0.00000000000E+00 -0.70113413570E+03  0.70113413570E+03  0.00000000000E+00 0.  1.
    2000013    1    1    2    0    0 -0.26369905353E+03  0.79862936038E+03  0.11528824732E+04  0.17143465353E+04  0.95000000000E+03 0.  0.
   -2000013    1    1    2    0    0  0.26369905353E+03 -0.79862936038E+03  0.53692305402E+03  0.13777272633E+04  0.95000000000E+03 0.  0.
<mgrwt>
<rscale>  0 0.25894937E+04</rscale>
<asrwt>0</asrwt>
<pdfrwt beam="1">  1        1 0.36783687E+00 0.25894937E+04</pdfrwt>
<pdfrwt beam="2">  1       -1 0.10786679E+00 0.25894937E+04</pdfrwt>
<totfact> 0.11352117E+00</totfact>
</mgrwt>
</event>
<event>
 4    1  0.1308745E-008  0.2699172E+04  0.7816531E-02  0.8335274E-01
          2   -1    0    0  501    0  0.00000000000E+00  0.00000000000E+00  0.88542501169E+03  0.88542501169E+03  0.00000000000E+00 0.  1.
         -2   -1    0    0    0  501 -0.00000000000E+00 -0.00000000000E+00 -0.20570719266E+04  0.20570719266E+04  0.00000000000E+00 0. -1.
    2000013    1    1    2    0    0  0.95165567948E+03 -0.10377953820E+03 -0.63993927587E+03  0.14927963698E+04  0.95000000000E+03 0.  0.
   -2000013    1    1    2    0    0 -0.95165567948E+03  0.10377953820E+03 -0.53170763902E+03  0.14497005685E+04  0.95000000000E+03 0.  0.
<mgrwt>
<rscale>  0 0.26991724E+04</rscale>
<asrwt>0</asrwt>
<pdfrwt beam="1">  1        2 0.13621923E+00 0.26991724E+04</pdfrwt>
<pdfrwt beam="2">  1       -2 0.31647260E+00 0.26991724E+04</pdfrwt>
<totfact> 0.66265483E-01</totfact>
</mgrwt>
</event>
<event>
 4    1  0.1308745E-008  0.3668567E+04  0.7816531E-02  0.8074964E-01
          2   -1    0    0  501    0  0.00000000000E+00  0.00000000000E+00  0.31597829158E+04  0.31597829158E+04  0.00000000000E+00 0.  1.
         -2   -1    0    0    0  501 -0.00000000000E+00 -0.00000000000E+00 -0.10648187833E+04  0.10648187833E+04  0.00000000000E+00 0. -1.
    2000013    1    1    2    0    0  0.71032377902E+03 -0.10187560938E+04 -0.56865716436E+02  0.15646589275E+04  0.95000000000E+03 0.  0.
   -2000013    1    1    2    0    0 -0.71032377902E+03  0.10187560938E+04  0.21518298489E+04  0.26599427716E+04  0.95000000000E+03 0.  0.
<mgrwt>
<rscale>  0 0.36685671E+04</rscale>
<asrwt>0</asrwt>
<pdfrwt beam="1">  1        2 0.48612044E+00 0.36685671E+04</pdfrwt>
<pdfrwt beam="2">  1       -2 0.16381828E+00 0.36685671E+04</pdfrwt>
<totfact> 0.26333828E-01</totfact>
</mgrwt>
</event>
<event>
 4    1  0.1308745E-008  0.3032512E+04  0.7816531E-02  0.8234507E-01
         -2   -1    0    0    0  501 -0.00000000000E+00  0.00000000000E+00  0.17516885038E+04  0.17516885038E+04  0.00000000000E+00 0. -1.
          2   -1    0    0  501    0  0.00000000000E+00 -0.00000000000E+00 -0.13124661017E+04  0.13124661017E+04  0.00000000000E+00 0.  1.
    2000013    1    1    2    0    0 -0.86794950892E+03 -0.60411510456E+03  0.75260022318E+03  0.16084770765E+04  0.95000000000E+03 0.  0.
   -2000013    1    1    2    0    0  0.86794950892E+03  0.60411510456E+03 -0.31337782110E+03  0.14556775290E+04  0.95000000000E+03 0.  0.
<mgrwt>
<rscale>  0 0.30325117E+04</rscale>
<asrwt>0</asrwt>
<pdfrwt beam="2">  1        2 0.20191786E+00 0.30325117E+04</pdfrwt>
<pdfrwt beam="1">  1       -2 0.26949054E+00 0.30325117E+04</pdfrwt>
<totfact> 0.67750684E-01</totfact>
</mgrwt>
</event>
<event>
 4    1  0.1308745E-008  0.2979030E+04  0.7816531E-02  0.8249744E-01
         -2   -1    0    0    0  501 -0.00000000000E+00  0.00000000000E+00  0.69944447790E+03  0.69944447790E+03  0.00000000000E+00 0. -1.
          2   -1    0    0  501    0  0.00000000000E+00 -0.00000000000E+00 -0.31720250580E+04  0.31720250580E+04  0.00000000000E+00 0.  1.
    2000013    1    1    2    0    0 -0.10515981242E+04  0.33894805001E+03 -0.16377113759E+04  0.21921092459E+04  0.95000000000E+03 0.  0.
   -2000013    1    1    2    0    0  0.10515981242E+04 -0.33894805001E+03 -0.83486920421E+03  0.16793602900E+04  0.95000000000E+03 0.  0.
<mgrwt>
<rscale>  0 0.29790303E+04</rscale>
<asrwt>0</asrwt>
<pdfrwt beam="2">  1        2 0.48800386E+00 0.29790303E+04</pdfrwt>
<pdfrwt beam="1">  1       -2 0.10760684E+00 0.29790303E+04</pdfrwt>
<totfact> 0.80296569E-01</totfact>
</mgrwt>
</event>
<event>
 4    1  0.1308745E-008  0.3568785E+04  0.7816531E-02  0.8097680E-01
          2   -1    0    0  501    0  0.00000000000E+00  0.00000000000E+00  0.21040379928E+04  0.21040379928E+04  0.00000000000E+00 0.  1.
         -2   -1    0    0    0  501 -0.00000000000E+00 -0.00000000000E+00 -0.15133074415E+04  0.15133074415E+04  0.00000000000E+00 0. -1.
    2000013    1    1    2    0    0 -0.23777858236E+03 -0.14777286343E+04  0.50144377697E+03  0.18423263642E+04  0.95000000000E+03 0.  0.
   -2000013    1    1    2    0    0  0.23777858236E+03  0.14777286343E+04  0.89286774340E+02  0.17750190700E+04  0.95000000000E+03 0.  0.
<mgrwt>
<rscale>  0 0.35687849E+04</rscale>
<asrwt>0</asrwt>
<pdfrwt beam="1">  1        2 0.32369815E+00 0.35687849E+04</pdfrwt>
<pdfrwt beam="2">  1       -2 0.23281653E+00 0.35687849E+04</pdfrwt>
<totfact> 0.39216518E-01</totfact>
</mgrwt>
</event>
<event>
 4    1  0.1308745E-008  0.2307556E+04  0.7816531E-02  0.8474948E-01
         -2   -1    0    0    0  501 -0.00000000000E+00  0.00000000000E+00  0.47960408889E+04  0.47960408889E+04  0.00000000000E+00 0. -1.
          2   -1    0    0  501    0  0.00000000000E+00 -0.00000000000E+00 -0.27756306858E+03  0.27756306858E+03  0.00000000000E+00 0.  1.
    2000013    1    1    2    0    0 -0.16493765421E+03  0.45191035348E+03  0.12826722624E+04  0.16670859396E+04  0.95000000000E+03 0.  0.
   -2000013    1    1    2    0    0  0.16493765421E+03 -0.45191035348E+03  0.32358055579E+04  0.34065180178E+04  0.95000000000E+03 0.  0.
<mgrwt>
<rscale>  0 0.23075561E+04</rscale>
<asrwt>0</asrwt>
<pdfrwt beam="2">  1        2 0.42702014E-01 0.23075561E+04</pdfrwt>
<pdfrwt beam="1">  1       -2 0.73785238E+00 0.23075561E+04</pdfrwt>
<totfact> 0.17568305E-02</totfact>
</mgrwt>
</event>
<event>
 4    1  0.1308745E-008  0.2486242E+04  0.7816531E-02  0.8407903E-01
         -2   -1    0    0    0  501 -0.00000000000E+00  0.00000000000E+00  0.13216260492E+04  0.13216260492E+04  0.00000000000E+00 0. -1.
          2   -1    0    0  501    0  0.00000000000E+00 -0.00000000000E+00 -0.11692793168E+04  0.11692793168E+04  0.00000000000E+00 0.  1.
    2000013    1    1    2    0    0  0.25159299145E+03 -0.64759969490E+03  0.47713095156E+03  0.12699757254E+04  0.95000000000E+03 0.  0.
   -2000013    1    1    2    0    0 -0.25159299145E+03  0.64759969490E+03 -0.32478421922E+03  0.12209296406E+04  0.95000000000E+03 0.  0.
<mgrwt>
<rscale>  0 0.24862421E+04</rscale>
<asrwt>0</asrwt>
<pdfrwt beam="2">  1        2 0.17988912E+00 0.24862421E+04</pdfrwt>
<pdfrwt beam="1">  1       -2 0.20332709E+00 0.24862421E+04</pdfrwt>
<totfact> 0.22320763E+00</totfact>
</mgrwt>
</event>
<event>
 4    1  0.1308745E-008  0.3476748E+04  0.7816531E-02  0.8119323E-01
          2   -1    0    0  501    0  0.00000000000E+00  0.00000000000E+00  0.16191318040E+04  0.16191318040E+04  0.00000000000E+00 0.  1.
         -2   -1    0    0    0  501 -0.00000000000E+00 -0.00000000000E+00 -0.18663980133E+04  0.18663980133E+04  0.00000000000E+00 0. -1.
    2000013    1    1    2    0    0  0.65381931504E+03  0.12971099313E+04 -0.22119546432E+03  0.17496860587E+04  0.95000000000E+03 0.  0.
   -2000013    1    1    2    0    0 -0.65381931504E+03 -0.12971099313E+04 -0.26070744996E+02  0.17358437586E+04  0.95000000000E+03 0.  0.
<mgrwt>
<rscale>  0 0.34767481E+04</rscale>
<asrwt>0</asrwt>
<pdfrwt beam="1">  1        2 0.24909720E+00 0.34767481E+04</pdfrwt>
<pdfrwt beam="2">  1       -2 0.28713816E+00 0.34767481E+04</pdfrwt>
<totfact> 0.34120156E-01</totfact>
</mgrwt>
</event>
<event>
 4    1  0.1308745E-008  0.2159174E+04  0.7816531E-02  0.8535615E-01
         -2   -1    0    0    0  501 -0.00000000000E+00  0.00000000000E+00  0.76609506336E+03  0.76609506336E+03  0.00000000000E+00 0. -1.
          2   -1    0    0  501    0  0.00000000000E+00 -0.00000000000E+00 -0.15213628301E+04  0.15213628301E+04  0.00000000000E+00 0.  1.
    2000013    1    1    2    0    0 -0.31200619405E+03  0.21274700409E+03 -0.10032156311E+02  0.10223550249E+04  0.95000000000E+03 0.  0.
   -2000013    1    1    2    0    0  0.31200619405E+03 -0.21274700409E+03 -0.74523561045E+03  0.12651028685E+04  0.95000000000E+03 0.  0.
<mgrwt>
<rscale>  0 0.21591744E+04</rscale>
<asrwt>0</asrwt>
<pdfrwt beam="2">  1        2 0.23405582E+00 0.21591744E+04</pdfrwt>
<pdfrwt beam="1">  1       -2 0.11786078E+00 0.21591744E+04</pdfrwt>
<totfact> 0.62873654E+00</totfact>
</mgrwt>
</event>
<event>
 4    1  0.1308745E-008  0.2698985E+04  0.7816531E-02  0.8335335E-01
          2   -1    0    0  501    0  0.00000000000E+00  0.00000000000E+00  0.17675942769E+04  0.17675942769E+04  0.00000000000E+00 0.  1.
         -2   -1    0    0    0  501 -0.00000000000E+00 -0.00000000000E+00 -0.10302869631E+04  0.10302869631E+04  0.00000000000E+00 0. -1.
    2000013    1    1    2    0    0  0.66058778119E+03 -0.13750914533E+01  0.10885426907E+04  0.15886482610E+04  0.95000000000E+03 0.  0.
   -2000013    1    1    2    0    0 -0.66058778119E+03  0.13750914533E+01 -0.35123537693E+03  0.12092329790E+04  0.95000000000E+03 0.  0.
<mgrwt>
<rscale>  0 0.26989845E+04</rscale>
<asrwt>0</asrwt>
<pdfrwt beam="1">  1        2 0.27193758E+00 0.26989845E+04</pdfrwt>
<pdfrwt beam="2">  1       -2 0.15850569E+00 0.26989845E+04</pdfrwt>
<totfact> 0.20393859E+00</totfact>
</mgrwt>
</event>
<event>
 4    1  0.1308745E-008  0.2079843E+04  0.7816531E-02  0.8570175E-01
         -2   -1    0    0    0  501 -0.00000000000E+00  0.00000000000E+00  0.56690476147E+03  0.56690476147E+03  0.00000000000E+00 0. -1.
          2   -1    0    0  501    0  0.00000000000E+00 -0.00000000000E+00 -0.19076155630E+04  0.19076155630E+04  0.00000000000E+00 0.  1.
    2000013    1    1    2    0    0 -0.35822018821E+03  0.22493058204E+03 -0.66491937574E+03  0.12343148894E+04  0.95000000000E+03 0.  0.
   -2000013    1    1    2    0    0  0.35822018821E+03 -0.22493058204E+03 -0.67579142580E+03  0.12402054351E+04  0.95000000000E+03 0.  0.
<mgrwt>
<rscale>  0 0.20798426E+04</rscale>
<asrwt>0</asrwt>
<pdfrwt beam="2">  1        2 0.29347932E+00 0.20798426E+04</pdfrwt>
<pdfrwt beam="1">  1       -2 0.87216117E-01 0.20798426E+04</pdfrwt>
<totfact> 0.78851573E+00</totfact>
</mgrwt>
</event>
<event>
 4    1  0.1308745E-008  0.3288415E+04  0.7816531E-02  0.8165849E-01
          2   -1    0    0  501    0  0.00000000000E+00  0.00000000000E+00  0.19775272246E+04  0.19775272246E+04  0.00000000000E+00 0.  1.
         -2   -1    0    0    0  501 -0.00000000000E+00 -0.00000000000E+00 -0.13670700846E+04  0.13670700846E+04  0.00000000000E+00 0. -1.
    2000013    1    1    2    0    0 -0.46721320937E+03  0.92372720189E+03  0.11738442103E+04  0.18308387031E+04  0.95000000000E+03 0.  0.
   -2000013    1    1    2    0    0  0.46721320937E+03 -0.92372720189E+03 -0.56338707040E+03  0.15137586061E+04  0.95000000000E+03 0.  0.
<mgrwt>
<rscale>  0 0.32884150E+04</rscale>
<asrwt>0</asrwt>
<pdfrwt beam="1">  1        2 0.30423496E+00 0.32884150E+04</pdfrwt>
<pdfrwt beam="2">  1       -2 0.21031847E+00 0.32884150E+04</pdfrwt>
<totfact> 0.65522161E-01</totfact>
</mgrwt>
</event>
<event>
 4    1  0.1308745E-008  0.3245731E+04  0.7816531E-02  0.8176843E-01
         -2   -1    0    0    0  501 -0.00000000000E+00  0.00000000000E+00  0.63407135820E+03  0.63407135820E+03  0.00000000000E+00 0. -1.
          2   -1    0    0  501    0  0.00000000000E+00 -0.00000000000E+00 -0.41536215198E+04  0.41536215198E+04  0.00000000000E+00 0.  1.
    2000013    1    1    2    0    0  0.52262237010E+03 -0.12005638483E+04 -0.19504236967E+04  0.25339969006E+04  0.95000000000E+03 0.  0.
   -2000013    1    1    2    0    0 -0.52262237010E+03  0.12005638483E+04 -0.15691264649E+04  0.22536959774E+04  0.95000000000E+03 0.  0.
<mgrwt>
<rscale>  0 0.32457310E+04</rscale>
<asrwt>0</asrwt>
<pdfrwt beam="2">  1        2 0.63901870E+00 0.32457310E+04</pdfrwt>
<pdfrwt beam="1">  1       -2 0.97549440E-01 0.32457310E+04</pdfrwt>
<totfact> 0.18690733E-01</totfact>
</mgrwt>
</event>
<event>
 4    1  0.1308745E-008  0.2581441E+04  0.7816531E-02  0.8374533E-01
         -1   -1    0    0    0  501 -0.00000000000E+00  0.00000000000E+00  0.16386524708E+04  0.16386524708E+04  0.00000000000E+00 0. -1.
          1   -1    0    0  501    0  0.00000000000E+00 -0.00000000000E+00 -0.10166645022E+04  0.10166645022E+04  0.00000000000E+00 0.  1.
    2000013    1    1    2    0    0  0.47860779656E+03 -0.64572015073E+03 -0.41508258430E+02  0.12450874955E+04  0.95000000000E+03 0.  0.
   -2000013    1    1    2    0    0 -0.47860779656E+03  0.64572015073E+03  0.66349622704E+03  0.14102294775E+04  0.95000000000E+03 0.  0.
<mgrwt>
<rscale>  0 0.25814413E+04</rscale>
<asrwt>0</asrwt>
<pdfrwt beam="2">  1        1 0.15640992E+00 0.25814413E+04</pdfrwt>
<pdfrwt beam="1">  1       -1 0.25210038E+00 0.25814413E+04</pdfrwt>
<totfact> 0.87502462E-01</totfact>
</mgrwt>
</event>
<event>
 4    1  0.1308745E-008  0.3030056E+04  0.7816531E-02  0.8235200E-01
         -2   -1    0    0    0  501 -0.00000000000E+00  0.00000000000E+00  0.63653006392E+03  0.63653006392E+03  0.00000000000E+00 0. -1.
          2   -1    0    0  501    0  0.00000000000E+00 -0.00000000000E+00 -0.36059722832E+04  0.36059722832E+04  0.00000000000E+00 0.  1.
    2000013    1    1    2    0    0  0.30196209580E+03 -0.64445052444E+03 -0.16657120526E+03  0.11986423788E+04  0.95000000000E+03 0.  0.
   -2000013    1    1    2    0    0 -0.30196209580E+03  0.64445052444E+03 -0.28028710140E+04  0.30438599684E+04  0.95000000000E+03 0.  0.
<mgrwt>
<rscale>  0 0.30300560E+04</rscale>
<asrwt>0</asrwt>
<pdfrwt beam="2">  1        2 0.55476497E+00 0.30300560E+04</pdfrwt>
<pdfrwt beam="1">  1       -2 0.97927701E-01 0.30300560E+04</pdfrwt>
<totfact> 0.50617353E-01</totfact>
</mgrwt>
</event>
<event>
 4    1  0.1308745E-008  0.2215239E+04  0.7816531E-02  0.8512112E-01
         -2   -1    0    0    0  501 -0.00000000000E+00  0.00000000000E+00  0.11349748127E+04  0.11349748127E+04  0.00000000000E+00 0. -1.
          2   -1    0    0  501    0  0.00000000000E+00 -0.00000000000E+00 -0.10809236560E+04  0.10809236560E+04  0.00000000000E+00 0.  1.
    2000013    1    1    2    0    0 -0.27029837835E+03  0.48078181875E+03  0.16887312007E+03  0.11114092411E+04  0.95000000000E+03 0.  0.
   -2000013    1    1    2    0    0  0.27029837835E+03 -0.48078181875E+03 -0.11482196337E+03  0.11044892276E+04  0.95000000000E+03 0.  0.
<mgrwt>
<rscale>  0 0.22152392E+04</rscale>
<asrwt>0</asrwt>
<pdfrwt beam="2">  1        2 0.16629595E+00 0.22152392E+04</pdfrwt>
<pdfrwt beam="1">  1       -2 0.17461151E+00 0.22152392E+04</pdfrwt>
<totfact> 0.40405325E+00</totfact>
</mgrwt>
</event>
<event>
 4    1  0.1308745E-008  0.2441030E+04  0.7816531E-02  0.8424300E-01
         -2   -1    0    0    0  501 -0.00000000000E+00  0.00000000000E+00  0.50192607659E+03  0.50192607659E+03  0.00000000000E+00 0. -1.
          2   -1    0    0  501    0  0.00000000000E+00 -0.00000000000E+00 -0.29678804409E+04  0.29678804409E+04  0.00000000000E+00 0.  1.
    2000013    1    1    2    0    0 -0.46528493715E+03  0.56870204875E+03 -0.15419411092E+04  0.19544806157E+04  0.95000000000E+03 0.  0.
   -2000013    1    1    2    0    0  0.46528493715E+03 -0.56870204875E+03 -0.92401325514E+03  0.15153259018E+04  0.95000000000E+03 0.  0.
<mgrwt>
<rscale>  0 0.24410298E+04</rscale>
<asrwt>0</asrwt>
<pdfrwt beam="2">  1        2 0.45659698E+00 0.24410298E+04</pdfrwt>
<pdfrwt beam="1">  1       -2 0.77219399E-01 0.24410298E+04</pdfrwt>
<totfact> 0.24463092E+00</totfact>
</mgrwt>
</event>
<event>
 4    1  0.1308745E-008  0.3634558E+04  0.7816531E-02  0.8082621E-01
         -2   -1    0    0    0  501 -0.00000000000E+00  0.00000000000E+00  0.14884994574E+04  0.14884994574E+04  0.00000000000E+00 0. -1.
          2   -1    0    0  501    0  0.00000000000E+00 -0.00000000000E+00 -0.22186788736E+04  0.22186788736E+04  0.00000000000E+00 0.  1.
    2000013    1    1    2    0    0 -0.20479527675E+03 -0.15013231843E+04 -0.36013720339E+02  0.17887731542E+04  0.95000000000E+03 0.  0.
   -2000013    1    1    2    0    0  0.20479527675E+03  0.15013231843E+04 -0.69416569582E+03  0.19184051768E+04  0.95000000000E+03 0.  0.
<mgrwt>
<rscale>  0 0.36345576E+04</rscale>
<asrwt>0</asrwt>
<pdfrwt beam="2">  1        2 0.34133521E+00 0.36345576E+04</pdfrwt>
<pdfrwt beam="1">  1       -2 0.22899992E+00 0.36345576E+04</pdfrwt>
<totfact> 0.35534032E-01</totfact>
</mgrwt>
</event>
<event>
 4    1  0.1308745E-008  0.2606727E+04  0.7816531E-02  0.8365920E-01
          1   -1    0    0  501    0  0.00000000000E+00  0.00000000000E+00  0.31190663771E+04  0.31190663771E+04  0.00000000000E+00 0. -1.
         -1   -1    0    0    0  501 -0.00000000000E+00 -0.00000000000E+00 -0.54463613770E+03  0.54463613770E+03  0.00000000000E+00 0.  1.
    2000013    1    1    2    0    0  0.88341048523E+03  0.96679414402E+02  0.14004873065E+04  0.19114459684E+04  0.95000000000E+03 0.  0.
   -2000013    1    1    2    0    0 -0.88341048523E+03 -0.96679414402E+02  0.11739429329E+04  0.17522565464E+04  0.95000000000E+03 0.  0.
<mgrwt>
<rscale>  0 0.26067269E+04</rscale>
<asrwt>0</asrwt>
<pdfrwt beam="1">  1        1 0.47985635E+00 0.26067269E+04</pdfrwt>
<pdfrwt beam="2">  1       -1 0.83790177E-01 0.26067269E+04</pdfrwt>
<totfact> 0.60717641E-01</totfact>
</mgrwt>
</event>
<event>
 4    1  0.1308745E-008  0.3592265E+04  0.7816531E-02  0.8092266E-01
          1   -1    0    0  501    0  0.00000000000E+00  0.00000000000E+00  0.25410182318E+04  0.25410182318E+04  0.00000000000E+00 0.  1.
         -1   -1    0    0    0  501 -0.00000000000E+00 -0.00000000000E+00 -0.12696056819E+04  0.12696056819E+04  0.00000000000E+00 0. -1.
    2000013    1    1    2    0    0  0.96690749410E+03 -0.10342436413E+04  0.36553565372E+02  0.17054049885E+04  0.95000000000E+03 0.  0.
   -2000013    1    1    2    0    0 -0.96690749410E+03  0.10342436413E+04  0.12348589845E+04  0.21052189252E+04  0.95000000000E+03 0.  0.
<mgrwt>
<rscale>  0 0.35922646E+04</rscale>
<asrwt>0</asrwt>
<pdfrwt beam="1">  1        1 0.39092588E+00 0.35922646E+04</pdfrwt>
<pdfrwt beam="2">  1       -1 0.19532395E+00 0.35922646E+04</pdfrwt>
<totfact> 0.16653216E-01</totfact>
</mgrwt>
</event>
<event>
 4    1  0.1308745E-008  0.2695646E+04  0.7816531E-02  0.8336419E-01
         -2   -1    0    0    0  501 -0.00000000000E+00  0.00000000000E+00  0.82290267048E+03  0.82290267048E+03  0.00000000000E+00 0. -1.
          2   -1    0    0  501    0  0.00000000000E+00 -0.00000000000E+00 -0.22075840820E+04  0.22075840820E+04  0.00000000000E+00 0.  1.
    2000013    1    1    2    0    0  0.90500938928E+03 -0.72623262448E+02 -0.10292504566E+04  0.16691832240E+04  0.95000000000E+03 0.  0.
   -2000013    1    1    2    0    0 -0.90500938928E+03  0.72623262448E+02 -0.35543095494E+03  0.13613035285E+04  0.95000000000E+03 0.  0.
<mgrwt>
<rscale>  0 0.26956460E+04</rscale>
<asrwt>0</asrwt>
<pdfrwt beam="2">  1        2 0.33962832E+00 0.26956460E+04</pdfrwt>
<pdfrwt beam="1">  1       -2 0.12660041E+00 0.26956460E+04</pdfrwt>
<totfact> 0.20837111E+00</totfact>
</mgrwt>
</event>
<event>
 4    1  0.1308745E-008  0.3525077E+04  0.7816531E-02  0.8107873E-01
          2   -1    0    0  501    0  0.00000000000E+00  0.00000000000E+00  0.25880371210E+04  0.25880371210E+04  0.00000000000E+00 0.  1.
         -2   -1    0    0    0  501 -0.00000000000E+00 -0.00000000000E+00 -0.12003464244E+04  0.12003464244E+04  0.00000000000E+00 0. -1.
    2000013    1    1    2    0    0 -0.12296235007E+04 -0.74190064408E+03  0.28936765056E+03  0.17460309723E+04  0.95000000000E+03 0.  0.
   -2000013    1    1    2    0    0  0.12296235007E+04  0.74190064408E+03  0.10983230460E+04  0.20423525730E+04  0.95000000000E+03 0.  0.
<mgrwt>
<rscale>  0 0.35250765E+04</rscale>
<asrwt>0</asrwt>
<pdfrwt beam="1">  1        2 0.39815956E+00 0.35250765E+04</pdfrwt>
<pdfrwt beam="2">  1       -2 0.18466868E+00 0.35250765E+04</pdfrwt>
<totfact> 0.42708963E-01</totfact>
</mgrwt>
</event>
<event>
 4    1  0.1308745E-008  0.2526123E+04  0.7816531E-02  0.8393738E-01
          2   -1    0    0  501    0  0.00000000000E+00  0.00000000000E+00  0.28362196506E+04  0.28362196506E+04  0.00000000000E+00 0.  1.
         -2   -1    0    0    0  501 -0.00000000000E+00 -0.00000000000E+00 -0.56248269079E+03  0.56248269079E+03  0.00000000000E+00 0. -1.
    2000013    1    1    2    0    0 -0.77398423342E+03  0.12529226775E+03  0.15128044020E+04  0.19508528660E+04  0.95000000000E+03 0.  0.
   -2000013    1    1    2    0    0  0.77398423342E+03 -0.12529226775E+03  0.76093255781E+03  0.14478494754E+04  0.95000000000E+03 0.  0.
<mgrwt>
<rscale>  0 0.25261231E+04</rscale>
<asrwt>0</asrwt>
<pdfrwt beam="1">  1        2 0.43634148E+00 0.25261231E+04</pdfrwt>
<pdfrwt beam="2">  1       -2 0.86535800E-01 0.25261231E+04</pdfrwt>
<totfact> 0.22625567E+00</totfact>
</mgrwt>
</event>
<event>
 4    1  0.1308745E-008  0.2630609E+04  0.7816531E-02  0.8357878E-01
         -2   -1    0    0    0  501 -0.00000000000E+00  0.00000000000E+00  0.70805337946E+03  0.70805337946E+03  0.00000000000E+00 0. -1.
          2   -1    0    0  501    0  0.00000000000E+00 -0.00000000000E+00 -0.24433554118E+04  0.24433554118E+04  0.00000000000E+00 0.  1.
    2000013    1    1    2    0    0 -0.60058004734E+03  0.62473042378E+03 -0.53621699843E+03  0.13932024853E+04  0.95000000000E+03 0.  0.
   -2000013    1    1    2    0    0  0.60058004734E+03 -0.62473042378E+03 -0.11990850339E+04  0.17582063059E+04  0.95000000000E+03 0.  0.
<mgrwt>
<rscale>  0 0.26306091E+04</rscale>
<asrwt>0</asrwt>
<pdfrwt beam="2">  1        2 0.37590084E+00 0.26306091E+04</pdfrwt>
<pdfrwt beam="1">  1       -2 0.10893129E+00 0.26306091E+04</pdfrwt>
<totfact> 0.22276734E+00</totfact>
</mgrwt>
</event>
<event>
 4    1  0.1308745E-008  0.3158321E+04  0.7816531E-02  0.8199912E-01
          2   -1    0    0  501    0  0.00000000000E+00  0.00000000000E+00  0.15754538834E+04  0.15754538834E+04  0.00000000000E+00 0.  1.
         -2   -1    0    0    0  501 -0.00000000000E+00 -0.00000000000E+00 -0.15828760168E+04  0.15828760168E+04  0.00000000000E+00 0. -1.
    2000013    1    1    2    0    0  0.40468022226E+03 -0.92372074677E+03  0.75406544294E+03  0.15773841614E+04  0.95000000000E+03 0.  0.
   -2000013    1    1    2    0    0 -0.40468022226E+03  0.92372074677E+03 -0.76148757633E+03  0.15809457389E+04  0.95000000000E+03 0.  0.
<mgrwt>
<rscale>  0 0.31583212E+04</rscale>
<asrwt>0</asrwt>
<pdfrwt beam="1">  1        2 0.24237752E+00 0.31583212E+04</pdfrwt>
<pdfrwt beam="2">  1       -2 0.24351939E+00 0.31583212E+04</pdfrwt>
<totfact> 0.68527360E-01</totfact>
</mgrwt>
</event>
<event>
 4    1  0.1308745E-008  0.2246195E+04  0.7816531E-02  0.8499443E-01
          2   -1    0    0  501    0  0.00000000000E+00  0.00000000000E+00  0.20572636105E+04  0.20572636105E+04  0.00000000000E+00 0.  1.
         -2   -1    0    0    0  501 -0.00000000000E+00 -0.00000000000E+00 -0.61311910099E+03  0.61311910099E+03  0.00000000000E+00 0. -1.
    2000013    1    1    2    0    0  0.44580763527E+03 -0.36174317095E+03  0.51876528337E+03  0.12252428284E+04  0.95000000000E+03 0.  0.
   -2000013    1    1    2    0    0 -0.44580763527E+03  0.36174317095E+03  0.92537922609E+03  0.14451398830E+04  0.95000000000E+03 0.  0.
<mgrwt>
<rscale>  0 0.22461947E+04</rscale>
<asrwt>0</asrwt>
<pdfrwt beam="1">  1        2 0.31650209E+00 0.22461947E+04</pdfrwt>
<pdfrwt beam="2">  1       -2 0.94326017E-01 0.22461947E+04</pdfrwt>
<totfact> 0.53563988E+00</totfact>
</mgrwt>
</event>
<event>
 4    1  0.1308745E-008  0.2632840E+04  0.7816531E-02  0.8357131E-01
         -2   -1    0    0    0  501 -0.00000000000E+00  0.00000000000E+00  0.63465617438E+03  0.63465617438E+03  0.00000000000E+00 0. -1.
          2   -1    0    0  501    0  0.00000000000E+00 -0.00000000000E+00 -0.27305525996E+04  0.27305525996E+04  0.00000000000E+00 0.  1.
    2000013    1    1    2    0    0 -0.30143863496E+03 -0.83813677410E+03 -0.12942186720E+04  0.18359848784E+04  0.95000000000E+03 0.  0.
   -2000013    1    1    2    0    0  0.30143863496E+03  0.83813677410E+03 -0.80167775313E+03  0.15292238955E+04  0.95000000000E+03 0.  0.
<mgrwt>
<rscale>  0 0.26328403E+04</rscale>
<asrwt>0</asrwt>
<pdfrwt beam="2">  1        2 0.42008501E+00 0.26328403E+04</pdfrwt>
<pdfrwt beam="1">  1       -2 0.97639413E-01 0.26328403E+04</pdfrwt>
<totfact> 0.19625489E+00</totfact>
</mgrwt>
</event>
<event>
 4    1  0.1308745E-008  0.2644268E+04  0.7816531E-02  0.8353318E-01
          1   -1    0    0  501    0  0.00000000000E+00  0.00000000000E+00  0.15891275097E+04  0.15891275097E+04  0.00000000000E+00 0.  1.
         -1   -1    0    0    0  501 -0.00000000000E+00 -0.00000000000E+00 -0.10999986898E+04  0.10999986898E+04  0.00000000000E+00 0. -1.
    2000013    1    1    2    0    0 -0.55676996794E+03 -0.70942978662E+03  0.61921577436E+02  0.13113419467E+04  0.95000000000E+03 0.  0.
   -2000013    1    1    2    0    0  0.55676996794E+03  0.70942978662E+03  0.42720724245E+03  0.13777842528E+04  0.95000000000E+03 0.  0.
<mgrwt>
<rscale>  0 0.26442679E+04</rscale>
<asrwt>0</asrwt>
<pdfrwt beam="1">  1        1 0.24448115E+00 0.26442679E+04</pdfrwt>
<pdfrwt beam="2">  1       -1 0.16923057E+00 0.26442679E+04</pdfrwt>
<totfact> 0.12417541E+00</totfact>
</mgrwt>
</event>
<event>
 4    1  0.1308745E-008  0.2151163E+04  0.7816531E-02  0.8539035E-01
          2   -1    0    0  501    0  0.00000000000E+00  0.00000000000E+00  0.18098079329E+04  0.18098079329E+04  0.00000000000E+00 0.  1.
         -2   -1    0    0    0  501 -0.00000000000E+00 -0.00000000000E+00 -0.63922555741E+03  0.63922555741E+03  0.00000000000E+00 0. -1.
    2000013    1    1    2    0    0 -0.15958153236E+03 -0.47830000760E+03  0.59868077002E+03  0.12309166613E+04  0.95000000000E+03 0.  0.
   -2000013    1    1    2    0    0  0.15958153236E+03  0.47830000760E+03  0.57190160549E+03  0.12181168290E+04  0.95000000000E+03 0.  0.
<mgrwt>
<rscale>  0 0.21511629E+04</rscale>
<asrwt>0</asrwt>
<pdfrwt beam="1">  1        2 0.27843199E+00 0.21511629E+04</pdfrwt>
<pdfrwt beam="2">  1       -2 0.98342394E-01 0.21511629E+04</pdfrwt>
<totfact> 0.67197604E+00</totfact>
</mgrwt>
</event>
<event>
 4    1  0.1308745E-008  0.2456860E+04  0.7816531E-02  0.8418518E-01
          2   -1    0    0  501    0  0.00000000000E+00  0.00000000000E+00  0.29229660006E+04  0.29229660006E+04  0.00000000000E+00 0.  1.
         -2   -1    0    0    0  501 -0.00000000000E+00 -0.00000000000E+00 -0.51627009153E+03  0.51627009153E+03  0.00000000000E+00 0. -1.
    2000013    1    1    2    0    0  0.65137554010E+03 -0.41171684944E+03  0.13613455322E+04  0.18301810065E+04  0.95000000000E+03 0.  0.
   -2000013    1    1    2    0    0 -0.65137554010E+03  0.41171684944E+03  0.10453503769E+04  0.16090550857E+04  0.95000000000E+03 0.  0.
<mgrwt>
<rscale>  0 0.24568597E+04</rscale>
<asrwt>0</asrwt>
<pdfrwt beam="1">  1        2 0.44968707E+00 0.24568597E+04</pdfrwt>
<pdfrwt beam="2">  1       -2 0.79426170E-01 0.24568597E+04</pdfrwt>
<totfact> 0.24455306E+00</totfact>
</mgrwt>
</event>
<event>
 4    1  0.1308745E-008  0.2390427E+04  0.7816531E-02  0.8443096E-01
         -1   -1    0    0    0  501 -0.00000000000E+00  0.00000000000E+00  0.12762571237E+04  0.12762571237E+04  0.00000000000E+00 0. -1.
          1   -1    0    0  501    0  0.00000000000E+00 -0.00000000000E+00 -0.11193163892E+04  0.11193163892E+04  0.00000000000E+00 0.  1.
    2000013    1    1    2    0    0  0.17708106397E+03 -0.53564305696E+03  0.53526340657E+03  0.12277125486E+04  0.95000000000E+03 0.  0.
   -2000013    1    1    2    0    0 -0.17708106397E+03  0.53564305696E+03 -0.37832267205E+03  0.11678609643E+04  0.95000000000E+03 0.  0.
<mgrwt>
<rscale>  0 0.23904272E+04</rscale>
<asrwt>0</asrwt>
<pdfrwt beam="2">  1        1 0.17220252E+00 0.23904272E+04</pdfrwt>
<pdfrwt beam="1">  1       -1 0.19634725E+00 0.23904272E+04</pdfrwt>
<totfact> 0.17544524E+00</totfact>
</mgrwt>
</event>
<event>
 4    1  0.1308745E-008  0.2126480E+04  0.7816531E-02  0.8549668E-01
         -1   -1    0    0    0  501 -0.00000000000E+00  0.00000000000E+00  0.47755901711E+03  0.47755901711E+03  0.00000000000E+00 0. -1.
          1   -1    0    0  501    0  0.00000000000E+00 -0.00000000000E+00 -0.23672035482E+04  0.23672035482E+04  0.00000000000E+00 0.  1.
    2000013    1    1    2    0    0 -0.77834544359E+02  0.40721530911E+03 -0.62797202689E+03  0.12119122868E+04  0.95000000000E+03 0.  0.
   -2000013    1    1    2    0    0  0.77834544359E+02 -0.40721530911E+03 -0.12616725042E+04  0.16328502785E+04  0.95000000000E+03 0.  0.
<mgrwt>
<rscale>  0 0.21264801E+04</rscale>
<asrwt>0</asrwt>
<pdfrwt beam="2">  1        1 0.36418516E+00 0.21264801E+04</pdfrwt>
<pdfrwt beam="1">  1       -1 0.73470619E-01 0.21264801E+04</pdfrwt>
<totfact> 0.28663121E+00</totfact>
</mgrwt>
</event>
<event>
 4    1  0.1308745E-008  0.2782472E+04  0.7816531E-02  0.8308731E-01
         -2   -1    0    0    0  501 -0.00000000000E+00  0.00000000000E+00  0.83787885291E+03  0.83787885291E+03  0.00000000000E+00 0. -1.
          2   -1    0    0  501    0  0.00000000000E+00 -0.00000000000E+00 -0.23100448585E+04  0.23100448585E+04  0.00000000000E+00 0.  1.
    2000013    1    1    2    0    0  0.68739433140E+03 -0.74862224965E+03 -0.74690471826E+03  0.15790227667E+04  0.95000000000E+03 0.  0.
   -2000013    1    1    2    0    0 -0.68739433140E+03  0.74862224965E+03 -0.72526128735E+03  0.15689009447E+04  0.95000000000E+03 0.  0.
<mgrwt>
<rscale>  0 0.27824721E+04</rscale>
<asrwt>0</asrwt>
<pdfrwt beam="2">  1        2 0.35539151E+00 0.27824721E+04</pdfrwt>
<pdfrwt beam="1">  1       -2 0.12890444E+00 0.27824721E+04</pdfrwt>
<totfact> 0.17298256E+00</totfact>
</mgrwt>
</event>
<event>
 4    1  0.1308745E-008  0.2284672E+04  0.7816531E-02  0.8483989E-01
          2   -1    0    0  501    0  0.00000000000E+00  0.00000000000E+00  0.13342531741E+04  0.13342531741E+04  0.00000000000E+00 0.  1.
         -2   -1    0    0    0  501 -0.00000000000E+00 -0.00000000000E+00 -0.97802399419E+03  0.97802399419E+03  0.00000000000E+00 0. -1.
    2000013    1    1    2    0    0 -0.51343283300E+03  0.16478257402E+03 -0.16008622233E+03  0.11040354022E+04  0.95000000000E+03 0.  0.
   -2000013    1    1    2    0    0  0.51343283300E+03 -0.16478257402E+03  0.51631540221E+03  0.12082417661E+04  0.95000000000E+03 0.  0.
<mgrwt>
<rscale>  0 0.22846721E+04</rscale>
<asrwt>0</asrwt>
<pdfrwt beam="1">  1        2 0.20526972E+00 0.22846721E+04</pdfrwt>
<pdfrwt beam="2">  1       -2 0.15046523E+00 0.22846721E+04</pdfrwt>
<totfact> 0.42599498E+00</totfact>
</mgrwt>
</event>
<event>
 4    1  0.1308745E-008  0.1998524E+04  0.7816531E-02  0.8607311E-01
          2   -1    0    0  501    0  0.00000000000E+00  0.00000000000E+00  0.13422501953E+04  0.13422501953E+04  0.00000000000E+00 0.  1.
         -2   -1    0    0    0  501 -0.00000000000E+00 -0.00000000000E+00 -0.74391826273E+03  0.74391826273E+03  0.00000000000E+00 0. -1.
    2000013    1    1    2    0    0 -0.16983499309E+03 -0.25842618005E+03  0.27838255955E+03  0.10371233605E+04  0.95000000000E+03 0.  0.
   -2000013    1    1    2    0    0  0.16983499309E+03  0.25842618005E+03  0.31994937306E+03  0.10490450976E+04  0.95000000000E+03 0.  0.
<mgrwt>
<rscale>  0 0.19985239E+04</rscale>
<asrwt>0</asrwt>
<pdfrwt beam="1">  1        2 0.20650003E+00 0.19985239E+04</pdfrwt>
<pdfrwt beam="2">  1       -2 0.11444896E+00 0.19985239E+04</pdfrwt>
<totfact> 0.86618098E+00</totfact>
</mgrwt>
</event>
<event>
 4    1  0.1308745E-008  0.2184400E+04  0.7816531E-02  0.8524949E-01
         -2   -1    0    0    0  501 -0.00000000000E+00  0.00000000000E+00  0.65454740878E+03  0.65454740878E+03  0.00000000000E+00 0. -1.
          2   -1    0    0  501    0  0.00000000000E+00 -0.00000000000E+00 -0.18224824801E+04  0.18224824801E+04  0.00000000000E+00 0.  1.
    2000013    1    1    2    0    0  0.24382681870E+03 -0.47825804672E+03 -0.53055186581E+03  0.12133291223E+04  0.95000000000E+03 0.  0.
   -2000013    1    1    2    0    0 -0.24382681870E+03  0.47825804672E+03 -0.63738320554E+03  0.12637007666E+04  0.95000000000E+03 0.  0.
<mgrwt>
<rscale>  0 0.21844003E+04</rscale>
<asrwt>0</asrwt>
<pdfrwt beam="2">  1        2 0.28038192E+00 0.21844003E+04</pdfrwt>
<pdfrwt beam="1">  1       -2 0.10069960E+00 0.21844003E+04</pdfrwt>
<totfact> 0.62341244E+00</totfact>
</mgrwt>
</event>
<event>
 4    1  0.1308745E-008  0.3211334E+04  0.7816531E-02  0.8185830E-01
         -1   -1    0    0    0  501 -0.00000000000E+00  0.00000000000E+00  0.19773906614E+04  0.19773906614E+04  0.00000000000E+00 0. -1.
          1   -1    0    0  501    0  0.00000000000E+00 -0.00000000000E+00 -0.13038222790E+04  0.13038222790E+04  0.00000000000E+00 0.  1.
    2000013    1    1    2    0    0  0.10353481268E+04 -0.63691688402E+03  0.79150437417E+03  0.17339515665E+04  0.95000000000E+03 0.  0.
   -2000013    1    1    2    0    0 -0.10353481268E+04  0.63691688402E+03 -0.11793599179E+03  0.15472613738E+04  0.95000000000E+03 0.  0.
<mgrwt>
<rscale>  0 0.32113337E+04</rscale>
<asrwt>0</asrwt>
<pdfrwt beam="2">  1        1 0.20058804E+00 0.32113337E+04</pdfrwt>
<pdfrwt beam="1">  1       -1 0.30421395E+00 0.32113337E+04</pdfrwt>
<totfact> 0.23294347E-01</totfact>
</mgrwt>
</event>
<event>
 4    1  0.1308745E-008  0.1981259E+04  0.7816531E-02  0.8615433E-01
         -2   -1    0    0    0  501 -0.00000000000E+00  0.00000000000E+00  0.51897012656E+03  0.51897012656E+03  0.00000000000E+00 0. -1.
          2   -1    0    0  501    0  0.00000000000E+00 -0.00000000000E+00 -0.18909512108E+04  0.18909512108E+04  0.00000000000E+00 0.  1.
    2000013    1    1    2    0    0  0.28013949956E+03 -0.16581565156E+02 -0.67419113537E+03  0.11982432034E+04  0.95000000000E+03 0.  0.
   -2000013    1    1    2    0    0 -0.28013949956E+03  0.16581565156E+02 -0.69778994884E+03  0.12116781339E+04  0.95000000000E+03 0.  0.
<mgrwt>
<rscale>  0 0.19812594E+04</rscale>
<asrwt>0</asrwt>
<pdfrwt beam="2">  1        2 0.29091558E+00 0.19812594E+04</pdfrwt>
<pdfrwt beam="1">  1       -2 0.79841556E-01 0.19812594E+04</pdfrwt>
<totfact> 0.99235498E+00</totfact>
</mgrwt>
</event>
<event>
 4    1  0.1308745E-008  0.2317962E+04  0.7816531E-02  0.8470873E-01
          2   -1    0    0  501    0  0.00000000000E+00  0.00000000000E+00  0.27560920307E+04  0.27560920307E+04  0.00000000000E+00 0.  1.
         -2   -1    0    0    0  501 -0.00000000000E+00 -0.00000000000E+00 -0.48736998844E+03  0.48736998844E+03  0.00000000000E+00 0. -1.
    2000013    1    1    2    0    0  0.42719074895E+03 -0.42431247467E+03  0.15256663371E+04  0.18954394699E+04  0.95000000000E+03 0.  0.
   -2000013    1    1    2    0    0 -0.42719074895E+03  0.42431247467E+03  0.74305570520E+03  0.13480225492E+04  0.95000000000E+03 0.  0.
<mgrwt>
<rscale>  0 0.23179616E+04</rscale>
<asrwt>0</asrwt>
<pdfrwt beam="1">  1        2 0.42401415E+00 0.23179616E+04</pdfrwt>
<pdfrwt beam="2">  1       -2 0.74979999E-01 0.23179616E+04</pdfrwt>
<totfact> 0.35560364E+00</totfact>
</mgrwt>
</event>
<event>
 4    1  0.1308745E-008  0.2922962E+04  0.7816531E-02  0.8266078E-01
          2   -1    0    0  501    0  0.00000000000E+00  0.00000000000E+00  0.24681336377E+04  0.24681336377E+04  0.00000000000E+00 0.  1.
         -2   -1    0    0    0  501 -0.00000000000E+00 -0.00000000000E+00 -0.86540161496E+03  0.86540161496E+03  0.00000000000E+00 0. -1.
    2000013    1    1    2    0    0  0.94570621814E+03 -0.33953809881E+03  0.26186413953E+03  0.14073802610E+04  0.95000000000E+03 0.  0.
   -2000013    1    1    2    0    0 -0.94570621814E+03  0.33953809881E+03  0.13408678832E+04  0.19261549917E+04  0.95000000000E+03 0.  0.
<mgrwt>
<rscale>  0 0.29229621E+04</rscale>
<asrwt>0</asrwt>
<pdfrwt beam="1">  1        2 0.37971287E+00 0.29229621E+04</pdfrwt>
<pdfrwt beam="2">  1       -2 0.13313871E+00 0.29229621E+04</pdfrwt>
<totfact> 0.12786930E+00</totfact>
</mgrwt>
</event>
<event>
 4    1  0.1308745E-008  0.2565295E+04  0.7816531E-02  0.8380086E-01
          2   -1    0    0  501    0  0.00000000000E+00  0.00000000000E+00  0.29862402258E+04  0.29862402258E+04  0.00000000000E+00 0.  1.
         -2   -1    0    0    0  501 -0.00000000000E+00 -0.00000000000E+00 -0.55092169039E+03  0.55092169039E+03  0.00000000000E+00 0. -1.
    2000013    1    1    2    0    0  0.19303987962E+03 -0.54707874599E+03  0.20963731369E+04  0.23735711236E+04  0.95000000000E+03 0.  0.
   -2000013    1    1    2    0    0 -0.19303987962E+03  0.54707874599E+03  0.33894539845E+03  0.11635907926E+04  0.95000000000E+03 0.  0.
<mgrwt>
<rscale>  0 0.25652949E+04</rscale>
<asrwt>0</asrwt>
<pdfrwt beam="1">  1        2 0.45942157E+00 0.25652949E+04</pdfrwt>
<pdfrwt beam="2">  1       -2 0.84757184E-01 0.25652949E+04</pdfrwt>
<totfact> 0.19107671E+00</totfact>
</mgrwt>
</event>
<event>
 4    1  0.1308745E-008  0.2913746E+04  0.7816531E-02  0.8268799E-01
         -2   -1    0    0    0  501 -0.00000000000E+00  0.00000000000E+00  0.89926640700E+03  0.89926640700E+03  0.00000000000E+00 0. -1.
          2   -1    0    0  501    0  0.00000000000E+00 -0.00000000000E+00 -0.23602340542E+04  0.23602340542E+04  0.00000000000E+00 0.  1.
    2000013    1    1    2    0    0 -0.93428992862E+03 -0.58849908502E+03 -0.69984074526E+03  0.16160154432E+04  0.95000000000E+03 0.  0.
   -2000013    1    1    2    0    0  0.93428992862E+03  0.58849908502E+03 -0.76112690198E+03  0.16434850181E+04  0.95000000000E+03 0.  0.
<mgrwt>
<rscale>  0 0.29137462E+04</rscale>
<asrwt>0</asrwt>
<pdfrwt beam="2">  1        2 0.36311293E+00 0.29137462E+04</pdfrwt>
<pdfrwt beam="1">  1       -2 0.13834868E+00 0.29137462E+04</pdfrwt>
<totfact> 0.13375665E+00</totfact>
</mgrwt>
</event>
<event>
 4    1  0.1308745E-008  0.2704463E+04  0.7816531E-02  0.8333558E-01
         -1   -1    0    0    0  501 -0.00000000000E+00  0.00000000000E+00  0.11718375037E+04  0.11718375037E+04  0.00000000000E+00 0. -1.
          1   -1    0    0  501    0  0.00000000000E+00 -0.00000000000E+00 -0.15603961182E+04  0.15603961182E+04  0.00000000000E+00 0.  1.
    2000013    1    1    2    0    0  0.85309335672E+03 -0.44511541456E+03 -0.18255478032E+03  0.13644494331E+04  0.95000000000E+03 0.  0.
   -2000013    1    1    2    0    0 -0.85309335672E+03  0.44511541456E+03 -0.20600383416E+03  0.13677841888E+04  0.95000000000E+03 0.  0.
<mgrwt>
<rscale>  0 0.27044635E+04</rscale>
<asrwt>0</asrwt>
<pdfrwt beam="2">  1        1 0.24006094E+00 0.27044635E+04</pdfrwt>
<pdfrwt beam="1">  1       -1 0.18028269E+00 0.27044635E+04</pdfrwt>
<totfact> 0.10742863E+00</totfact>
</mgrwt>
</event>
<event>
 4    1  0.1308745E-008  0.2462842E+04  0.7816531E-02  0.8416344E-01
          2   -1    0    0  501    0  0.00000000000E+00  0.00000000000E+00  0.12154114498E+04  0.12154114498E+04  0.00000000000E+00 0.  1.
         -2   -1    0    0    0  501 -0.00000000000E+00 -0.00000000000E+00 -0.12476415063E+04  0.12476415063E+04  0.00000000000E+00 0. -1.
    2000013    1    1    2    0    0 -0.54548947027E+03  0.55541091697E+03 -0.10476641786E+03  0.12326865178E+04  0.95000000000E+03 0.  0.
   -2000013    1    1    2    0    0  0.54548947027E+03 -0.55541091697E+03  0.72536361375E+02  0.12303664383E+04  0.95000000000E+03 0.  0.
<mgrwt>
<rscale>  0 0.24628421E+04</rscale>
<asrwt>0</asrwt>
<pdfrwt beam="1">  1        2 0.18698638E+00 0.24628421E+04</pdfrwt>
<pdfrwt beam="2">  1       -2 0.19194485E+00 0.24628421E+04</pdfrwt>
<totfact> 0.24953149E+00</totfact>
</mgrwt>
</event>
<event>
 4    1  0.1308745E-008  0.2030320E+04  0.7816531E-02  0.8592575E-01
          2   -1    0    0  501    0  0.00000000000E+00  0.00000000000E+00  0.65530108663E+03  0.65530108663E+03  0.00000000000E+00 0.  1.
         -2   -1    0    0    0  501 -0.00000000000E+00 -0.00000000000E+00 -0.15726355345E+04  0.15726355345E+04  0.00000000000E+00 0. -1.
    2000013    1    1    2    0    0 -0.48706175346E+02 -0.34740474602E+03 -0.38117170986E+03  0.10820601746E+04  0.95000000000E+03 0.  0.
   -2000013    1    1    2    0    0  0.48706175346E+02  0.34740474602E+03 -0.53616273802E+03  0.11458764465E+04  0.95000000000E+03 0.  0.
<mgrwt>
<rscale>  0 0.20303199E+04</rscale>
<asrwt>0</asrwt>
<pdfrwt beam="1">  1        2 0.10081555E+00 0.20303199E+04</pdfrwt>
<pdfrwt beam="2">  1       -2 0.24194393E+00 0.20303199E+04</pdfrwt>
<totfact> 0.29713669E+00</totfact>
</mgrwt>
</event>
<event>
 4    1  0.1308745E-008  0.3247107E+04  0.7816531E-02  0.8176486E-01
          2   -1    0    0  501    0  0.00000000000E+00  0.00000000000E+00  0.16249877300E+04  0.16249877300E+04  0.00000000000E+00 0.  1.
         -2   -1    0    0    0  501 -0.00000000000E+00 -0.00000000000E+00 -0.16221206460E+04  0.16221206460E+04  0.00000000000E+00 0. -1.
    2000013    1    1    2    0    0  0.67792885465E+02  0.12767126946E+04  0.31581395420E+03  0.16238317750E+04  0.95000000000E+03 0.  0.
   -2000013    1    1    2    0    0 -0.67792885465E+02 -0.12767126946E+04 -0.31294687013E+03  0.16232766010E+04  0.95000000000E+03 0.  0.
<mgrwt>
<rscale>  0 0.32471071E+04</rscale>
<asrwt>0</asrwt>
<pdfrwt beam="1">  1        2 0.24999811E+00 0.32471071E+04</pdfrwt>
<pdfrwt beam="2">  1       -2 0.24955702E+00 0.32471071E+04</pdfrwt>
<totfact> 0.58577202E-01</totfact>
</mgrwt>
</event>
<event>
 4    1  0.1308745E-008  0.2607057E+04  0.7816531E-02  0.8365808E-01
          2   -1    0    0  501    0  0.00000000000E+00  0.00000000000E+00  0.91645987129E+03  0.91645987129E+03  0.00000000000E+00 0.  1.
         -2   -1    0    0    0  501 -0.00000000000E+00 -0.00000000000E+00 -0.18540765360E+04  0.18540765360E+04  0.00000000000E+00 0. -1.
    2000013    1    1    2    0    0  0.24969182801E+03  0.57782743252E+03 -0.11413060540E+04  0.16128577308E+04  0.95000000000E+03 0.  0.
   -2000013    1    1    2    0    0 -0.24969182801E+03 -0.57782743252E+03  0.20368938931E+03  0.11576786765E+04  0.95000000000E+03 0.  0.
<mgrwt>
<rscale>  0 0.26070571E+04</rscale>
<asrwt>0</asrwt>
<pdfrwt beam="1">  1        2 0.14099383E+00 0.26070571E+04</pdfrwt>
<pdfrwt beam="2">  1       -2 0.28524254E+00 0.26070571E+04</pdfrwt>
<totfact> 0.98852356E-01</totfact>
</mgrwt>
</event>
<event>
 4    1  0.1308745E-008  0.3597228E+04  0.7816531E-02  0.8091127E-01
         -2   -1    0    0    0  501 -0.00000000000E+00  0.00000000000E+00  0.10654477349E+04  0.10654477349E+04  0.00000000000E+00 0. -1.
          2   -1    0    0  501    0  0.00000000000E+00 -0.00000000000E+00 -0.30362943992E+04  0.30362943992E+04  0.00000000000E+00 0.  1.
    2000013    1    1    2    0    0 -0.53648298458E+03  0.11876357442E+04 -0.77351037366E+02  0.16145512803E+04  0.95000000000E+03 0.  0.
   -2000013    1    1    2    0    0  0.53648298458E+03 -0.11876357442E+04 -0.18934956270E+04  0.24871908538E+04  0.95000000000E+03 0.  0.
<mgrwt>
<rscale>  0 0.35972284E+04</rscale>
<asrwt>0</asrwt>
<pdfrwt beam="2">  1        2 0.46712221E+00 0.35972284E+04</pdfrwt>
<pdfrwt beam="1">  1       -2 0.16391504E+00 0.35972284E+04</pdfrwt>
<totfact> 0.31725325E-01</totfact>
</mgrwt>
</event>
<event>
 4    1  0.1308745E-008  0.2021301E+04  0.7816531E-02  0.8596726E-01
         -4   -1    0    0    0  501 -0.00000000000E+00  0.00000000000E+00  0.20995146830E+04  0.20995146830E+04  0.00000000000E+00 0. -1.
          4   -1    0    0  501    0  0.00000000000E+00 -0.00000000000E+00 -0.48650003176E+03  0.48650003176E+03  0.00000000000E+00 0.  1.
    2000013    1    1    2    0    0  0.31972603319E+03 -0.12017030500E+03  0.86717108258E+03  0.13308460936E+04  0.95000000000E+03 0.  0.
   -2000013    1    1    2    0    0 -0.31972603319E+03  0.12017030500E+03  0.74584356864E+03  0.12551686211E+04  0.95000000000E+03 0.  0.
<mgrwt>
<rscale>  0 0.20213005E+04</rscale>
<asrwt>0</asrwt>
<pdfrwt beam="2">  1        4 0.74846160E-01 0.20213005E+04</pdfrwt>
<pdfrwt beam="1">  1       -4 0.32300225E+00 0.20213005E+04</pdfrwt>
<totfact> 0.66355756E-02</totfact>
</mgrwt>
</event>
<event>
 4    1  0.1308745E-008  0.3846939E+04  0.7816531E-02  0.8036156E-01
          2   -1    0    0  501    0  0.00000000000E+00  0.00000000000E+00  0.31627731379E+04  0.31627731379E+04  0.00000000000E+00 0.  1.
         -2   -1    0    0    0  501 -0.00000000000E+00 -0.00000000000E+00 -0.11697757673E+04  0.11697757673E+04  0.00000000000E+00 0. -1.
    2000013    1    1    2    0    0  0.16406420496E+04  0.15186250643E+03  0.13199193515E+04  0.23150498159E+04  0.95000000000E+03 0.  0.
   -2000013    1    1    2    0    0 -0.16406420496E+04 -0.15186250643E+03  0.67307801915E+03  0.20174990894E+04  0.95000000000E+03 0.  0.
<mgrwt>
<rscale>  0 0.38469392E+04</rscale>
<asrwt>0</asrwt>
<pdfrwt beam="1">  1        2 0.48658048E+00 0.38469392E+04</pdfrwt>
<pdfrwt beam="2">  1       -2 0.17996550E+00 0.38469392E+04</pdfrwt>
<totfact> 0.19850498E-01</totfact>
</mgrwt>
</event>
<event>
 4    1  0.1308745E-008  0.2859915E+04  0.7816531E-02  0.8284905E-01
         -2   -1    0    0    0  501 -0.00000000000E+00  0.00000000000E+00  0.22993717812E+04  0.22993717812E+04  0.00000000000E+00 0. -1.
          2   -1    0    0  501    0  0.00000000000E+00 -0.00000000000E+00 -0.88927729433E+03  0.88927729433E+03  0.00000000000E+00 0.  1.
    2000013    1    1    2    0    0 -0.40825261007E+03  0.15001512358E+03 -0.38344105260E+03  0.11129697982E+04  0.95000000000E+03 0.  0.
   -2000013    1    1    2    0    0  0.40825261007E+03 -0.15001512358E+03  0.17935355395E+04  0.20756792773E+04  0.95000000000E+03 0.  0.
<mgrwt>
<rscale>  0 0.28599155E+04</rscale>
<asrwt>0</asrwt>
<pdfrwt beam="2">  1        2 0.13681189E+00 0.28599155E+04</pdfrwt>
<pdfrwt beam="1">  1       -2 0.35374950E+00 0.28599155E+04</pdfrwt>
<totfact> 0.38033297E-01</totfact>
</mgrwt>
</event>
<event>
 4    1  0.1308745E-008  0.2195872E+04  0.7816531E-02  0.8520148E-01
          2   -1    0    0  501    0  0.00000000000E+00  0.00000000000E+00  0.24903875254E+04  0.24903875254E+04  0.00000000000E+00 0.  1.
         -2   -1    0    0    0  501 -0.00000000000E+00 -0.00000000000E+00 -0.48404645206E+03  0.48404645206E+03  0.00000000000E+00 0. -1.
    2000013    1    1    2    0    0 -0.42092151363E+02  0.47306065464E+03  0.13800323884E+04  0.17414211223E+04  0.95000000000E+03 0.  0.
   -2000013    1    1    2    0    0  0.42092151363E+02 -0.47306065464E+03  0.62630868494E+03  0.12330128552E+04  0.95000000000E+03 0.  0.
<mgrwt>
<rscale>  0 0.21958718E+04</rscale>
<asrwt>0</asrwt>
<pdfrwt beam="1">  1        2 0.38313653E+00 0.21958718E+04</pdfrwt>
<pdfrwt beam="2">  1       -2 0.74468686E-01 0.21958718E+04</pdfrwt>
<totfact> 0.52305431E+00</totfact>
</mgrwt>
</event>
<event>
 4    1  0.1308745E-008  0.3381397E+04  0.7816531E-02  0.8142487E-01
         -2   -1    0    0    0  501 -0.00000000000E+00  0.00000000000E+00  0.25728437289E+04  0.25728437289E+04  0.00000000000E+00 0. -1.
          2   -1    0    0  501    0  0.00000000000E+00 -0.00000000000E+00 -0.11110125059E+04  0.11110125059E+04  0.00000000000E+00 0.  1.
    2000013    1    1    2    0    0  0.12191875141E+04 -0.56990191255E+03  0.31641655378E+03  0.16774462197E+04  0.95000000000E+03 0.  0.
   -2000013    1    1    2    0    0 -0.12191875141E+04  0.56990191255E+03  0.11454146692E+04  0.20064100151E+04  0.95000000000E+03 0.  0.
<mgrwt>
<rscale>  0 0.33813971E+04</rscale>
<asrwt>0</asrwt>
<pdfrwt beam="2">  1        2 0.17092500E+00 0.33813971E+04</pdfrwt>
<pdfrwt beam="1">  1       -2 0.39582211E+00 0.33813971E+04</pdfrwt>
<totfact> 0.14053246E-01</totfact>
</mgrwt>
</event>
<event>
 4    1  0.1308745E-008  0.2637937E+04  0.7816531E-02  0.8355428E-01
          2   -1    0    0  501    0  0.00000000000E+00  0.00000000000E+00  0.20638969307E+04  0.20638969307E+04  0.00000000000E+00 0.  1.
         -2   -1    0    0    0  501 -0.00000000000E+00 -0.00000000000E+00 -0.84290929054E+03  0.84290929054E+03  0.00000000000E+00 0. -1.
    2000013    1    1    2    0    0 -0.68320504727E+03 -0.54481285989E+03  0.31157428194E+03  0.13278436362E+04  0.95000000000E+03 0.  0.
   -2000013    1    1    2    0    0  0.68320504727E+03  0.54481285989E+03  0.90941335817E+03  0.15789625850E+04  0.95000000000E+03 0.  0.
<mgrwt>
<rscale>  0 0.26379370E+04</rscale>
<asrwt>0</asrwt>
<pdfrwt beam="1">  1        2 0.31752260E+00 0.26379370E+04</pdfrwt>
<pdfrwt beam="2">  1       -2 0.12967835E+00 0.26379370E+04</pdfrwt>
<totfact> 0.23720643E+00</totfact>
</mgrwt>
</event>
<event>
 4    1  0.1308745E-008  0.2480439E+04  0.7816531E-02  0.8409988E-01
         -2   -1    0    0    0  501 -0.00000000000E+00  0.00000000000E+00  0.79639764934E+03  0.79639764934E+03  0.00000000000E+00 0. -1.
          2   -1    0    0  501    0  0.00000000000E+00 -0.00000000000E+00 -0.19313775078E+04  0.19313775078E+04  0.00000000000E+00 0.  1.
    2000013    1    1    2    0    0  0.63498481653E+02 -0.70608524823E+03 -0.96863120760E+03  0.15307954962E+04  0.95000000000E+03 0.  0.
   -2000013    1    1    2    0    0 -0.63498481653E+02  0.70608524823E+03 -0.16634865084E+03  0.11969796609E+04  0.95000000000E+03 0.  0.
<mgrwt>
<rscale>  0 0.24804391E+04</rscale>
<asrwt>0</asrwt>
<pdfrwt beam="2">  1        2 0.29713500E+00 0.24804391E+04</pdfrwt>
<pdfrwt beam="1">  1       -2 0.12252271E+00 0.24804391E+04</pdfrwt>
<totfact> 0.32854378E+00</totfact>
</mgrwt>
</event>
<event>
 4    1  0.1308745E-008  0.2484481E+04  0.7816531E-02  0.8408535E-01
          1   -1    0    0  501    0  0.00000000000E+00  0.00000000000E+00  0.12873255579E+04  0.12873255579E+04  0.00000000000E+00 0. -1.
         -1   -1    0    0    0  501 -0.00000000000E+00 -0.00000000000E+00 -0.11987347196E+04  0.11987347196E+04  0.00000000000E+00 0.  1.
    2000013    1    1    2    0    0 -0.30426086822E+03 -0.56439612016E+03  0.52370760483E+03  0.12601140074E+04  0.95000000000E+03 0.  0.
   -2000013    1    1    2    0    0  0.30426086822E+03  0.56439612016E+03 -0.43511676653E+03  0.12259462700E+04  0.95000000000E+03 0.  0.
<mgrwt>
<rscale>  0 0.24844813E+04</rscale>
<asrwt>0</asrwt>
<pdfrwt beam="1">  1        1 0.19805008E+00 0.24844813E+04</pdfrwt>
<pdfrwt beam="2">  1       -1 0.18442073E+00 0.24844813E+04</pdfrwt>
<totfact> 0.15900675E+00</totfact>
</mgrwt>
</event>
<event>
 4    1  0.1308745E-008  0.4182628E+04  0.7816531E-02  0.7968685E-01
          2   -1    0    0  501    0  0.00000000000E+00  0.00000000000E+00  0.14317329151E+04  0.14317329151E+04  0.00000000000E+00 0.  1.
         -2   -1    0    0    0  501 -0.00000000000E+00 -0.00000000000E+00 -0.30547553372E+04  0.30547553372E+04  0.00000000000E+00 0. -1.
    2000013    1    1    2    0    0 -0.11322023966E+04  0.13272892406E+04 -0.11016431437E+03  0.19895263686E+04  0.95000000000E+03 0.  0.
   -2000013    1    1    2    0    0  0.11322023966E+04 -0.13272892406E+04 -0.15128581077E+04  0.24969618838E+04  0.95000000000E+03 0.  0.
<mgrwt>
<rscale>  0 0.41826278E+04</rscale>
<asrwt>0</asrwt>
<pdfrwt beam="1">  1        2 0.22026660E+00 0.41826278E+04</pdfrwt>
<pdfrwt beam="2">  1       -2 0.46996236E+00 0.41826278E+04</pdfrwt>
<totfact> 0.27707779E-02</totfact>
</mgrwt>
</event>
<event>
 4    1  0.1308745E-008  0.3118505E+04  0.7816531E-02  0.8210678E-01
         -2   -1    0    0    0  501 -0.00000000000E+00  0.00000000000E+00  0.80803580737E+03  0.80803580737E+03  0.00000000000E+00 0.  1.
          2   -1    0    0  501    0  0.00000000000E+00 -0.00000000000E+00 -0.30088613059E+04  0.30088613059E+04  0.00000000000E+00 0. -1.
    2000013    1    1    2    0    0  0.33090176313E+03  0.56180726513E+03 -0.23862281734E+04  0.26498506138E+04  0.95000000000E+03 0.  0.
   -2000013    1    1    2    0    0 -0.33090176313E+03 -0.56180726513E+03  0.18540267489E+03  0.11670464994E+04  0.95000000000E+03 0.  0.
<mgrwt>
<rscale>  0 0.31185046E+04</rscale>
<asrwt>0</asrwt>
<pdfrwt beam="2">  1        2 0.46290175E+00 0.31185046E+04</pdfrwt>
<pdfrwt beam="1">  1       -2 0.12431320E+00 0.31185046E+04</pdfrwt>
<totfact> 0.70796304E-01</totfact>
</mgrwt>
</event>
<event>
 4    1  0.1308745E-008  0.2386293E+04  0.7816531E-02  0.8444653E-01
          2   -1    0    0  501    0  0.00000000000E+00  0.00000000000E+00  0.18993562295E+04  0.18993562295E+04  0.00000000000E+00 0.  1.
         -2   -1    0    0    0  501 -0.00000000000E+00 -0.00000000000E+00 -0.74951621272E+03  0.74951621272E+03  0.00000000000E+00 0. -1.
    2000013    1    1    2    0    0  0.20330228693E+03 -0.42318033386E+03  0.11836057252E+04  0.15886585308E+04  0.95000000000E+03 0.  0.
   -2000013    1    1    2    0    0 -0.20330228693E+03  0.42318033386E+03 -0.33765708426E+02  0.10602139114E+04  0.95000000000E+03 0.  0.
<mgrwt>
<rscale>  0 0.23862928E+04</rscale>
<asrwt>0</asrwt>
<pdfrwt beam="1">  1        2 0.29220865E+00 0.23862928E+04</pdfrwt>
<pdfrwt beam="2">  1       -2 0.11531019E+00 0.23862928E+04</pdfrwt>
<totfact> 0.40077520E+00</totfact>
</mgrwt>
</event>
<event>
 4    1  0.1308745E-008  0.2957968E+04  0.7816531E-02  0.8255836E-01
          2   -1    0    0  501    0  0.00000000000E+00  0.00000000000E+00  0.27023091315E+04  0.27023091315E+04  0.00000000000E+00 0.  1.
         -2   -1    0    0    0  501 -0.00000000000E+00 -0.00000000000E+00 -0.80945332817E+03  0.80945332817E+03  0.00000000000E+00 0. -1.
    2000013    1    1    2    0    0  0.33876254814E+03  0.10478047558E+04  0.62733633710E+03  0.15838894375E+04  0.95000000000E+03 0.  0.
   -2000013    1    1    2    0    0 -0.33876254814E+03 -0.10478047558E+04  0.12655194663E+04  0.19278730222E+04  0.95000000000E+03 0.  0.
<mgrwt>
<rscale>  0 0.29579676E+04</rscale>
<asrwt>0</asrwt>
<pdfrwt beam="1">  1        2 0.41573986E+00 0.29579676E+04</pdfrwt>
<pdfrwt beam="2">  1       -2 0.12453128E+00 0.29579676E+04</pdfrwt>
<totfact> 0.11001700E+00</totfact>
</mgrwt>
</event>
<event>
 4    1  0.1308745E-008  0.2782622E+04  0.7816531E-02  0.8308684E-01
          2   -1    0    0  501    0  0.00000000000E+00  0.00000000000E+00  0.22979541593E+04  0.22979541593E+04  0.00000000000E+00 0.  1.
         -2   -1    0    0    0  501 -0.00000000000E+00 -0.00000000000E+00 -0.84237834199E+03  0.84237834199E+03  0.00000000000E+00 0. -1.
    2000013    1    1    2    0    0  0.76471058415E+03 -0.35007902407E+03  0.13720605374E+04  0.18687931183E+04  0.95000000000E+03 0.  0.
   -2000013    1    1    2    0    0 -0.76471058415E+03  0.35007902407E+03  0.83515279907E+02  0.12715393830E+04  0.95000000000E+03 0.  0.
<mgrwt>
<rscale>  0 0.27826224E+04</rscale>
<asrwt>0</asrwt>
<pdfrwt beam="1">  1        2 0.35353141E+00 0.27826224E+04</pdfrwt>
<pdfrwt beam="2">  1       -2 0.12959667E+00 0.27826224E+04</pdfrwt>
<totfact> 0.17337236E+00</totfact>
</mgrwt>
</event>
<event>
 4    1  0.1308745E-008  0.3292814E+04  0.7816531E-02  0.8164726E-01
         -2   -1    0    0    0  501 -0.00000000000E+00  0.00000000000E+00  0.43092083090E+04  0.43092083090E+04  0.00000000000E+00 0.  1.
          2   -1    0    0  501    0  0.00000000000E+00 -0.00000000000E+00 -0.62903817543E+03  0.62903817543E+03  0.00000000000E+00 0. -1.
    2000013    1    1    2    0    0  0.63517309936E+01 -0.84455352588E+03  0.34092982445E+04  0.36385609137E+04  0.95000000000E+03 0.  0.
   -2000013    1    1    2    0    0 -0.63517309936E+01  0.84455352588E+03  0.27087188908E+03  0.12996855708E+04  0.95000000000E+03 0.  0.
<mgrwt>
<rscale>  0 0.32928143E+04</rscale>
<asrwt>0</asrwt>
<pdfrwt beam="2">  1        2 0.96775106E-01 0.32928143E+04</pdfrwt>
<pdfrwt beam="1">  1       -2 0.66295511E+00 0.32928143E+04</pdfrwt>
<totfact> 0.11801442E-02</totfact>
</mgrwt>
</event>
<event>
 4    1  0.1308745E-008  0.2343299E+04  0.7816531E-02  0.8461042E-01
         -2   -1    0    0    0  501 -0.00000000000E+00  0.00000000000E+00  0.13200087942E+04  0.13200087942E+04  0.00000000000E+00 0. -1.
          2   -1    0    0  501    0  0.00000000000E+00 -0.00000000000E+00 -0.10399650199E+04  0.10399650199E+04  0.00000000000E+00 0.  1.
    2000013    1    1    2    0    0 -0.35913514871E+03  0.55385907252E+03 -0.47109456188E+02  0.11577811659E+04  0.95000000000E+03 0.  0.
   -2000013    1    1    2    0    0  0.35913514871E+03 -0.55385907252E+03  0.32715323052E+03  0.12021926482E+04  0.95000000000E+03 0.  0.
<mgrwt>
<rscale>  0 0.23432994E+04</rscale>
<asrwt>0</asrwt>
<pdfrwt beam="2">  1        2 0.15999462E+00 0.23432994E+04</pdfrwt>
<pdfrwt beam="1">  1       -2 0.20307828E+00 0.23432994E+04</pdfrwt>
<totfact> 0.27239780E+00</totfact>
</mgrwt>
</event>
<event>
 4    1  0.1308745E-008  0.2537624E+04  0.7816531E-02  0.8389703E-01
          2   -1    0    0  501    0  0.00000000000E+00  0.00000000000E+00  0.12475994360E+04  0.12475994360E+04  0.00000000000E+00 0.  1.
         -2   -1    0    0    0  501 -0.00000000000E+00 -0.00000000000E+00 -0.12903852254E+04  0.12903852254E+04  0.00000000000E+00 0. -1.
    2000013    1    1    2    0    0  0.59789307281E+03 -0.58898548186E+03  0.33422331030E+02  0.12680682460E+04  0.95000000000E+03 0.  0.
   -2000013    1    1    2    0    0 -0.59789307281E+03  0.58898548186E+03 -0.76208120377E+02  0.12699164153E+04  0.95000000000E+03 0.  0.
<mgrwt>
<rscale>  0 0.25376240E+04</rscale>
<asrwt>0</asrwt>
<pdfrwt beam="1">  1        2 0.19193837E+00 0.25376240E+04</pdfrwt>
<pdfrwt beam="2">  1       -2 0.19852080E+00 0.25376240E+04</pdfrwt>
<totfact> 0.21460680E+00</totfact>
</mgrwt>
</event>
<event>
 4    1  0.1308745E-008  0.2150704E+04  0.7816531E-02  0.8539231E-01
          2   -1    0    0  501    0  0.00000000000E+00  0.00000000000E+00  0.19056642037E+04  0.19056642037E+04  0.00000000000E+00 0.  1.
         -2   -1    0    0    0  501 -0.00000000000E+00 -0.00000000000E+00 -0.60681333276E+03  0.60681333276E+03  0.00000000000E+00 0. -1.
    2000013    1    1    2    0    0 -0.35071553934E+02  0.49075089864E+03  0.77641161860E+03  0.13218855699E+04  0.95000000000E+03 0.  0.
   -2000013    1    1    2    0    0  0.35071553934E+02 -0.49075089864E+03  0.52243925230E+03  0.11905919665E+04  0.95000000000E+03 0.  0.
<mgrwt>
<rscale>  0 0.21507045E+04</rscale>
<asrwt>0</asrwt>
<pdfrwt beam="1">  1        2 0.29317911E+00 0.21507045E+04</pdfrwt>
<pdfrwt beam="2">  1       -2 0.93355898E-01 0.21507045E+04</pdfrwt>
<totfact> 0.67159699E+00</totfact>
</mgrwt>
</event>
<event>
 4    1  0.1308745E-008  0.2434384E+04  0.7816531E-02  0.8426742E-01
         -2   -1    0    0    0  501 -0.00000000000E+00  0.00000000000E+00  0.18219426487E+04  0.18219426487E+04  0.00000000000E+00 0. -1.
          2   -1    0    0  501    0  0.00000000000E+00 -0.00000000000E+00 -0.81317422818E+03  0.81317422818E+03  0.00000000000E+00 0.  1.
    2000013    1    1    2    0    0  0.25358326577E+03 -0.66820242915E+03  0.78718917476E+03  0.14258210813E+04  0.95000000000E+03 0.  0.
   -2000013    1    1    2    0    0 -0.25358326577E+03  0.66820242915E+03  0.22157924573E+03  0.12092957956E+04  0.95000000000E+03 0.  0.
<mgrwt>
<rscale>  0 0.24343844E+04</rscale>
<asrwt>0</asrwt>
<pdfrwt beam="2">  1        2 0.12510373E+00 0.24343844E+04</pdfrwt>
<pdfrwt beam="1">  1       -2 0.28029887E+00 0.24343844E+04</pdfrwt>
<totfact> 0.12673902E+00</totfact>
</mgrwt>
</event>
<event>
 4    1  0.1308745E-008  0.2828069E+04  0.7816531E-02  0.8294607E-01
         -2   -1    0    0    0  501 -0.00000000000E+00  0.00000000000E+00  0.77512635999E+03  0.77512635999E+03  0.00000000000E+00 0. -1.
          2   -1    0    0  501    0  0.00000000000E+00 -0.00000000000E+00 -0.25795708159E+04  0.25795708159E+04  0.00000000000E+00 0.  1.
    2000013    1    1    2    0    0  0.63004941249E+03  0.55874807405E+02 -0.18924871798E+04  0.22099981860E+04  0.95000000000E+03 0.  0.
   -2000013    1    1    2    0    0 -0.63004941249E+03 -0.55874807405E+02  0.88042723905E+02  0.11446989899E+04  0.95000000000E+03 0.  0.
<mgrwt>
<rscale>  0 0.28280688E+04</rscale>
<asrwt>0</asrwt>
<pdfrwt beam="2">  1        2 0.39685706E+00 0.28280688E+04</pdfrwt>
<pdfrwt beam="1">  1       -2 0.11925021E+00 0.28280688E+04</pdfrwt>
<totfact> 0.14644364E+00</totfact>
</mgrwt>
</event>
<event>
 4    1  0.1308745E-008  0.3861891E+04  0.7816531E-02  0.8033002E-01
         -2   -1    0    0    0  501 -0.00000000000E+00  0.00000000000E+00  0.10651829991E+04  0.10651829991E+04  0.00000000000E+00 0.  1.
          2   -1    0    0  501    0  0.00000000000E+00 -0.00000000000E+00 -0.35003845087E+04  0.35003845087E+04  0.00000000000E+00 0. -1.
    2000013    1    1    2    0    0 -0.90622817195E+03  0.12753849001E+04 -0.19446302965E+04  0.26705698143E+04  0.95000000000E+03 0.  0.
   -2000013    1    1    2    0    0  0.90622817195E+03 -0.12753849001E+04 -0.49057121319E+03  0.18949976935E+04  0.95000000000E+03 0.  0.
<mgrwt>
<rscale>  0 0.38618908E+04</rscale>
<asrwt>0</asrwt>
<pdfrwt beam="2">  1        2 0.53852070E+00 0.38618908E+04</pdfrwt>
<pdfrwt beam="1">  1       -2 0.16387430E+00 0.38618908E+04</pdfrwt>
<totfact> 0.15263997E-01</totfact>
</mgrwt>
</event>
<event>
 4    1  0.1308745E-008  0.2461278E+04  0.7816531E-02  0.8416912E-01
         -1   -1    0    0    0  501 -0.00000000000E+00  0.00000000000E+00  0.19819827412E+04  0.19819827412E+04  0.00000000000E+00 0. -1.
          1   -1    0    0  501    0  0.00000000000E+00 -0.00000000000E+00 -0.76412006085E+03  0.76412006085E+03  0.00000000000E+00 0.  1.
    2000013    1    1    2    0    0 -0.30492301325E+03 -0.71076324644E+03  0.47781458660E+03  0.13149027400E+04  0.95000000000E+03 0.  0.
   -2000013    1    1    2    0    0  0.30492301325E+03  0.71076324644E+03  0.74004809374E+03  0.14312000620E+04  0.95000000000E+03 0.  0.
<mgrwt>
<rscale>  0 0.24612783E+04</rscale>
<asrwt>0</asrwt>
<pdfrwt beam="2">  1        1 0.11755693E+00 0.24612783E+04</pdfrwt>
<pdfrwt beam="1">  1       -1 0.30492042E+00 0.24612783E+04</pdfrwt>
<totfact> 0.65066014E-01</totfact>
</mgrwt>
</event>
<event>
 4    1  0.1308745E-008  0.2381201E+04  0.7816531E-02  0.8446575E-01
         -2   -1    0    0    0  501 -0.00000000000E+00  0.00000000000E+00  0.48606971063E+03  0.48606971063E+03  0.00000000000E+00 0. -1.
          2   -1    0    0  501    0  0.00000000000E+00 -0.00000000000E+00 -0.29163101434E+04  0.29163101434E+04  0.00000000000E+00 0.  1.
    2000013    1    1    2    0    0  0.69680773993E+03  0.17115305740E+03 -0.11951351011E+04  0.16869150261E+04  0.95000000000E+03 0.  0.
   -2000013    1    1    2    0    0 -0.69680773993E+03 -0.17115305740E+03 -0.12351053317E+04  0.17154648280E+04  0.95000000000E+03 0.  0.
<mgrwt>
<rscale>  0 0.23812014E+04</rscale>
<asrwt>0</asrwt>
<pdfrwt beam="2">  1        2 0.44866309E+00 0.23812014E+04</pdfrwt>
<pdfrwt beam="1">  1       -2 0.74779957E-01 0.23812014E+04</pdfrwt>
<totfact> 0.28425851E+00</totfact>
</mgrwt>
</event>
<event>
 4    1  0.1308745E-008  0.2841915E+04  0.7816531E-02  0.8290372E-01
         -2   -1    0    0    0  501 -0.00000000000E+00  0.00000000000E+00  0.44750923010E+03  0.44750923010E+03  0.00000000000E+00 0. -1.
          2   -1    0    0  501    0  0.00000000000E+00 -0.00000000000E+00 -0.45119080467E+04  0.45119080467E+04  0.00000000000E+00 0.  1.
    2000013    1    1    2    0    0  0.32284817882E+03  0.90660694357E+03 -0.12706222659E+04  0.18555721595E+04  0.95000000000E+03 0.  0.
   -2000013    1    1    2    0    0 -0.32284817882E+03 -0.90660694357E+03 -0.27937765507E+04  0.31038451173E+04  0.95000000000E+03 0.  0.
<mgrwt>
<rscale>  0 0.28419152E+04</rscale>
<asrwt>0</asrwt>
<pdfrwt beam="2">  1        2 0.69413972E+00 0.28419152E+04</pdfrwt>
<pdfrwt beam="1">  1       -2 0.68847572E-01 0.28419152E+04</pdfrwt>
<totfact> 0.20045714E-01</totfact>
</mgrwt>
</event>
<event>
 4    1  0.1308745E-008  0.2211224E+04  0.7816531E-02  0.8513771E-01
          2   -1    0    0  501    0  0.00000000000E+00  0.00000000000E+00  0.12659039994E+04  0.12659039994E+04  0.00000000000E+00 0.  1.
         -2   -1    0    0    0  501 -0.00000000000E+00 -0.00000000000E+00 -0.96561679121E+03  0.96561679121E+03  0.00000000000E+00 0. -1.
    2000013    1    1    2    0    0 -0.50799685895E+03  0.20968543737E+03  0.15315770901E+02  0.10976171301E+04  0.95000000000E+03 0.  0.
   -2000013    1    1    2    0    0  0.50799685895E+03 -0.20968543737E+03  0.28497143728E+03  0.11339036606E+04  0.95000000000E+03 0.  0.
<mgrwt>
<rscale>  0 0.22112242E+04</rscale>
<asrwt>0</asrwt>
<pdfrwt beam="1">  1        2 0.19475446E+00 0.22112242E+04</pdfrwt>
<pdfrwt beam="2">  1       -2 0.14855643E+00 0.22112242E+04</pdfrwt>
<totfact> 0.48597308E+00</totfact>
</mgrwt>
</event>
<event>
 4    1  0.1308745E-008  0.3081231E+04  0.7816531E-02  0.8220908E-01
         -2   -1    0    0    0  501 -0.00000000000E+00  0.00000000000E+00  0.92658475258E+03  0.92658475258E+03  0.00000000000E+00 0. -1.
          2   -1    0    0  501    0  0.00000000000E+00 -0.00000000000E+00 -0.25615530374E+04  0.25615530374E+04  0.00000000000E+00 0.  1.
    2000013    1    1    2    0    0  0.87037612006E+03  0.68646414699E+03 -0.26034462852E+03  0.14829251300E+04  0.95000000000E+03 0.  0.
   -2000013    1    1    2    0    0 -0.87037612006E+03 -0.68646414699E+03 -0.13746236563E+04  0.20052126600E+04  0.95000000000E+03 0.  0.
<mgrwt>
<rscale>  0 0.30812309E+04</rscale>
<asrwt>0</asrwt>
<pdfrwt beam="2">  1        2 0.39408508E+00 0.30812309E+04</pdfrwt>
<pdfrwt beam="1">  1       -2 0.14255150E+00 0.30812309E+04</pdfrwt>
<totfact> 0.93363960E-01</totfact>
</mgrwt>
</event>
<event>
 4    1  0.1308745E-008  0.2698768E+04  0.7816531E-02  0.8335405E-01
         -2   -1    0    0    0  501 -0.00000000000E+00  0.00000000000E+00  0.87290867935E+03  0.87290867935E+03  0.00000000000E+00 0. -1.
          2   -1    0    0  501    0  0.00000000000E+00 -0.00000000000E+00 -0.20859417534E+04  0.20859417534E+04  0.00000000000E+00 0.  1.
    2000013    1    1    2    0    0 -0.11314937160E+03 -0.95141121343E+03 -0.62704486072E+03  0.14878411658E+04  0.95000000000E+03 0.  0.
   -2000013    1    1    2    0    0  0.11314937160E+03  0.95141121343E+03 -0.58598821338E+03  0.14710092670E+04  0.95000000000E+03 0.  0.
<mgrwt>
<rscale>  0 0.26987676E+04</rscale>
<asrwt>0</asrwt>
<pdfrwt beam="2">  1        2 0.32091412E+00 0.26987676E+04</pdfrwt>
<pdfrwt beam="1">  1       -2 0.13429364E+00 0.26987676E+04</pdfrwt>
<totfact> 0.20989763E+00</totfact>
</mgrwt>
</event>
<event>
 4    1  0.1308745E-008  0.2929212E+04  0.7816531E-02  0.8264239E-01
          2   -1    0    0  501    0  0.00000000000E+00  0.00000000000E+00  0.26875604558E+04  0.26875604558E+04  0.00000000000E+00 0.  1.
         -2   -1    0    0    0  501 -0.00000000000E+00 -0.00000000000E+00 -0.79814785387E+03  0.79814785387E+03  0.00000000000E+00 0. -1.
    2000013    1    1    2    0    0  0.79648656319E+03  0.44259934720E+03  0.18062543592E+03  0.13286875387E+04  0.95000000000E+03 0.  0.
   -2000013    1    1    2    0    0 -0.79648656319E+03 -0.44259934720E+03  0.17087871660E+04  0.21570207709E+04  0.95000000000E+03 0.  0.
<mgrwt>
<rscale>  0 0.29292119E+04</rscale>
<asrwt>0</asrwt>
<pdfrwt beam="1">  1        2 0.41347083E+00 0.29292119E+04</pdfrwt>
<pdfrwt beam="2">  1       -2 0.12279198E+00 0.29292119E+04</pdfrwt>
<totfact> 0.11656907E+00</totfact>
</mgrwt>
</event>
<event>
 4    1  0.1308745E-008  0.2069215E+04  0.7816531E-02  0.8574927E-01
         -2   -1    0    0    0  501 -0.00000000000E+00  0.00000000000E+00  0.77542366049E+03  0.77542366049E+03  0.00000000000E+00 0. -1.
          2   -1    0    0  501    0  0.00000000000E+00 -0.00000000000E+00 -0.13804225280E+04  0.13804225280E+04  0.00000000000E+00 0.  1.
    2000013    1    1    2    0    0  0.28509785382E+03  0.75485074341E+02 -0.59889821470E+03  0.11611019999E+04  0.95000000000E+03 0.  0.
   -2000013    1    1    2    0    0 -0.28509785382E+03 -0.75485074341E+02 -0.61006528264E+01  0.99474418856E+03  0.95000000000E+03 0.  0.
<mgrwt>
<rscale>  0 0.20692146E+04</rscale>
<asrwt>0</asrwt>
<pdfrwt beam="2">  1        2 0.21237269E+00 0.20692146E+04</pdfrwt>
<pdfrwt beam="1">  1       -2 0.11929595E+00 0.20692146E+04</pdfrwt>
<totfact> 0.73936553E+00</totfact>
</mgrwt>
</event>
<event>
 4    1  0.1308745E-008  0.4041262E+04  0.7816531E-02  0.7996274E-01
          2   -1    0    0  501    0  0.00000000000E+00  0.00000000000E+00  0.18363676185E+04  0.18363676185E+04  0.00000000000E+00 0.  1.
         -2   -1    0    0    0  501 -0.00000000000E+00 -0.00000000000E+00 -0.22233832739E+04  0.22233832739E+04  0.00000000000E+00 0. -1.
    2000013    1    1    2    0    0  0.11297279369E+04 -0.13613851761E+04 -0.41991471695E+03  0.20514587928E+04  0.95000000000E+03 0.  0.
   -2000013    1    1    2    0    0 -0.11297279369E+04  0.13613851761E+04  0.32899061536E+02  0.20082920996E+04  0.95000000000E+03 0.  0.
<mgrwt>
<rscale>  0 0.40412617E+04</rscale>
<asrwt>0</asrwt>
<pdfrwt beam="1">  1        2 0.28251809E+00 0.40412617E+04</pdfrwt>
<pdfrwt beam="2">  1       -2 0.34205897E+00 0.40412617E+04</pdfrwt>
<totfact> 0.11302014E-01</totfact>
</mgrwt>
</event>
<event>
 4    1  0.1308745E-008  0.2244182E+04  0.7816531E-02  0.8500261E-01
          2   -1    0    0  501    0  0.00000000000E+00  0.00000000000E+00  0.97119602038E+03  0.97119602038E+03  0.00000000000E+00 0.  1.
         -2   -1    0    0    0  501 -0.00000000000E+00 -0.00000000000E+00 -0.12964301863E+04  0.12964301863E+04  0.00000000000E+00 0. -1.
    2000013    1    1    2    0    0  0.29077572953E+03 -0.43571731630E+03 -0.45229604661E+03  0.11753602930E+04  0.95000000000E+03 0.  0.
   -2000013    1    1    2    0    0 -0.29077572953E+03  0.43571731630E+03  0.12706188069E+03  0.10922659137E+04  0.95000000000E+03 0.  0.
<mgrwt>
<rscale>  0 0.22441817E+04</rscale>
<asrwt>0</asrwt>
<pdfrwt beam="1">  1        2 0.14941477E+00 0.22441817E+04</pdfrwt>
<pdfrwt beam="2">  1       -2 0.19945080E+00 0.22441817E+04</pdfrwt>
<totfact> 0.32107946E+00</totfact>
</mgrwt>
</event>
<event>
 4    1  0.1308745E-008  0.3008194E+04  0.7816531E-02  0.8241395E-01
          2   -1    0    0  501    0  0.00000000000E+00  0.00000000000E+00  0.25795631416E+04  0.25795631416E+04  0.00000000000E+00 0.  1.
         -2   -1    0    0    0  501 -0.00000000000E+00 -0.00000000000E+00 -0.87701206342E+03  0.87701206342E+03  0.00000000000E+00 0. -1.
    2000013    1    1    2    0    0  0.17182973908E+03  0.99564172137E+03  0.18227379583E+03  0.13987678983E+04  0.95000000000E+03 0.  0.
   -2000013    1    1    2    0    0 -0.17182973908E+03 -0.99564172137E+03  0.15202772824E+04  0.20578073068E+04  0.95000000000E+03 0.  0.
<mgrwt>
<rscale>  0 0.30081941E+04</rscale>
<asrwt>0</asrwt>
<pdfrwt beam="1">  1        2 0.39685586E+00 0.30081941E+04</pdfrwt>
<pdfrwt beam="2">  1       -2 0.13492493E+00 0.30081941E+04</pdfrwt>
<totfact> 0.10570163E+00</totfact>
</mgrwt>
</event>
<event>
 4    1  0.1308745E-008  0.2589157E+04  0.7816531E-02  0.8371894E-01
          2   -1    0    0  501    0  0.00000000000E+00  0.00000000000E+00  0.13498623496E+04  0.13498623496E+04  0.00000000000E+00 0.  1.
         -2   -1    0    0    0  501 -0.00000000000E+00 -0.00000000000E+00 -0.12415584847E+04  0.12415584847E+04  0.00000000000E+00 0. -1.
    2000013    1    1    2    0    0 -0.78801814556E+03  0.24841383358E+03  0.35566447397E+03  0.13083116022E+04  0.95000000000E+03 0.  0.
   -2000013    1    1    2    0    0  0.78801814556E+03 -0.24841383358E+03 -0.24736060914E+03  0.12831092321E+04  0.95000000000E+03 0.  0.
<mgrwt>
<rscale>  0 0.25891567E+04</rscale>
<asrwt>0</asrwt>
<pdfrwt beam="1">  1        2 0.20767113E+00 0.25891567E+04</pdfrwt>
<pdfrwt beam="2">  1       -2 0.19100900E+00 0.25891567E+04</pdfrwt>
<totfact> 0.20895738E+00</totfact>
</mgrwt>
</event>
<event>
 4    1  0.1308745E-008  0.2492368E+04  0.7816531E-02  0.8405709E-01
          2   -1    0    0  501    0  0.00000000000E+00  0.00000000000E+00  0.43239949605E+04  0.43239949605E+04  0.00000000000E+00 0.  1.
         -2   -1    0    0    0  501 -0.00000000000E+00 -0.00000000000E+00 -0.35915282493E+03  0.35915282493E+03  0.00000000000E+00 0. -1.
    2000013    1    1    2    0    0 -0.32537840226E+03 -0.71011302365E+03  0.23598297184E+04  0.26610952465E+04  0.95000000000E+03 0.  0.
   -2000013    1    1    2    0    0  0.32537840226E+03  0.71011302365E+03  0.16050124172E+04  0.20220525390E+04  0.95000000000E+03 0.  0.
<mgrwt>
<rscale>  0 0.24923684E+04</rscale>
<asrwt>0</asrwt>
<pdfrwt beam="1">  1        2 0.66522996E+00 0.24923684E+04</pdfrwt>
<pdfrwt beam="2">  1       -2 0.55254284E-01 0.24923684E+04</pdfrwt>
<totfact> 0.49834648E-01</totfact>
</mgrwt>
</event>
<event>
 4    1  0.1308745E-008  0.2326561E+04  0.7816531E-02  0.8467522E-01
         -2   -1    0    0    0  501 -0.00000000000E+00  0.00000000000E+00  0.66469627365E+03  0.66469627365E+03  0.00000000000E+00 0. -1.
          2   -1    0    0  501    0  0.00000000000E+00 -0.00000000000E+00 -0.20358493412E+04  0.20358493412E+04  0.00000000000E+00 0.  1.
    2000013    1    1    2    0    0 -0.51472359298E+03 -0.69679944368E+02 -0.19184901809E+03  0.10995916140E+04  0.95000000000E+03 0.  0.
   -2000013    1    1    2    0    0  0.51472359298E+03  0.69679944368E+02 -0.11793040495E+04  0.16009540009E+04  0.95000000000E+03 0.  0.
<mgrwt>
<rscale>  0 0.23265610E+04</rscale>
<asrwt>0</asrwt>
<pdfrwt beam="2">  1        2 0.31320759E+00 0.23265610E+04</pdfrwt>
<pdfrwt beam="1">  1       -2 0.10226097E+00 0.23265610E+04</pdfrwt>
<totfact> 0.45204389E+00</totfact>
</mgrwt>
</event>
<event>
 4    1  0.1308745E-008  0.2562102E+04  0.7816531E-02  0.8381190E-01
         -2   -1    0    0    0  501 -0.00000000000E+00  0.00000000000E+00  0.99864917373E+03  0.99864917373E+03  0.00000000000E+00 0. -1.
          2   -1    0    0  501    0  0.00000000000E+00 -0.00000000000E+00 -0.16433109722E+04  0.16433109722E+04  0.00000000000E+00 0.  1.
    2000013    1    1    2    0    0  0.31667279688E+02 -0.60569750735E+03  0.30551383240E+03  0.11677803684E+04  0.95000000000E+03 0.  0.
   -2000013    1    1    2    0    0 -0.31667279688E+02  0.60569750735E+03 -0.95017563088E+03  0.14741797775E+04  0.95000000000E+03 0.  0.
<mgrwt>
<rscale>  0 0.25621016E+04</rscale>
<asrwt>0</asrwt>
<pdfrwt beam="2">  1        2 0.25281707E+00 0.25621016E+04</pdfrwt>
<pdfrwt beam="1">  1       -2 0.15363834E+00 0.25621016E+04</pdfrwt>
<totfact> 0.26310839E+00</totfact>
</mgrwt>
</event>
<event>
 4    1  0.1308745E-008  0.2131409E+04  0.7816531E-02  0.8547532E-01
         -2   -1    0    0    0  501 -0.00000000000E+00  0.00000000000E+00  0.11584657049E+04  0.11584657049E+04  0.00000000000E+00 0. -1.
          2   -1    0    0  501    0  0.00000000000E+00 -0.00000000000E+00 -0.98037075685E+03  0.98037075685E+03  0.00000000000E+00 0.  1.
    2000013    1    1    2    0    0  0.40302642495E+03 -0.26163368917E+03  0.40469962066E+02  0.10653733169E+04  0.95000000000E+03 0.  0.
   -2000013    1    1    2    0    0 -0.40302642495E+03  0.26163368917E+03  0.13762498593E+03  0.10734631448E+04  0.95000000000E+03 0.  0.
<mgrwt>
<rscale>  0 0.21314088E+04</rscale>
<asrwt>0</asrwt>
<pdfrwt beam="2">  1        2 0.15082627E+00 0.21314088E+04</pdfrwt>
<pdfrwt beam="1">  1       -2 0.17822549E+00 0.21314088E+04</pdfrwt>
<totfact> 0.44459795E+00</totfact>
</mgrwt>
</event>
<event>
 4    1  0.1308745E-008  0.2970964E+04  0.7816531E-02  0.8252071E-01
         -2   -1    0    0    0  501 -0.00000000000E+00  0.00000000000E+00  0.10087089882E+04  0.10087089882E+04  0.00000000000E+00 0. -1.
          2   -1    0    0  501    0  0.00000000000E+00 -0.00000000000E+00 -0.21876052966E+04  0.21876052966E+04  0.00000000000E+00 0.  1.
    2000013    1    1    2    0    0 -0.90093750800E+01 -0.10815466884E+04 -0.98376283947E+03  0.17435921921E+04  0.95000000000E+03 0.  0.
   -2000013    1    1    2    0    0  0.90093750800E+01  0.10815466884E+04 -0.19513346895E+03  0.14527220927E+04  0.95000000000E+03 0.  0.
<mgrwt>
<rscale>  0 0.29709642E+04</rscale>
<asrwt>0</asrwt>
<pdfrwt beam="2">  1        2 0.33655466E+00 0.29709642E+04</pdfrwt>
<pdfrwt beam="1">  1       -2 0.15518600E+00 0.29709642E+04</pdfrwt>
<totfact> 0.12320759E+00</totfact>
</mgrwt>
</event>
<event>
 4    1  0.1308745E-008  0.2236579E+04  0.7816531E-02  0.8503356E-01
          2   -1    0    0  501    0  0.00000000000E+00  0.00000000000E+00  0.14303560033E+04  0.14303560033E+04  0.00000000000E+00 0.  1.
         -2   -1    0    0    0  501 -0.00000000000E+00 -0.00000000000E+00 -0.87430767844E+03  0.87430767844E+03  0.00000000000E+00 0. -1.
    2000013    1    1    2    0    0  0.22902495173E+03 -0.28717039339E+03 -0.19771403561E+03  0.10375500485E+04  0.95000000000E+03 0.  0.
   -2000013    1    1    2    0    0 -0.22902495173E+03  0.28717039339E+03  0.75376236045E+03  0.12671136332E+04  0.95000000000E+03 0.  0.
<mgrwt>
<rscale>  0 0.22365788E+04</rscale>
<asrwt>0</asrwt>
<pdfrwt beam="1">  1        2 0.22005477E+00 0.22365788E+04</pdfrwt>
<pdfrwt beam="2">  1       -2 0.13450887E+00 0.22365788E+04</pdfrwt>
<totfact> 0.50464502E+00</totfact>
</mgrwt>
</event>
<event>
 4    1  0.1308745E-008  0.2150149E+04  0.7816531E-02  0.8539468E-01
          2   -1    0    0  501    0  0.00000000000E+00  0.00000000000E+00  0.19999851050E+04  0.19999851050E+04  0.00000000000E+00 0.  1.
         -2   -1    0    0    0  501 -0.00000000000E+00 -0.00000000000E+00 -0.57789695316E+03  0.57789695316E+03  0.00000000000E+00 0. -1.
    2000013    1    1    2    0    0 -0.10250712047E+03  0.44262408050E+03  0.97058306852E+03  0.14321156655E+04  0.95000000000E+03 0.  0.
   -2000013    1    1    2    0    0  0.10250712047E+03 -0.44262408050E+03  0.45150508335E+03  0.11457663927E+04  0.95000000000E+03 0.  0.
<mgrwt>
<rscale>  0 0.21501491E+04</rscale>
<asrwt>0</asrwt>
<pdfrwt beam="1">  1        2 0.30769001E+00 0.21501491E+04</pdfrwt>
<pdfrwt beam="2">  1       -2 0.88907225E-01 0.21501491E+04</pdfrwt>
<totfact> 0.66649667E+00</totfact>
</mgrwt>
</event>
<event>
 4    1  0.1308745E-008  0.3366376E+04  0.7816531E-02  0.8146208E-01
          2   -1    0    0  501    0  0.00000000000E+00  0.00000000000E+00  0.36810166124E+04  0.36810166124E+04  0.00000000000E+00 0.  1.
         -2   -1    0    0    0  501 -0.00000000000E+00 -0.00000000000E+00 -0.76965762976E+03  0.76965762976E+03  0.00000000000E+00 0. -1.
    2000013    1    1    2    0    0  0.12074515582E+04 -0.64521104703E+03  0.11417380663E+04  0.20199758347E+04  0.95000000000E+03 0.  0.
   -2000013    1    1    2    0    0 -0.12074515582E+04  0.64521104703E+03  0.17696209163E+04  0.24306984074E+04  0.95000000000E+03 0.  0.
<mgrwt>
<rscale>  0 0.33663764E+04</rscale>
<asrwt>0</asrwt>
<pdfrwt beam="1">  1        2 0.56631024E+00 0.33663764E+04</pdfrwt>
<pdfrwt beam="2">  1       -2 0.11840887E+00 0.33663764E+04</pdfrwt>
<totfact> 0.27438572E-01</totfact>
</mgrwt>
</event>
<event>
 4    1  0.1308745E-008  0.2747366E+04  0.7816531E-02  0.8319798E-01
          2   -1    0    0  501    0  0.00000000000E+00  0.00000000000E+00  0.28991899772E+04  0.28991899772E+04  0.00000000000E+00 0. -1.
         -2   -1    0    0    0  501 -0.00000000000E+00 -0.00000000000E+00 -0.65087294325E+03  0.65087294325E+03  0.00000000000E+00 0.  1.
    2000013    1    1    2    0    0  0.24469818917E+03 -0.19995702154E+03 -0.91198715949E+02  0.10053244352E+04  0.95000000000E+03 0.  0.
   -2000013    1    1    2    0    0 -0.24469818917E+03  0.19995702154E+03  0.23395157499E+04  0.25447384852E+04  0.95000000000E+03 0.  0.
<mgrwt>
<rscale>  0 0.27473655E+04</rscale>
<asrwt>0</asrwt>
<pdfrwt beam="1">  1        2 0.44602922E+00 0.27473655E+04</pdfrwt>
<pdfrwt beam="2">  1       -2 0.10013430E+00 0.27473655E+04</pdfrwt>
<totfact> 0.14468033E+00</totfact>
</mgrwt>
</event>
<event>
 4    1  0.1308745E-008  0.2477377E+04  0.7816531E-02  0.8411090E-01
         -2   -1    0    0    0  501 -0.00000000000E+00  0.00000000000E+00  0.84656180841E+03  0.84656180841E+03  0.00000000000E+00 0. -1.
          2   -1    0    0  501    0  0.00000000000E+00 -0.00000000000E+00 -0.18124484975E+04  0.18124484975E+04  0.00000000000E+00 0.  1.
    2000013    1    1    2    0    0 -0.57803939065E+03  0.38295227086E+03 -0.90011391047E+03  0.14810425486E+04  0.95000000000E+03 0.  0.
   -2000013    1    1    2    0    0  0.57803939065E+03 -0.38295227086E+03 -0.65772778636E+02  0.11779677573E+04  0.95000000000E+03 0.  0.
<mgrwt>
<rscale>  0 0.24773774E+04</rscale>
<asrwt>0</asrwt>
<pdfrwt beam="2">  1        2 0.27883822E+00 0.24773774E+04</pdfrwt>
<pdfrwt beam="1">  1       -2 0.13024028E+00 0.24773774E+04</pdfrwt>
<totfact> 0.32806162E+00</totfact>
</mgrwt>
</event>
<event>
 4    1  0.1308745E-008  0.2834124E+04  0.7816531E-02  0.8292752E-01
         -4   -1    0    0    0  501 -0.00000000000E+00  0.00000000000E+00  0.15479990444E+04  0.15479990444E+04  0.00000000000E+00 0. -1.
          4   -1    0    0  501    0  0.00000000000E+00 -0.00000000000E+00 -0.12972004704E+04  0.12972004704E+04  0.00000000000E+00 0.  1.
    2000013    1    1    2    0    0 -0.80394767204E+03 -0.48722814490E+03 -0.34744232382E+03  0.13809197272E+04  0.95000000000E+03 0.  0.
   -2000013    1    1    2    0    0  0.80394767204E+03  0.48722814490E+03  0.59824089777E+03  0.14642797876E+04  0.95000000000E+03 0.  0.
<mgrwt>
<rscale>  0 0.28341243E+04</rscale>
<asrwt>0</asrwt>
<pdfrwt beam="2">  1        4 0.19956930E+00 0.28341243E+04</pdfrwt>
<pdfrwt beam="1">  1       -4 0.23815370E+00 0.28341243E+04</pdfrwt>
<totfact> 0.17109127E-02</totfact>
</mgrwt>
</event>
<event>
 4    1  0.1308745E-008  0.2142736E+04  0.7816531E-02  0.8542648E-01
         -2   -1    0    0    0  501 -0.00000000000E+00  0.00000000000E+00  0.13767991067E+04  0.13767991067E+04  0.00000000000E+00 0. -1.
          2   -1    0    0  501    0  0.00000000000E+00 -0.00000000000E+00 -0.83369381501E+03  0.83369381501E+03  0.00000000000E+00 0.  1.
    2000013    1    1    2    0    0 -0.29744048412E+03 -0.33238806588E+03  0.49371388261E+03  0.11598301884E+04  0.95000000000E+03 0.  0.
   -2000013    1    1    2    0    0  0.29744048412E+03  0.33238806588E+03  0.49391409056E+02  0.10506627333E+04  0.95000000000E+03 0.  0.
<mgrwt>
<rscale>  0 0.21427355E+04</rscale>
<asrwt>0</asrwt>
<pdfrwt beam="2">  1        2 0.12826059E+00 0.21427355E+04</pdfrwt>
<pdfrwt beam="1">  1       -2 0.21181525E+00 0.21427355E+04</pdfrwt>
<totfact> 0.33344805E+00</totfact>
</mgrwt>
</event>
<event>
 4    1  0.1308745E-008  0.4493490E+04  0.7816531E-02  0.7911778E-01
          2   -1    0    0  501    0  0.00000000000E+00  0.00000000000E+00  0.19392953809E+04  0.19392953809E+04  0.00000000000E+00 0.  1.
         -2   -1    0    0    0  501 -0.00000000000E+00 -0.00000000000E+00 -0.26029364893E+04  0.26029364893E+04  0.00000000000E+00 0. -1.
    2000013    1    1    2    0    0 -0.84264656154E+03 -0.15215833687E+04 -0.14016454063E+04  0.24274222996E+04  0.95000000000E+03 0.  0.
   -2000013    1    1    2    0    0  0.84264656154E+03  0.15215833687E+04  0.73800429793E+03  0.21148095705E+04  0.95000000000E+03 0.  0.
<mgrwt>
<rscale>  0 0.44934898E+04</rscale>
<asrwt>0</asrwt>
<pdfrwt beam="1">  1        2 0.29835314E+00 0.44934898E+04</pdfrwt>
<pdfrwt beam="2">  1       -2 0.40045177E+00 0.44934898E+04</pdfrwt>
<totfact> 0.40362942E-02</totfact>
</mgrwt>
</event>
<event>
 4    1  0.1308745E-008  0.1988216E+04  0.7816531E-02  0.8612150E-01
         -2   -1    0    0    0  501 -0.00000000000E+00  0.00000000000E+00  0.77567346190E+03  0.77567346190E+03  0.00000000000E+00 0. -1.
          2   -1    0    0  501    0  0.00000000000E+00 -0.00000000000E+00 -0.12740552479E+04  0.12740552479E+04  0.00000000000E+00 0.  1.
    2000013    1    1    2    0    0  0.23108210753E+03  0.14086745766E+03 -0.13389036243E+03  0.99682957931E+03  0.95000000000E+03 0.  0.
   -2000013    1    1    2    0    0 -0.23108210753E+03 -0.14086745766E+03 -0.36449142354E+03  0.10528991304E+04  0.95000000000E+03 0.  0.
<mgrwt>
<rscale>  0 0.19882161E+04</rscale>
<asrwt>0</asrwt>
<pdfrwt beam="2">  1        2 0.19600850E+00 0.19882161E+04</pdfrwt>
<pdfrwt beam="1">  1       -2 0.11933438E+00 0.19882161E+04</pdfrwt>
<totfact> 0.85731211E+00</totfact>
</mgrwt>
</event>
<event>
 4    1  0.1308745E-008  0.3237791E+04  0.7816531E-02  0.8178907E-01
         -1   -1    0    0    0  501 -0.00000000000E+00  0.00000000000E+00  0.17387349152E+04  0.17387349152E+04  0.00000000000E+00 0. -1.
          1   -1    0    0  501    0  0.00000000000E+00 -0.00000000000E+00 -0.15073158862E+04  0.15073158862E+04  0.00000000000E+00 0.  1.
    2000013    1    1    2    0    0  0.46877358489E+03 -0.64285742117E+03  0.11601485076E+04  0.16974860523E+04  0.95000000000E+03 0.  0.
   -2000013    1    1    2    0    0 -0.46877358489E+03  0.64285742117E+03 -0.92872947865E+03  0.15485647492E+04  0.95000000000E+03 0.  0.
<mgrwt>
<rscale>  0 0.32377911E+04</rscale>
<asrwt>0</asrwt>
<pdfrwt beam="2">  1        1 0.23189475E+00 0.32377911E+04</pdfrwt>
<pdfrwt beam="1">  1       -1 0.26749768E+00 0.32377911E+04</pdfrwt>
<totfact> 0.28920869E-01</totfact>
</mgrwt>
</event>
<event>
 4    1  0.1308745E-008  0.3013027E+04  0.7816531E-02  0.8240021E-01
          2   -1    0    0  501    0  0.00000000000E+00  0.00000000000E+00  0.14225025312E+04  0.14225025312E+04  0.00000000000E+00 0.  1.
         -2   -1    0    0    0  501 -0.00000000000E+00 -0.00000000000E+00 -0.15954857294E+04  0.15954857294E+04  0.00000000000E+00 0. -1.
    2000013    1    1    2    0    0  0.80529040925E+03  0.67196843419E+03  0.43112649330E+03  0.14793256143E+04  0.95000000000E+03 0.  0.
   -2000013    1    1    2    0    0 -0.80529040925E+03 -0.67196843419E+03 -0.60410969148E+03  0.15386626463E+04  0.95000000000E+03 0.  0.
<mgrwt>
<rscale>  0 0.30130267E+04</rscale>
<asrwt>0</asrwt>
<pdfrwt beam="1">  1        2 0.21884654E+00 0.30130267E+04</pdfrwt>
<pdfrwt beam="2">  1       -2 0.24545934E+00 0.30130267E+04</pdfrwt>
<totfact> 0.82333553E-01</totfact>
</mgrwt>
</event>
<event>
 4    1  0.1308745E-008  0.2442935E+04  0.7816531E-02  0.8423602E-01
          2   -1    0    0  501    0  0.00000000000E+00  0.00000000000E+00  0.88560976184E+03  0.88560976184E+03  0.00000000000E+00 0.  1.
         -2   -1    0    0    0  501 -0.00000000000E+00 -0.00000000000E+00 -0.16846957824E+04  0.16846957824E+04  0.00000000000E+00 0. -1.
    2000013    1    1    2    0    0 -0.58504937178E+03 -0.33224551113E+03 -0.10375308253E+02  0.11641638605E+04  0.95000000000E+03 0.  0.
   -2000013    1    1    2    0    0  0.58504937178E+03  0.33224551113E+03 -0.78871071233E+03  0.14061416838E+04  0.95000000000E+03 0.  0.
<mgrwt>
<rscale>  0 0.24429351E+04</rscale>
<asrwt>0</asrwt>
<pdfrwt beam="1">  1        2 0.13624766E+00 0.24429351E+04</pdfrwt>
<pdfrwt beam="2">  1       -2 0.25918396E+00 0.24429351E+04</pdfrwt>
<totfact> 0.15165450E+00</totfact>
</mgrwt>
</event>
<event>
 4    1  0.1308745E-008  0.2270206E+04  0.7816531E-02  0.8489762E-01
          2   -1    0    0  501    0  0.00000000000E+00  0.00000000000E+00  0.77633848221E+03  0.77633848221E+03  0.00000000000E+00 0.  1.
         -2   -1    0    0    0  501 -0.00000000000E+00 -0.00000000000E+00 -0.16596611132E+04  0.16596611132E+04  0.00000000000E+00 0. -1.
    2000013    1    1    2    0    0  0.26318978128E+03  0.48230980501E+03 -0.13054327762E+03  0.11051846707E+04  0.95000000000E+03 0.  0.
   -2000013    1    1    2    0    0 -0.26318978128E+03 -0.48230980501E+03 -0.75277935334E+03  0.13308149247E+04  0.95000000000E+03 0.  0.
<mgrwt>
<rscale>  0 0.22702060E+04</rscale>
<asrwt>0</asrwt>
<pdfrwt beam="1">  1        2 0.11943669E+00 0.22702060E+04</pdfrwt>
<pdfrwt beam="2">  1       -2 0.25533248E+00 0.22702060E+04</pdfrwt>
<totfact> 0.19409610E+00</totfact>
</mgrwt>
</event>
<event>
 4    1  0.1308745E-008  0.2260731E+04  0.7816531E-02  0.8493567E-01
          1   -1    0    0  501    0  0.00000000000E+00  0.00000000000E+00  0.54281877764E+03  0.54281877764E+03  0.00000000000E+00 0.  1.
         -1   -1    0    0    0  501 -0.00000000000E+00 -0.00000000000E+00 -0.23538723206E+04  0.23538723206E+04  0.00000000000E+00 0. -1.
    2000013    1    1    2    0    0  0.33966186477E+03  0.34855801066E+03 -0.42891622605E+03  0.11503616814E+04  0.95000000000E+03 0.  0.
   -2000013    1    1    2    0    0 -0.33966186477E+03 -0.34855801066E+03 -0.13821373169E+04  0.17463294168E+04  0.95000000000E+03 0.  0.
<mgrwt>
<rscale>  0 0.22607309E+04</rscale>
<asrwt>0</asrwt>
<pdfrwt beam="1">  1        1 0.83510581E-01 0.22607309E+04</pdfrwt>
<pdfrwt beam="2">  1       -1 0.36213420E+00 0.22607309E+04</pdfrwt>
<totfact> 0.46273452E-01</totfact>
</mgrwt>
</event>
<event>
 4    1  0.1308745E-008  0.2940582E+04  0.7816531E-02  0.8260904E-01
          2   -1    0    0  501    0  0.00000000000E+00  0.00000000000E+00  0.24336381057E+04  0.24336381057E+04  0.00000000000E+00 0.  1.
         -2   -1    0    0    0  501 -0.00000000000E+00 -0.00000000000E+00 -0.88828158570E+03  0.88828158570E+03  0.00000000000E+00 0. -1.
    2000013    1    1    2    0    0 -0.87935956092E+03 -0.69707744958E+03  0.76352104872E+03  0.16566999125E+04  0.95000000000E+03 0.  0.
   -2000013    1    1    2    0    0  0.87935956092E+03  0.69707744958E+03  0.78183547131E+03  0.16652197790E+04  0.95000000000E+03 0.  0.
<mgrwt>
<rscale>  0 0.29405822E+04</rscale>
<asrwt>0</asrwt>
<pdfrwt beam="1">  1        2 0.37440586E+00 0.29405822E+04</pdfrwt>
<pdfrwt beam="2">  1       -2 0.13665871E+00 0.29405822E+04</pdfrwt>
<totfact> 0.12504458E+00</totfact>
</mgrwt>
</event>
<event>
 4    1  0.1308745E-008  0.2150419E+04  0.7816531E-02  0.8539353E-01
          1   -1    0    0  501    0  0.00000000000E+00  0.00000000000E+00  0.39766670161E+03  0.39766670161E+03  0.00000000000E+00 0.  1.
         -1   -1    0    0    0  501 -0.00000000000E+00 -0.00000000000E+00 -0.29071454407E+04  0.29071454407E+04  0.00000000000E+00 0. -1.
    2000013    1    1    2    0    0 -0.41411472917E+03 -0.26448527234E+03 -0.10854691693E+04  0.15238722996E+04  0.95000000000E+03 0.  0.
   -2000013    1    1    2    0    0  0.41411472917E+03  0.26448527234E+03 -0.14240095698E+04  0.17809398427E+04  0.95000000000E+03 0.  0.
<mgrwt>
<rscale>  0 0.21504185E+04</rscale>
<asrwt>0</asrwt>
<pdfrwt beam="1">  1        1 0.61179494E-01 0.21504185E+04</pdfrwt>
<pdfrwt beam="2">  1       -1 0.44725313E+00 0.21504185E+04</pdfrwt>
<totfact> 0.18716858E-01</totfact>
</mgrwt>
</event>
<event>
 4    1  0.1308745E-008  0.2267231E+04  0.7816531E-02  0.8490955E-01
         -2   -1    0    0    0  501 -0.00000000000E+00  0.00000000000E+00  0.84133581566E+03  0.84133581566E+03  0.00000000000E+00 0. -1.
          2   -1    0    0  501    0  0.00000000000E+00 -0.00000000000E+00 -0.15274324212E+04  0.15274324212E+04  0.00000000000E+00 0.  1.
    2000013    1    1    2    0    0  0.19228990071E+03  0.55512978758E+03 -0.54520571584E+03  0.12429375526E+04  0.95000000000E+03 0.  0.
   -2000013    1    1    2    0    0 -0.19228990071E+03 -0.55512978758E+03 -0.14089088973E+03  0.11258306843E+04  0.95000000000E+03 0.  0.
<mgrwt>
<rscale>  0 0.22672306E+04</rscale>
<asrwt>0</asrwt>
<pdfrwt beam="2">  1        2 0.23498960E+00 0.22672306E+04</pdfrwt>
<pdfrwt beam="1">  1       -2 0.12943628E+00 0.22672306E+04</pdfrwt>
<totfact> 0.48903374E+00</totfact>
</mgrwt>
</event>
<event>
 4    1  0.1308745E-008  0.2145703E+04  0.7816531E-02  0.8541374E-01
          2   -1    0    0  501    0  0.00000000000E+00  0.00000000000E+00  0.15768713392E+04  0.15768713392E+04  0.00000000000E+00 0. -1.
         -2   -1    0    0    0  501 -0.00000000000E+00 -0.00000000000E+00 -0.72993300108E+03  0.72993300108E+03  0.00000000000E+00 0.  1.
    2000013    1    1    2    0    0  0.42362549810E+03  0.24013482683E+03  0.30874674949E+03  0.11112820763E+04  0.95000000000E+03 0.  0.
   -2000013    1    1    2    0    0 -0.42362549810E+03 -0.24013482683E+03  0.53819158863E+03  0.11955222640E+04  0.95000000000E+03 0.  0.
<mgrwt>
<rscale>  0 0.21457031E+04</rscale>
<asrwt>0</asrwt>
<pdfrwt beam="1">  1        2 0.24259559E+00 0.21457031E+04</pdfrwt>
<pdfrwt beam="2">  1       -2 0.11229739E+00 0.21457031E+04</pdfrwt>
<totfact> 0.65924054E+00</totfact>
</mgrwt>
</event>
<event>
 4    1  0.1308745E-008  0.2105655E+04  0.7816531E-02  0.8558756E-01
         -2   -1    0    0    0  501 -0.00000000000E+00  0.00000000000E+00  0.68976618797E+03  0.68976618797E+03  0.00000000000E+00 0. -1.
          2   -1    0    0  501    0  0.00000000000E+00 -0.00000000000E+00 -0.16069880595E+04  0.16069880595E+04  0.00000000000E+00 0.  1.
    2000013    1    1    2    0    0  0.12970506775E+03 -0.23064232186E+03 -0.56468678178E+02  0.98777932599E+03  0.95000000000E+03 0.  0.
   -2000013    1    1    2    0    0 -0.12970506775E+03  0.23064232186E+03 -0.86075319335E+03  0.13089749215E+04  0.95000000000E+03 0.  0.
<mgrwt>
<rscale>  0 0.21056553E+04</rscale>
<asrwt>0</asrwt>
<pdfrwt beam="2">  1        2 0.24722893E+00 0.21056553E+04</pdfrwt>
<pdfrwt beam="1">  1       -2 0.10611788E+00 0.21056553E+04</pdfrwt>
<totfact> 0.72957978E+00</totfact>
</mgrwt>
</event>
<event>
 4    1  0.1308745E-008  0.4913878E+04  0.7816531E-02  0.7841931E-01
          2   -1    0    0  501    0  0.00000000000E+00  0.00000000000E+00  0.35107321504E+04  0.35107321504E+04  0.00000000000E+00 0.  1.
         -2   -1    0    0    0  501 -0.00000000000E+00 -0.00000000000E+00 -0.17194561522E+04  0.17194561522E+04  0.00000000000E+00 0. -1.
    2000013    1    1    2    0    0  0.22580081655E+02 -0.20973753394E+04 -0.16594680418E+02  0.23026655332E+04  0.95000000000E+03 0.  0.
   -2000013    1    1    2    0    0 -0.22580081655E+02  0.20973753394E+04  0.18078706786E+04  0.29275227694E+04  0.95000000000E+03 0.  0.
<mgrwt>
<rscale>  0 0.49138783E+04</rscale>
<asrwt>0</asrwt>
<pdfrwt beam="1">  1        2 0.54011264E+00 0.49138783E+04</pdfrwt>
<pdfrwt beam="2">  1       -2 0.26453172E+00 0.49138783E+04</pdfrwt>
<totfact> 0.30595028E-02</totfact>
</mgrwt>
</event>
<event>
 4    1  0.1308745E-008  0.3377842E+04  0.7816531E-02  0.8143366E-01
          2   -1    0    0  501    0  0.00000000000E+00  0.00000000000E+00  0.21380878754E+04  0.21380878754E+04  0.00000000000E+00 0.  1.
         -2   -1    0    0    0  501 -0.00000000000E+00 -0.00000000000E+00 -0.13341147681E+04  0.13341147681E+04  0.00000000000E+00 0. -1.
    2000013    1    1    2    0    0  0.13843192997E+04  0.82171891803E+02  0.57046278614E+03  0.17751112454E+04  0.95000000000E+03 0.  0.
   -2000013    1    1    2    0    0 -0.13843192997E+04 -0.82171891803E+02  0.23351032113E+03  0.16970913980E+04  0.95000000000E+03 0.  0.
<mgrwt>
<rscale>  0 0.33778423E+04</rscale>
<asrwt>0</asrwt>
<pdfrwt beam="1">  1        2 0.32893659E+00 0.33778423E+04</pdfrwt>
<pdfrwt beam="2">  1       -2 0.20524843E+00 0.33778423E+04</pdfrwt>
<totfact> 0.57064864E-01</totfact>
</mgrwt>
</event>
<event>
 4    1  0.1308745E-008  0.2421266E+04  0.7816531E-02  0.8431585E-01
         -2   -1    0    0    0  501 -0.00000000000E+00  0.00000000000E+00  0.95382955848E+03  0.95382955848E+03  0.00000000000E+00 0. -1.
          2   -1    0    0  501    0  0.00000000000E+00 -0.00000000000E+00 -0.15365768221E+04  0.15365768221E+04  0.00000000000E+00 0.  1.
    2000013    1    1    2    0    0 -0.49625508391E+03  0.53180470818E+03 -0.48116102085E+03  0.12896128427E+04  0.95000000000E+03 0.  0.
   -2000013    1    1    2    0    0  0.49625508391E+03 -0.53180470818E+03 -0.10158624275E+03  0.12007935379E+04  0.95000000000E+03 0.  0.
<mgrwt>
<rscale>  0 0.24212661E+04</rscale>
<asrwt>0</asrwt>
<pdfrwt beam="2">  1        2 0.23639643E+00 0.24212661E+04</pdfrwt>
<pdfrwt beam="1">  1       -2 0.14674301E+00 0.24212661E+04</pdfrwt>
<totfact> 0.34509108E+00</totfact>
</mgrwt>
</event>
<event>
 4    1  0.1308745E-008  0.2259834E+04  0.7816531E-02  0.8493928E-01
         -1   -1    0    0    0  501 -0.00000000000E+00  0.00000000000E+00  0.79939726866E+03  0.79939726866E+03  0.00000000000E+00 0.  1.
          1   -1    0    0  501    0  0.00000000000E+00 -0.00000000000E+00 -0.15970938347E+04  0.15970938347E+04  0.00000000000E+00 0. -1.
    2000013    1    1    2    0    0  0.30032852367E+03  0.50045934048E+03 -0.20458878026E+03  0.11335842900E+04  0.95000000000E+03 0.  0.
   -2000013    1    1    2    0    0 -0.30032852367E+03 -0.50045934048E+03 -0.59310778579E+03  0.12629068133E+04  0.95000000000E+03 0.  0.
<mgrwt>
<rscale>  0 0.22598340E+04</rscale>
<asrwt>0</asrwt>
<pdfrwt beam="2">  1        1 0.24570674E+00 0.22598340E+04</pdfrwt>
<pdfrwt beam="1">  1       -1 0.12298419E+00 0.22598340E+04</pdfrwt>
<totfact> 0.29627015E+00</totfact>
</mgrwt>
</event>
<event>
 4    1  0.1308745E-008  0.2354480E+04  0.7816531E-02  0.8456745E-01
          2   -1    0    0  501    0  0.00000000000E+00  0.00000000000E+00  0.29052760697E+04  0.29052760697E+04  0.00000000000E+00 0. -1.
         -2   -1    0    0    0  501 -0.00000000000E+00 -0.00000000000E+00 -0.47702662657E+03  0.47702662657E+03  0.00000000000E+00 0.  1.
    2000013    1    1    2    0    0  0.66430298684E+03  0.54931516613E+02  0.93014701078E+03  0.14872758290E+04  0.95000000000E+03 0.  0.
   -2000013    1    1    2    0    0 -0.66430298684E+03 -0.54931516613E+02  0.14981024323E+04  0.18950268672E+04  0.95000000000E+03 0.  0.
<mgrwt>
<rscale>  0 0.23544800E+04</rscale>
<asrwt>0</asrwt>
<pdfrwt beam="1">  1        2 0.44696554E+00 0.23544800E+04</pdfrwt>
<pdfrwt beam="2">  1       -2 0.73388713E-01 0.23544800E+04</pdfrwt>
<totfact> 0.30168274E+00</totfact>
</mgrwt>
</event>
<event>
 4    1  0.1308745E-008  0.2833876E+04  0.7816531E-02  0.8292828E-01
          2   -1    0    0  501    0  0.00000000000E+00  0.00000000000E+00  0.33200820521E+04  0.33200820521E+04  0.00000000000E+00 0.  1.
         -2   -1    0    0    0  501 -0.00000000000E+00 -0.00000000000E+00 -0.60471797095E+03  0.60471797095E+03  0.00000000000E+00 0. -1.
    2000013    1    1    2    0    0  0.48187790767E+03 -0.84468887722E+03  0.19108123670E+04  0.23450819856E+04  0.95000000000E+03 0.  0.
   -2000013    1    1    2    0    0 -0.48187790767E+03  0.84468887722E+03  0.80455171416E+03  0.15797180375E+04  0.95000000000E+03 0.  0.
<mgrwt>
<rscale>  0 0.28338760E+04</rscale>
<asrwt>0</asrwt>
<pdfrwt beam="1">  1        2 0.51078184E+00 0.28338760E+04</pdfrwt>
<pdfrwt beam="2">  1       -2 0.93033536E-01 0.28338760E+04</pdfrwt>
<totfact> 0.91669102E-01</totfact>
</mgrwt>
</event>
<event>
 4    1  0.1308745E-008  0.2708625E+04  0.7816531E-02  0.8332212E-01
          2   -1    0    0  501    0  0.00000000000E+00  0.00000000000E+00  0.17235313623E+04  0.17235313623E+04  0.00000000000E+00 0.  1.
         -2   -1    0    0    0  501 -0.00000000000E+00 -0.00000000000E+00 -0.10641883700E+04  0.10641883700E+04  0.00000000000E+00 0. -1.
    2000013    1    1    2    0    0 -0.83738910669E+03  0.28231200318E+03 -0.69920338755E+02  0.12993496207E+04  0.95000000000E+03 0.  0.
   -2000013    1    1    2    0    0  0.83738910669E+03 -0.28231200318E+03  0.72926333103E+03  0.14883701116E+04  0.95000000000E+03 0.  0.
<mgrwt>
<rscale>  0 0.27086248E+04</rscale>
<asrwt>0</asrwt>
<pdfrwt beam="1">  1        2 0.26515867E+00 0.27086248E+04</pdfrwt>
<pdfrwt beam="2">  1       -2 0.16372129E+00 0.27086248E+04</pdfrwt>
<totfact> 0.19734772E+00</totfact>
</mgrwt>
</event>
<event>
 4    1  0.1308745E-008  0.2012670E+04  0.7816531E-02  0.8600720E-01
         -2   -1    0    0    0  501 -0.00000000000E+00  0.00000000000E+00  0.55170394610E+03  0.55170394610E+03  0.00000000000E+00 0. -1.
          2   -1    0    0  501    0  0.00000000000E+00 -0.00000000000E+00 -0.18356034287E+04  0.18356034287E+04  0.00000000000E+00 0.  1.
    2000013    1    1    2    0    0 -0.32604835867E+03 -0.21598999603E+02 -0.71147418975E+03  0.12310440982E+04  0.95000000000E+03 0.  0.
   -2000013    1    1    2    0    0  0.32604835867E+03  0.21598999603E+02 -0.57242529287E+03  0.11562632766E+04  0.95000000000E+03 0.  0.
<mgrwt>
<rscale>  0 0.20126695E+04</rscale>
<asrwt>0</asrwt>
<pdfrwt beam="2">  1        2 0.28240052E+00 0.20126695E+04</pdfrwt>
<pdfrwt beam="1">  1       -2 0.84877531E-01 0.20126695E+04</pdfrwt>
<totfact> 0.92499265E+00</totfact>
</mgrwt>
</event>
<event>
 4    1  0.1308745E-008  0.3388926E+04  0.7816531E-02  0.8140629E-01
         -2   -1    0    0    0  501 -0.00000000000E+00  0.00000000000E+00  0.21342749198E+04  0.21342749198E+04  0.00000000000E+00 0. -1.
          2   -1    0    0  501    0  0.00000000000E+00 -0.00000000000E+00 -0.13452838191E+04  0.13452838191E+04  0.00000000000E+00 0.  1.
    2000013    1    1    2    0    0 -0.19989993654E+03 -0.11177990831E+04 -0.45172484953E+03  0.15478986125E+04  0.95000000000E+03 0.  0.
   -2000013    1    1    2    0    0  0.19989993654E+03  0.11177990831E+04  0.12407159502E+04  0.19316601264E+04  0.95000000000E+03 0.  0.
<mgrwt>
<rscale>  0 0.33889264E+04</rscale>
<asrwt>0</asrwt>
<pdfrwt beam="2">  1        2 0.20696674E+00 0.33889264E+04</pdfrwt>
<pdfrwt beam="1">  1       -2 0.32834999E+00 0.33889264E+04</pdfrwt>
<totfact> 0.27414390E-01</totfact>
</mgrwt>
</event>
<event>
 4    1  0.1308745E-008  0.3996331E+04  0.7816531E-02  0.8005287E-01
         -2   -1    0    0    0  501 -0.00000000000E+00  0.00000000000E+00  0.18068113606E+04  0.18068113606E+04  0.00000000000E+00 0. -1.
          2   -1    0    0  501    0  0.00000000000E+00 -0.00000000000E+00 -0.22097856131E+04  0.22097856131E+04  0.00000000000E+00 0.  1.
    2000013    1    1    2    0    0  0.11391904555E+04  0.86471083403E+03  0.82579487126E+03  0.19052340774E+04  0.95000000000E+03 0.  0.
   -2000013    1    1    2    0    0 -0.11391904555E+04 -0.86471083403E+03 -0.12287691238E+04  0.21113628963E+04  0.95000000000E+03 0.  0.
<mgrwt>
<rscale>  0 0.39963312E+04</rscale>
<asrwt>0</asrwt>
<pdfrwt beam="2">  1        2 0.33996702E+00 0.39963312E+04</pdfrwt>
<pdfrwt beam="1">  1       -2 0.27797098E+00 0.39963312E+04</pdfrwt>
<totfact> 0.17434831E-01</totfact>
</mgrwt>
</event>
<event>
 4    1  0.1308745E-008  0.3008302E+04  0.7816531E-02  0.8241364E-01
         -2   -1    0    0    0  501 -0.00000000000E+00  0.00000000000E+00  0.92072177413E+03  0.92072177413E+03  0.00000000000E+00 0. -1.
          2   -1    0    0  501    0  0.00000000000E+00 -0.00000000000E+00 -0.24572781589E+04  0.24572781589E+04  0.00000000000E+00 0.  1.
    2000013    1    1    2    0    0  0.31247629664E+02  0.11617724285E+04 -0.66011898564E+03  0.16398014103E+04  0.95000000000E+03 0.  0.
   -2000013    1    1    2    0    0 -0.31247629664E+02 -0.11617724285E+04 -0.87643739909E+03  0.17381985227E+04  0.95000000000E+03 0.  0.
<mgrwt>
<rscale>  0 0.30083015E+04</rscale>
<asrwt>0</asrwt>
<pdfrwt beam="2">  1        2 0.37804279E+00 0.30083015E+04</pdfrwt>
<pdfrwt beam="1">  1       -2 0.14164950E+00 0.30083015E+04</pdfrwt>
<totfact> 0.10979462E+00</totfact>
</mgrwt>
</event>
<event>
 4    1  0.1308745E-008  0.2007395E+04  0.7816531E-02  0.8603171E-01
         -2   -1    0    0    0  501 -0.00000000000E+00  0.00000000000E+00  0.13748580849E+04  0.13748580849E+04  0.00000000000E+00 0. -1.
          2   -1    0    0  501    0  0.00000000000E+00 -0.00000000000E+00 -0.73273646753E+03  0.73273646753E+03  0.00000000000E+00 0.  1.
    2000013    1    1    2    0    0  0.29845559310E+03  0.11329796256E+03  0.37853335541E+03  0.10713074584E+04  0.95000000000E+03 0.  0.
   -2000013    1    1    2    0    0 -0.29845559310E+03 -0.11329796256E+03  0.26358826200E+03  0.10362870940E+04  0.95000000000E+03 0.  0.
<mgrwt>
<rscale>  0 0.20073950E+04</rscale>
<asrwt>0</asrwt>
<pdfrwt beam="2">  1        2 0.11272869E+00 0.20073950E+04</pdfrwt>
<pdfrwt beam="1">  1       -2 0.21151663E+00 0.20073950E+04</pdfrwt>
<totfact> 0.40154788E+00</totfact>
</mgrwt>
</event>
<event>
 4    1  0.1308745E-008  0.2758936E+04  0.7816531E-02  0.8316132E-01
          2   -1    0    0  501    0  0.00000000000E+00  0.00000000000E+00  0.12620566311E+04  0.12620566311E+04  0.00000000000E+00 0.  1.
         -2   -1    0    0    0  501 -0.00000000000E+00 -0.00000000000E+00 -0.15078022384E+04  0.15078022384E+04  0.00000000000E+00 0. -1.
    2000013    1    1    2    0    0  0.62292087885E+03  0.64136890920E+02 -0.90588874463E+03  0.14543996630E+04  0.95000000000E+03 0.  0.
   -2000013    1    1    2    0    0 -0.62292087885E+03 -0.64136890920E+02  0.66014313738E+03  0.13154592065E+04  0.95000000000E+03 0.  0.
<mgrwt>
<rscale>  0 0.27589359E+04</rscale>
<asrwt>0</asrwt>
<pdfrwt beam="1">  1        2 0.19416256E+00 0.27589359E+04</pdfrwt>
<pdfrwt beam="2">  1       -2 0.23196957E+00 0.27589359E+04</pdfrwt>
<totfact> 0.12625653E+00</totfact>
</mgrwt>
</event>
<event>
 4    1  0.1308745E-008  0.3357041E+04  0.7816531E-02  0.8148531E-01
         -2   -1    0    0    0  501 -0.00000000000E+00  0.00000000000E+00  0.15460114439E+04  0.15460114439E+04  0.00000000000E+00 0. -1.
          2   -1    0    0  501    0  0.00000000000E+00 -0.00000000000E+00 -0.18223869543E+04  0.18223869543E+04  0.00000000000E+00 0.  1.
    2000013    1    1    2    0    0  0.12827376611E+04  0.49916642074E+03 -0.28131699009E+03  0.16959428857E+04  0.95000000000E+03 0.  0.
   -2000013    1    1    2    0    0 -0.12827376611E+04 -0.49916642074E+03  0.49414796917E+01  0.16724555124E+04  0.95000000000E+03 0.  0.
<mgrwt>
<rscale>  0 0.33570410E+04</rscale>
<asrwt>0</asrwt>
<pdfrwt beam="2">  1        2 0.28036722E+00 0.33570410E+04</pdfrwt>
<pdfrwt beam="1">  1       -2 0.23784791E+00 0.33570410E+04</pdfrwt>
<totfact> 0.53253888E-01</totfact>
</mgrwt>
</event>
<event>
 4    1  0.1308745E-008  0.3289523E+04  0.7816531E-02  0.8165566E-01
          1   -1    0    0  501    0  0.00000000000E+00  0.00000000000E+00  0.12678519955E+04  0.12678519955E+04  0.00000000000E+00 0. -1.
         -1   -1    0    0    0  501 -0.00000000000E+00 -0.00000000000E+00 -0.21337193374E+04  0.21337193374E+04  0.00000000000E+00 0.  1.
    2000013    1    1    2    0    0 -0.10297320096E+04  0.82279286572E+03 -0.69738728617E+03  0.17681021289E+04  0.95000000000E+03 0.  0.
   -2000013    1    1    2    0    0  0.10297320096E+04 -0.82279286572E+03 -0.16848005576E+03  0.16334692040E+04  0.95000000000E+03 0.  0.
<mgrwt>
<rscale>  0 0.32895230E+04</rscale>
<asrwt>0</asrwt>
<pdfrwt beam="1">  1        1 0.19505416E+00 0.32895230E+04</pdfrwt>
<pdfrwt beam="2">  1       -1 0.32826451E+00 0.32895230E+04</pdfrwt>
<totfact> 0.17112677E-01</totfact>
</mgrwt>
</event>
<event>
 4    1  0.1308745E-008  0.2627481E+04  0.7816531E-02  0.8358926E-01
          2   -1    0    0  501    0  0.00000000000E+00  0.00000000000E+00  0.12231263243E+04  0.12231263243E+04  0.00000000000E+00 0.  1.
         -2   -1    0    0    0  501 -0.00000000000E+00 -0.00000000000E+00 -0.14110676503E+04  0.14110676503E+04  0.00000000000E+00 0. -1.
    2000013    1    1    2    0    0 -0.40169035126E+03  0.79365159605E+03 -0.27380564253E+03  0.13299276387E+04  0.95000000000E+03 0.  0.
   -2000013    1    1    2    0    0  0.40169035126E+03 -0.79365159605E+03  0.85864316615E+02  0.13042663359E+04  0.95000000000E+03 0.  0.
<mgrwt>
<rscale>  0 0.26274809E+04</rscale>
<asrwt>0</asrwt>
<pdfrwt beam="1">  1        2 0.18817328E+00 0.26274809E+04</pdfrwt>
<pdfrwt beam="2">  1       -2 0.21708733E+00 0.26274809E+04</pdfrwt>
<totfact> 0.16701554E+00</totfact>
</mgrwt>
</event>
<event>
 4    1  0.1308745E-008  0.2670840E+04  0.7816531E-02  0.8344529E-01
         -2   -1    0    0    0  501 -0.00000000000E+00  0.00000000000E+00  0.80669339223E+03  0.80669339223E+03  0.00000000000E+00 0.  1.
          2   -1    0    0  501    0  0.00000000000E+00 -0.00000000000E+00 -0.22106864795E+04  0.22106864795E+04  0.00000000000E+00 0. -1.
    2000013    1    1    2    0    0  0.91829018000E+03 -0.14180449487E+02 -0.92044533722E+03  0.16103346108E+04  0.95000000000E+03 0.  0.
   -2000013    1    1    2    0    0 -0.91829018000E+03  0.14180449487E+02 -0.48354775006E+03  0.14070452610E+04  0.95000000000E+03 0.  0.
<mgrwt>
<rscale>  0 0.26708397E+04</rscale>
<asrwt>0</asrwt>
<pdfrwt beam="2">  1        2 0.34010561E+00 0.26708397E+04</pdfrwt>
<pdfrwt beam="1">  1       -2 0.12410668E+00 0.26708397E+04</pdfrwt>
<totfact> 0.21861989E+00</totfact>
</mgrwt>
</event>
<event>
 4    1  0.1308745E-008  0.2382402E+04  0.7816531E-02  0.8446122E-01
          2   -1    0    0  501    0  0.00000000000E+00  0.00000000000E+00  0.18213204903E+04  0.18213204903E+04  0.00000000000E+00 0.  1.
         -2   -1    0    0    0  501 -0.00000000000E+00 -0.00000000000E+00 -0.77908284205E+03  0.77908284205E+03  0.00000000000E+00 0. -1.
    2000013    1    1    2    0    0  0.60737349421E+03  0.38403539390E+03  0.53049552212E+03  0.13039598323E+04  0.95000000000E+03 0.  0.
   -2000013    1    1    2    0    0 -0.60737349421E+03 -0.38403539390E+03  0.51174212617E+03  0.12964435001E+04  0.95000000000E+03 0.  0.
<mgrwt>
<rscale>  0 0.23824018E+04</rscale>
<asrwt>0</asrwt>
<pdfrwt beam="1">  1        2 0.28020315E+00 0.23824018E+04</pdfrwt>
<pdfrwt beam="2">  1       -2 0.11985890E+00 0.23824018E+04</pdfrwt>
<totfact> 0.40272650E+00</totfact>
</mgrwt>
</event>
<event>
 4    1  0.1308745E-008  0.2776893E+04  0.7816531E-02  0.8310478E-01
          1   -1    0    0  501    0  0.00000000000E+00  0.00000000000E+00  0.11350895543E+04  0.11350895543E+04  0.00000000000E+00 0.  1.
         -1   -1    0    0    0  501 -0.00000000000E+00 -0.00000000000E+00 -0.16983542795E+04  0.16983542795E+04  0.00000000000E+00 0. -1.
    2000013    1    1    2    0    0 -0.81174396847E+03  0.57836852199E+03 -0.99544339898E+02  0.13805243544E+04  0.95000000000E+03 0.  0.
   -2000013    1    1    2    0    0  0.81174396847E+03 -0.57836852199E+03 -0.46372038531E+03  0.14529194793E+04  0.95000000000E+03 0.  0.
<mgrwt>
<rscale>  0 0.27768934E+04</rscale>
<asrwt>0</asrwt>
<pdfrwt beam="1">  1        1 0.17462916E+00 0.27768934E+04</pdfrwt>
<pdfrwt beam="2">  1       -1 0.26128527E+00 0.27768934E+04</pdfrwt>
<totfact> 0.60923557E-01</totfact>
</mgrwt>
</event>
<event>
 4    1  0.1308745E-008  0.2040245E+04  0.7816531E-02  0.8588033E-01
         -1   -1    0    0    0  501 -0.00000000000E+00  0.00000000000E+00  0.64423924582E+03  0.64423924582E+03  0.00000000000E+00 0.  1.
          1   -1    0    0  501    0  0.00000000000E+00 -0.00000000000E+00 -0.16153154434E+04  0.16153154434E+04  0.00000000000E+00 0. -1.
    2000013    1    1    2    0    0 -0.30941438804E+03  0.18246418990E+03 -0.59129725855E+03  0.11752288680E+04  0.95000000000E+03 0.  0.
   -2000013    1    1    2    0    0  0.30941438804E+03 -0.18246418990E+03 -0.37977893904E+03  0.10843258213E+04  0.95000000000E+03 0.  0.
<mgrwt>
<rscale>  0 0.20402447E+04</rscale>
<asrwt>0</asrwt>
<pdfrwt beam="2">  1        1 0.24851007E+00 0.20402447E+04</pdfrwt>
<pdfrwt beam="1">  1       -1 0.99113731E-01 0.20402447E+04</pdfrwt>
<totfact> 0.48972984E+00</totfact>
</mgrwt>
</event>
<event>
 4    1  0.1308745E-008  0.2932748E+04  0.7816531E-02  0.8263200E-01
         -2   -1    0    0    0  501 -0.00000000000E+00  0.00000000000E+00  0.59723974695E+03  0.59723974695E+03  0.00000000000E+00 0. -1.
          2   -1    0    0  501    0  0.00000000000E+00 -0.00000000000E+00 -0.36003184662E+04  0.36003184662E+04  0.00000000000E+00 0.  1.
    2000013    1    1    2    0    0 -0.36130172655E+03 -0.46151437471E+03 -0.28625411488E+04  0.30724869868E+04  0.95000000000E+03 0.  0.
   -2000013    1    1    2    0    0  0.36130172655E+03  0.46151437471E+03 -0.14053757050E+03  0.11250712264E+04  0.95000000000E+03 0.  0.
<mgrwt>
<rscale>  0 0.29327484E+04</rscale>
<asrwt>0</asrwt>
<pdfrwt beam="2">  1        2 0.55389514E+00 0.29327484E+04</pdfrwt>
<pdfrwt beam="1">  1       -2 0.91883039E-01 0.29327484E+04</pdfrwt>
<totfact> 0.59797202E-01</totfact>
</mgrwt>
</event>
<event>
 4    1  0.1308745E-008  0.2478797E+04  0.7816531E-02  0.8410578E-01
         -1   -1    0    0    0  501 -0.00000000000E+00  0.00000000000E+00  0.78582106815E+03  0.78582106815E+03  0.00000000000E+00 0. -1.
          1   -1    0    0  501    0  0.00000000000E+00 -0.00000000000E+00 -0.19547813456E+04  0.19547813456E+04  0.00000000000E+00 0.  1.
    2000013    1    1    2    0    0  0.65192298852E+03 -0.33179576143E+03 -0.93150395390E+03  0.15183186841E+04  0.95000000000E+03 0.  0.
   -2000013    1    1    2    0    0 -0.65192298852E+03  0.33179576143E+03 -0.23745632355E+03  0.12222837297E+04  0.95000000000E+03 0.  0.
<mgrwt>
<rscale>  0 0.24787968E+04</rscale>
<asrwt>0</asrwt>
<pdfrwt beam="2">  1        1 0.30073559E+00 0.24787968E+04</pdfrwt>
<pdfrwt beam="1">  1       -1 0.12089555E+00 0.24787968E+04</pdfrwt>
<totfact> 0.17300627E+00</totfact>
</mgrwt>
</event>
<event>
 4    1  0.1308745E-008  0.2681157E+04  0.7816531E-02  0.8341145E-01
          2   -1    0    0  501    0  0.00000000000E+00  0.00000000000E+00  0.12698917075E+04  0.12698917075E+04  0.00000000000E+00 0.  1.
         -2   -1    0    0    0  501 -0.00000000000E+00 -0.00000000000E+00 -0.14151998781E+04  0.14151998781E+04  0.00000000000E+00 0. -1.
    2000013    1    1    2    0    0  0.37250344648E+03  0.60367748647E+02  0.79594076785E+03  0.12955403462E+04  0.95000000000E+03 0.  0.
   -2000013    1    1    2    0    0 -0.37250344648E+03 -0.60367748647E+02 -0.94124893845E+03  0.13895512394E+04  0.95000000000E+03 0.  0.
<mgrwt>
<rscale>  0 0.26811569E+04</rscale>
<asrwt>0</asrwt>
<pdfrwt beam="1">  1        2 0.19536796E+00 0.26811569E+04</pdfrwt>
<pdfrwt beam="2">  1       -2 0.21772306E+00 0.26811569E+04</pdfrwt>
<totfact> 0.15457679E+00</totfact>
</mgrwt>
</event>
<event>
 4    1  0.1308745E-008  0.2156453E+04  0.7816531E-02  0.8536775E-01
          2   -1    0    0  501    0  0.00000000000E+00  0.00000000000E+00  0.40727250713E+04  0.40727250713E+04  0.00000000000E+00 0.  1.
         -2   -1    0    0    0  501 -0.00000000000E+00 -0.00000000000E+00 -0.28545318241E+03  0.28545318241E+03  0.00000000000E+00 0. -1.
    2000013    1    1    2    0    0 -0.15745991989E+03 -0.35288240565E+03  0.12210586669E+04  0.15946171599E+04  0.95000000000E+03 0.  0.
   -2000013    1    1    2    0    0  0.15745991989E+03  0.35288240565E+03  0.25662132220E+04  0.27635610938E+04  0.95000000000E+03 0.  0.
<mgrwt>
<rscale>  0 0.21564530E+04</rscale>
<asrwt>0</asrwt>
<pdfrwt beam="1">  1        2 0.62657305E+00 0.21564530E+04</pdfrwt>
<pdfrwt beam="2">  1       -2 0.43915877E-01 0.21564530E+04</pdfrwt>
<totfact> 0.13566178E+00</totfact>
</mgrwt>
</event>
<event>
 4    1  0.1308745E-008  0.2091583E+04  0.7816531E-02  0.8564960E-01
         -1   -1    0    0    0  501 -0.00000000000E+00  0.00000000000E+00  0.10535676135E+04  0.10535676135E+04  0.00000000000E+00 0. -1.
          1   -1    0    0  501    0  0.00000000000E+00 -0.00000000000E+00 -0.10380726475E+04  0.10380726475E+04  0.00000000000E+00 0.  1.
    2000013    1    1    2    0    0  0.16469492573E+03  0.39632415498E+03  0.91310935912E+02  0.10464391723E+04  0.95000000000E+03 0.  0.
   -2000013    1    1    2    0    0 -0.16469492573E+03 -0.39632415498E+03 -0.75815969939E+02  0.10452010886E+04  0.95000000000E+03 0.  0.
<mgrwt>
<rscale>  0 0.20915829E+04</rscale>
<asrwt>0</asrwt>
<pdfrwt beam="2">  1        1 0.15970349E+00 0.20915829E+04</pdfrwt>
<pdfrwt beam="1">  1       -1 0.16208732E+00 0.20915829E+04</pdfrwt>
<totfact> 0.36662800E+00</totfact>
</mgrwt>
</event>
<event>
 4    1  0.1308745E-008  0.2612558E+04  0.7816531E-02  0.8363948E-01
         -2   -1    0    0    0  501 -0.00000000000E+00  0.00000000000E+00  0.10190865330E+04  0.10190865330E+04  0.00000000000E+00 0. -1.
          2   -1    0    0  501    0  0.00000000000E+00 -0.00000000000E+00 -0.16744058763E+04  0.16744058763E+04  0.00000000000E+00 0.  1.
    2000013    1    1    2    0    0  0.72984799380E+03  0.50695057731E+03 -0.45046091317E+03  0.13766234112E+04  0.95000000000E+03 0.  0.
   -2000013    1    1    2    0    0 -0.72984799380E+03 -0.50695057731E+03 -0.20485843019E+03  0.13168689982E+04  0.95000000000E+03 0.  0.
<mgrwt>
<rscale>  0 0.26125577E+04</rscale>
<asrwt>0</asrwt>
<pdfrwt beam="2">  1        2 0.25760090E+00 0.26125577E+04</pdfrwt>
<pdfrwt beam="1">  1       -2 0.15678254E+00 0.26125577E+04</pdfrwt>
<totfact> 0.23840360E+00</totfact>
</mgrwt>
</event>
<event>
 4    1  0.1308745E-008  0.2532034E+04  0.7816531E-02  0.8391661E-01
         -2   -1    0    0    0  501 -0.00000000000E+00  0.00000000000E+00  0.10023589789E+04  0.10023589789E+04  0.00000000000E+00 0.  1.
          2   -1    0    0  501    0  0.00000000000E+00 -0.00000000000E+00 -0.15990274706E+04  0.15990274706E+04  0.00000000000E+00 0. -1.
    2000013    1    1    2    0    0 -0.12861871507E+03  0.78598453840E+03 -0.56224563216E+03  0.13612254109E+04  0.95000000000E+03 0.  0.
   -2000013    1    1    2    0    0  0.12861871507E+03 -0.78598453840E+03 -0.34422859504E+02  0.12401610386E+04  0.95000000000E+03 0.  0.
<mgrwt>
<rscale>  0 0.25320344E+04</rscale>
<asrwt>0</asrwt>
<pdfrwt beam="2">  1        2 0.24600422E+00 0.25320344E+04</pdfrwt>
<pdfrwt beam="1">  1       -2 0.15420907E+00 0.25320344E+04</pdfrwt>
<totfact> 0.27647901E+00</totfact>
</mgrwt>
</event>
<event>
 4    1  0.1308745E-008  0.3895836E+04  0.7816531E-02  0.8025896E-01
         -2   -1    0    0    0  501 -0.00000000000E+00  0.00000000000E+00  0.14365836822E+04  0.14365836822E+04  0.00000000000E+00 0.  1.
          2   -1    0    0  501    0  0.00000000000E+00 -0.00000000000E+00 -0.26412552719E+04  0.26412552719E+04  0.00000000000E+00 0. -1.
    2000013    1    1    2    0    0 -0.94447353585E+03  0.85661032398E+02 -0.20798455155E+04  0.24754040965E+04  0.95000000000E+03 0.  0.
   -2000013    1    1    2    0    0  0.94447353585E+03 -0.85661032398E+02  0.87517392581E+03  0.16024348576E+04  0.95000000000E+03 0.  0.
<mgrwt>
<rscale>  0 0.38958358E+04</rscale>
<asrwt>0</asrwt>
<pdfrwt beam="2">  1        2 0.40634696E+00 0.38958358E+04</pdfrwt>
<pdfrwt beam="1">  1       -2 0.22101287E+00 0.38958358E+04</pdfrwt>
<totfact> 0.22290874E-01</totfact>
</mgrwt>
</event>
<event>
 4    1  0.1308745E-008  0.3287121E+04  0.7816531E-02  0.8166180E-01
          2   -1    0    0  501    0  0.00000000000E+00  0.00000000000E+00  0.35240818965E+04  0.35240818965E+04  0.00000000000E+00 0.  1.
         -2   -1    0    0    0  501 -0.00000000000E+00 -0.00000000000E+00 -0.76652317770E+03  0.76652317770E+03  0.00000000000E+00 0. -1.
    2000013    1    1    2    0    0 -0.49670475325E+03 -0.11106269889E+04  0.64203997770E+03  0.16718023966E+04  0.95000000000E+03 0.  0.
   -2000013    1    1    2    0    0  0.49670475325E+03  0.11106269889E+04  0.21155187411E+04  0.26188026776E+04  0.95000000000E+03 0.  0.
<mgrwt>
<rscale>  0 0.32871206E+04</rscale>
<asrwt>0</asrwt>
<pdfrwt beam="1">  1        2 0.54216644E+00 0.32871206E+04</pdfrwt>
<pdfrwt beam="2">  1       -2 0.11792664E+00 0.32871206E+04</pdfrwt>
<totfact> 0.36193862E-01</totfact>
</mgrwt>
</event>
<event>
 4    1  0.1308745E-008  0.4846513E+04  0.7816531E-02  0.7852630E-01
         -2   -1    0    0    0  501 -0.00000000000E+00  0.00000000000E+00  0.17590514441E+04  0.17590514441E+04  0.00000000000E+00 0. -1.
          2   -1    0    0  501    0  0.00000000000E+00 -0.00000000000E+00 -0.33382611485E+04  0.33382611485E+04  0.00000000000E+00 0.  1.
    2000013    1    1    2    0    0  0.20936770860E+04 -0.76494973303E+03 -0.75566644994E+03  0.25381417647E+04  0.95000000000E+03 0.  0.
   -2000013    1    1    2    0    0 -0.20936770860E+04  0.76494973303E+03 -0.82354325449E+03  0.25591708279E+04  0.95000000000E+03 0.  0.
<mgrwt>
<rscale>  0 0.48465134E+04</rscale>
<asrwt>0</asrwt>
<pdfrwt beam="2">  1        2 0.51357864E+00 0.48465134E+04</pdfrwt>
<pdfrwt beam="1">  1       -2 0.27062330E+00 0.48465134E+04</pdfrwt>
<totfact> 0.37122630E-02</totfact>
</mgrwt>
</event>
<event>
 4    1  0.1308745E-008  0.2261779E+04  0.7816531E-02  0.8493145E-01
         -2   -1    0    0    0  501 -0.00000000000E+00  0.00000000000E+00  0.75719064375E+03  0.75719064375E+03  0.00000000000E+00 0. -1.
          2   -1    0    0  501    0  0.00000000000E+00 -0.00000000000E+00 -0.16890209503E+04  0.16890209503E+04  0.00000000000E+00 0.  1.
    2000013    1    1    2    0    0  0.38726354628E+03 -0.39351625819E+03 -0.75528155854E+03  0.13333335413E+04  0.95000000000E+03 0.  0.
   -2000013    1    1    2    0    0 -0.38726354628E+03  0.39351625819E+03 -0.17654874796E+03  0.11128780527E+04  0.95000000000E+03 0.  0.
<mgrwt>
<rscale>  0 0.22617788E+04</rscale>
<asrwt>0</asrwt>
<pdfrwt beam="2">  1        2 0.25984937E+00 0.22617788E+04</pdfrwt>
<pdfrwt beam="1">  1       -2 0.11649087E+00 0.22617788E+04</pdfrwt>
<totfact> 0.51685960E+00</totfact>
</mgrwt>
</event>
<event>
 4    1  0.1308745E-008  0.3342977E+04  0.7816531E-02  0.8152045E-01
         -2   -1    0    0    0  501 -0.00000000000E+00  0.00000000000E+00  0.11280695249E+04  0.11280695249E+04  0.00000000000E+00 0. -1.
          2   -1    0    0  501    0  0.00000000000E+00 -0.00000000000E+00 -0.24766860502E+04  0.24766860502E+04  0.00000000000E+00 0.  1.
    2000013    1    1    2    0    0 -0.12145075439E+04 -0.16838467350E+03 -0.26415177617E+01  0.15510928245E+04  0.95000000000E+03 0.  0.
   -2000013    1    1    2    0    0  0.12145075439E+04  0.16838467350E+03 -0.13459750075E+04  0.20536627506E+04  0.95000000000E+03 0.  0.
<mgrwt>
<rscale>  0 0.33429771E+04</rscale>
<asrwt>0</asrwt>
<pdfrwt beam="2">  1        2 0.38102862E+00 0.33429771E+04</pdfrwt>
<pdfrwt beam="1">  1       -2 0.17354916E+00 0.33429771E+04</pdfrwt>
<totfact> 0.60113803E-01</totfact>
</mgrwt>
</event>
<event>
 4    1  0.1308745E-008  0.2618674E+04  0.7816531E-02  0.8361886E-01
         -2   -1    0    0    0  501 -0.00000000000E+00  0.00000000000E+00  0.71494791790E+03  0.71494791790E+03  0.00000000000E+00 0. -1.
          2   -1    0    0  501    0  0.00000000000E+00 -0.00000000000E+00 -0.23978854799E+04  0.23978854799E+04  0.00000000000E+00 0.  1.
    2000013    1    1    2    0    0 -0.89416754228E+03 -0.17259570007E+02 -0.97184628651E+03  0.16269046349E+04  0.95000000000E+03 0.  0.
   -2000013    1    1    2    0    0  0.89416754228E+03  0.17259570007E+02 -0.71109127552E+03  0.14859287629E+04  0.95000000000E+03 0.  0.
<mgrwt>
<rscale>  0 0.26186739E+04</rscale>
<asrwt>0</asrwt>
<pdfrwt beam="2">  1        2 0.36890546E+00 0.26186739E+04</pdfrwt>
<pdfrwt beam="1">  1       -2 0.10999199E+00 0.26186739E+04</pdfrwt>
<totfact> 0.23132981E+00</totfact>
</mgrwt>
</event>
<event>
 4    1  0.1308745E-008  0.2662772E+04  0.7816531E-02  0.8347186E-01
          2   -1    0    0  501    0  0.00000000000E+00  0.00000000000E+00  0.14808659501E+04  0.14808659501E+04  0.00000000000E+00 0.  1.
         -2   -1    0    0    0  501 -0.00000000000E+00 -0.00000000000E+00 -0.11969943328E+04  0.11969943328E+04  0.00000000000E+00 0. -1.
    2000013    1    1    2    0    0  0.83363756296E+02  0.92335834679E+03  0.24522122530E+03  0.13498791064E+04  0.95000000000E+03 0.  0.
   -2000013    1    1    2    0    0 -0.83363756296E+02 -0.92335834679E+03  0.38650392069E+02  0.13279811765E+04  0.95000000000E+03 0.  0.
<mgrwt>
<rscale>  0 0.26627716E+04</rscale>
<asrwt>0</asrwt>
<pdfrwt beam="1">  1        2 0.22782553E+00 0.26627716E+04</pdfrwt>
<pdfrwt beam="2">  1       -2 0.18415297E+00 0.26627716E+04</pdfrwt>
<totfact> 0.19448230E+00</totfact>
</mgrwt>
</event>
<event>
 4    1  0.1308745E-008  0.2037400E+04  0.7816531E-02  0.8589332E-01
         -2   -1    0    0    0  501 -0.00000000000E+00  0.00000000000E+00  0.74990312036E+03  0.74990312036E+03  0.00000000000E+00 0. -1.
          2   -1    0    0  501    0  0.00000000000E+00 -0.00000000000E+00 -0.13838456523E+04  0.13838456523E+04  0.00000000000E+00 0.  1.
    2000013    1    1    2    0    0  0.15170559156E+03 -0.24201214403E+03 -0.55958496237E+03  0.11389555718E+04  0.95000000000E+03 0.  0.
   -2000013    1    1    2    0    0 -0.15170559156E+03  0.24201214403E+03 -0.74357569572E+02  0.99479320088E+03  0.95000000000E+03 0.  0.
<mgrwt>
<rscale>  0 0.20374005E+04</rscale>
<asrwt>0</asrwt>
<pdfrwt beam="2">  1        2 0.21289933E+00 0.20374005E+04</pdfrwt>
<pdfrwt beam="1">  1       -2 0.11536971E+00 0.20374005E+04</pdfrwt>
<totfact> 0.80121343E+00</totfact>
</mgrwt>
</event>
<event>
 4    1  0.1308745E-008  0.4658021E+04  0.7816531E-02  0.7883541E-01
          2   -1    0    0  501    0  0.00000000000E+00  0.00000000000E+00  0.32184511622E+04  0.32184511622E+04  0.00000000000E+00 0.  1.
         -2   -1    0    0    0  501 -0.00000000000E+00 -0.00000000000E+00 -0.16853728937E+04  0.16853728937E+04  0.00000000000E+00 0. -1.
    2000013    1    1    2    0    0 -0.97504217517E+01  0.14726372742E+04  0.23814464028E+04  0.29567790890E+04  0.95000000000E+03 0.  0.
   -2000013    1    1    2    0    0  0.97504217517E+01 -0.14726372742E+04 -0.84836813424E+03  0.19470449669E+04  0.95000000000E+03 0.  0.
<mgrwt>
<rscale>  0 0.46580212E+04</rscale>
<asrwt>0</asrwt>
<pdfrwt beam="1">  1        2 0.49514633E+00 0.46580212E+04</pdfrwt>
<pdfrwt beam="2">  1       -2 0.25928814E+00 0.46580212E+04</pdfrwt>
<totfact> 0.53117869E-02</totfact>
</mgrwt>
</event>
<event>
 4    1  0.1308745E-008  0.2673779E+04  0.7816531E-02  0.8343563E-01
          2   -1    0    0  501    0  0.00000000000E+00  0.00000000000E+00  0.25251491700E+04  0.25251491700E+04  0.00000000000E+00 0.  1.
         -2   -1    0    0    0  501 -0.00000000000E+00 -0.00000000000E+00 -0.70778934153E+03  0.70778934153E+03  0.00000000000E+00 0. -1.
    2000013    1    1    2    0    0  0.90475820359E+03 -0.11713217932E+03  0.11856368191E+04  0.17721574482E+04  0.95000000000E+03 0.  0.
   -2000013    1    1    2    0    0 -0.90475820359E+03  0.11713217932E+03  0.63172300937E+03  0.14607810633E+04  0.95000000000E+03 0.  0.
<mgrwt>
<rscale>  0 0.26737791E+04</rscale>
<asrwt>0</asrwt>
<pdfrwt beam="1">  1        2 0.38848448E+00 0.26737791E+04</pdfrwt>
<pdfrwt beam="2">  1       -2 0.10889067E+00 0.26737791E+04</pdfrwt>
<totfact> 0.19921211E+00</totfact>
</mgrwt>
</event>
<event>
 4    1  0.1308745E-008  0.2361770E+04  0.7816531E-02  0.8453957E-01
          2   -1    0    0  501    0  0.00000000000E+00  0.00000000000E+00  0.74728975404E+03  0.74728975404E+03  0.00000000000E+00 0.  1.
         -2   -1    0    0    0  501 -0.00000000000E+00 -0.00000000000E+00 -0.18660625746E+04  0.18660625746E+04  0.00000000000E+00 0. -1.
    2000013    1    1    2    0    0 -0.47971892436E+03  0.50244042092E+03 -0.45203191900E+03  0.12607178426E+04  0.95000000000E+03 0.  0.
   -2000013    1    1    2    0    0  0.47971892436E+03 -0.50244042092E+03 -0.66674090160E+03  0.13526344860E+04  0.95000000000E+03 0.  0.
<mgrwt>
<rscale>  0 0.23617701E+04</rscale>
<asrwt>0</asrwt>
<pdfrwt beam="1">  1        2 0.11496766E+00 0.23617701E+04</pdfrwt>
<pdfrwt beam="2">  1       -2 0.28708655E+00 0.23617701E+04</pdfrwt>
<totfact> 0.12957897E+00</totfact>
</mgrwt>
</event>
<event>
 4    1  0.1308745E-008  0.2867345E+04  0.7816531E-02  0.8282660E-01
         -1   -1    0    0    0  501 -0.00000000000E+00  0.00000000000E+00  0.10938079075E+04  0.10938079075E+04  0.00000000000E+00 0. -1.
          1   -1    0    0  501    0  0.00000000000E+00 -0.00000000000E+00 -0.18791385221E+04  0.18791385221E+04  0.00000000000E+00 0.  1.
    2000013    1    1    2    0    0  0.91566656154E+03 -0.17984943420E+03  0.15805150462E+03  0.13409964016E+04  0.95000000000E+03 0.  0.
   -2000013    1    1    2    0    0 -0.91566656154E+03  0.17984943420E+03 -0.94338211922E+03  0.16319500280E+04  0.95000000000E+03 0.  0.
<mgrwt>
<rscale>  0 0.28673448E+04</rscale>
<asrwt>0</asrwt>
<pdfrwt beam="2">  1        1 0.28909823E+00 0.28673448E+04</pdfrwt>
<pdfrwt beam="1">  1       -1 0.16827814E+00 0.28673448E+04</pdfrwt>
<totfact> 0.78502168E-01</totfact>
</mgrwt>
</event>
<event>
 4    1  0.1308745E-008  0.2799637E+04  0.7816531E-02  0.8303381E-01
         -2   -1    0    0    0  501 -0.00000000000E+00  0.00000000000E+00  0.14682820603E+04  0.14682820603E+04  0.00000000000E+00 0. -1.
          2   -1    0    0  501    0  0.00000000000E+00 -0.00000000000E+00 -0.13345473113E+04  0.13345473113E+04  0.00000000000E+00 0.  1.
    2000013    1    1    2    0    0  0.85453837345E+03  0.46870596018E+03  0.39445718695E+03  0.14170453702E+04  0.95000000000E+03 0.  0.
   -2000013    1    1    2    0    0 -0.85453837345E+03 -0.46870596018E+03 -0.26072243797E+03  0.13857840014E+04  0.95000000000E+03 0.  0.
<mgrwt>
<rscale>  0 0.27996370E+04</rscale>
<asrwt>0</asrwt>
<pdfrwt beam="2">  1        2 0.20531497E+00 0.27996370E+04</pdfrwt>
<pdfrwt beam="1">  1       -2 0.22588955E+00 0.27996370E+04</pdfrwt>
<totfact> 0.12461565E+00</totfact>
</mgrwt>
</event>
<event>
 4    1  0.1308745E-008  0.3151905E+04  0.7816531E-02  0.8201636E-01
         -2   -1    0    0    0  501 -0.00000000000E+00  0.00000000000E+00  0.92647959488E+03  0.92647959488E+03  0.00000000000E+00 0. -1.
          2   -1    0    0  501    0  0.00000000000E+00 -0.00000000000E+00 -0.26807136318E+04  0.26807136318E+04  0.00000000000E+00 0.  1.
    2000013    1    1    2    0    0 -0.71270626521E+03 -0.81547473344E+03 -0.14594316766E+03  0.14480154245E+04  0.95000000000E+03 0.  0.
   -2000013    1    1    2    0    0  0.71270626521E+03  0.81547473344E+03 -0.16082908692E+04  0.21591778022E+04  0.95000000000E+03 0.  0.
<mgrwt>
<rscale>  0 0.31519051E+04</rscale>
<asrwt>0</asrwt>
<pdfrwt beam="2">  1        2 0.41241748E+00 0.31519051E+04</pdfrwt>
<pdfrwt beam="1">  1       -2 0.14253532E+00 0.31519051E+04</pdfrwt>
<totfact> 0.78976460E-01</totfact>
</mgrwt>
</event>
<event>
 4    1  0.1308745E-008  0.2354953E+04  0.7816531E-02  0.8456564E-01
          2   -1    0    0  501    0  0.00000000000E+00  0.00000000000E+00  0.14500412040E+04  0.14500412040E+04  0.00000000000E+00 0.  1.
         -2   -1    0    0    0  501 -0.00000000000E+00 -0.00000000000E+00 -0.95614609904E+03  0.95614609904E+03  0.00000000000E+00 0. -1.
    2000013    1    1    2    0    0 -0.88088713859E+02  0.67022918339E+03  0.79104253404E+02  0.11686420593E+04  0.95000000000E+03 0.  0.
   -2000013    1    1    2    0    0  0.88088713859E+02 -0.67022918339E+03  0.41479085151E+03  0.12375452437E+04  0.95000000000E+03 0.  0.
<mgrwt>
<rscale>  0 0.23549533E+04</rscale>
<asrwt>0</asrwt>
<pdfrwt beam="1">  1        2 0.22308326E+00 0.23549533E+04</pdfrwt>
<pdfrwt beam="2">  1       -2 0.14709940E+00 0.23549533E+04</pdfrwt>
<totfact> 0.38589905E+00</totfact>
</mgrwt>
</event>
<event>
 4    1  0.1308745E-008  0.3648692E+04  0.7816531E-02  0.8079428E-01
         -2   -1    0    0    0  501 -0.00000000000E+00  0.00000000000E+00  0.85096146649E+03  0.85096146649E+03  0.00000000000E+00 0. -1.
          2   -1    0    0  501    0  0.00000000000E+00 -0.00000000000E+00 -0.39111512568E+04  0.39111512568E+04  0.00000000000E+00 0.  1.
    2000013    1    1    2    0    0  0.12788590366E+04  0.87760043899E+03 -0.17150223883E+04  0.24998929494E+04  0.95000000000E+03 0.  0.
   -2000013    1    1    2    0    0 -0.12788590366E+04 -0.87760043899E+03 -0.13451674021E+04  0.22622197739E+04  0.95000000000E+03 0.  0.
<mgrwt>
<rscale>  0 0.36486924E+04</rscale>
<asrwt>0</asrwt>
<pdfrwt beam="2">  1        2 0.60171557E+00 0.36486924E+04</pdfrwt>
<pdfrwt beam="1">  1       -2 0.13091715E+00 0.36486924E+04</pdfrwt>
<totfact> 0.13913629E-01</totfact>
</mgrwt>
</event>
<event>
 4    1  0.1308745E-008  0.3006876E+04  0.7816531E-02  0.8241770E-01
          2   -1    0    0  501    0  0.00000000000E+00  0.00000000000E+00  0.22282972830E+04  0.22282972830E+04  0.00000000000E+00 0.  1.
         -2   -1    0    0    0  501 -0.00000000000E+00 -0.00000000000E+00 -0.10143735889E+04  0.10143735889E+04  0.00000000000E+00 0. -1.
    2000013    1    1    2    0    0 -0.75798875119E+03  0.77980970764E+03  0.10583232087E+04  0.17903067171E+04  0.95000000000E+03 0.  0.
   -2000013    1    1    2    0    0  0.75798875119E+03 -0.77980970764E+03  0.15560048536E+03  0.14523641548E+04  0.95000000000E+03 0.  0.
<mgrwt>
<rscale>  0 0.30068761E+04</rscale>
<asrwt>0</asrwt>
<pdfrwt beam="1">  1        2 0.34281497E+00 0.30068761E+04</pdfrwt>
<pdfrwt beam="2">  1       -2 0.15605748E+00 0.30068761E+04</pdfrwt>
<totfact> 0.11477932E+00</totfact>
</mgrwt>
</event>
<event>
 4    1  0.1308745E-008  0.3749223E+04  0.7816531E-02  0.8057140E-01
          2   -1    0    0  501    0  0.00000000000E+00  0.00000000000E+00  0.24110145487E+04  0.24110145487E+04  0.00000000000E+00 0. -1.
         -2   -1    0    0    0  501 -0.00000000000E+00 -0.00000000000E+00 -0.14575471842E+04  0.14575471842E+04  0.00000000000E+00 0.  1.
    2000013    1    1    2    0    0  0.13646744259E+04 -0.68428902103E+03 -0.70311326735E+02  0.17994530935E+04  0.95000000000E+03 0.  0.
   -2000013    1    1    2    0    0 -0.13646744259E+04  0.68428902103E+03  0.10237786912E+04  0.20691086394E+04  0.95000000000E+03 0.  0.
<mgrwt>
<rscale>  0 0.37492226E+04</rscale>
<asrwt>0</asrwt>
<pdfrwt beam="1">  1        2 0.37092532E+00 0.37492226E+04</pdfrwt>
<pdfrwt beam="2">  1       -2 0.22423803E+00 0.37492226E+04</pdfrwt>
<totfact> 0.29314342E-01</totfact>
</mgrwt>
</event>
<event>
 4    1  0.1308745E-008  0.2487887E+04  0.7816531E-02  0.8407314E-01
         -2   -1    0    0    0  501 -0.00000000000E+00  0.00000000000E+00  0.10213836209E+04  0.10213836209E+04  0.00000000000E+00 0. -1.
          2   -1    0    0  501    0  0.00000000000E+00 -0.00000000000E+00 -0.15149994654E+04  0.15149994654E+04  0.00000000000E+00 0.  1.
    2000013    1    1    2    0    0  0.62936634909E+03 -0.31896586674E+03 -0.63775970787E+03  0.13442762627E+04  0.95000000000E+03 0.  0.
   -2000013    1    1    2    0    0 -0.62936634909E+03  0.31896586674E+03  0.14414386342E+03  0.11921068236E+04  0.95000000000E+03 0.  0.
<mgrwt>
<rscale>  0 0.24878872E+04</rscale>
<asrwt>0</asrwt>
<pdfrwt beam="2">  1        2 0.23307684E+00 0.24878872E+04</pdfrwt>
<pdfrwt beam="1">  1       -2 0.15713594E+00 0.24878872E+04</pdfrwt>
<totfact> 0.29407508E+00</totfact>
</mgrwt>
</event>
<event>
 4    1  0.1308745E-008  0.3512910E+04  0.7816531E-02  0.8110737E-01
          2   -1    0    0  501    0  0.00000000000E+00  0.00000000000E+00  0.25994622659E+04  0.25994622659E+04  0.00000000000E+00 0. -1.
         -2   -1    0    0    0  501 -0.00000000000E+00 -0.00000000000E+00 -0.11868355747E+04  0.11868355747E+04  0.00000000000E+00 0.  1.
    2000013    1    1    2    0    0  0.10906927172E+04  0.89269761906E+03  0.11836257931E+04  0.20712290217E+04  0.95000000000E+03 0.  0.
   -2000013    1    1    2    0    0 -0.10906927172E+04 -0.89269761906E+03  0.22900089809E+03  0.17150688189E+04  0.95000000000E+03 0.  0.
<mgrwt>
<rscale>  0 0.35129101E+04</rscale>
<asrwt>0</asrwt>
<pdfrwt beam="1">  1        2 0.39991727E+00 0.35129101E+04</pdfrwt>
<pdfrwt beam="2">  1       -2 0.18259009E+00 0.35129101E+04</pdfrwt>
<totfact> 0.43496208E-01</totfact>
</mgrwt>
</event>
<event>
 4    1  0.1308745E-008  0.2295416E+04  0.7816531E-02  0.8479731E-01
         -2   -1    0    0    0  501 -0.00000000000E+00  0.00000000000E+00  0.52233369831E+03  0.52233369831E+03  0.00000000000E+00 0. -1.
          2   -1    0    0  501    0  0.00000000000E+00 -0.00000000000E+00 -0.25218248155E+04  0.25218248155E+04  0.00000000000E+00 0.  1.
    2000013    1    1    2    0    0 -0.75962754366E+02 -0.63718900992E+03 -0.10718238140E+04  0.15694223340E+04  0.95000000000E+03 0.  0.
   -2000013    1    1    2    0    0  0.75962754366E+02  0.63718900992E+03 -0.92766730321E+03  0.14747361798E+04  0.95000000000E+03 0.  0.
<mgrwt>
<rscale>  0 0.22954164E+04</rscale>
<asrwt>0</asrwt>
<pdfrwt beam="2">  1        2 0.38797304E+00 0.22954164E+04</pdfrwt>
<pdfrwt beam="1">  1       -2 0.80359032E-01 0.22954164E+04</pdfrwt>
<totfact> 0.41961004E+00</totfact>
</mgrwt>
</event>
<event>
 4    1  0.1308745E-008  0.2593967E+04  0.7816531E-02  0.8370253E-01
          2   -1    0    0  501    0  0.00000000000E+00  0.00000000000E+00  0.14112418076E+04  0.14112418076E+04  0.00000000000E+00 0.  1.
         -2   -1    0    0    0  501 -0.00000000000E+00 -0.00000000000E+00 -0.11919755397E+04  0.11919755397E+04  0.00000000000E+00 0. -1.
    2000013    1    1    2    0    0 -0.76953857606E+03 -0.27303043762E+03 -0.22761660602E+03  0.12732024816E+04  0.95000000000E+03 0.  0.
   -2000013    1    1    2    0    0  0.76953857606E+03  0.27303043762E+03  0.44688287391E+03  0.13300148657E+04  0.95000000000E+03 0.  0.
<mgrwt>
<rscale>  0 0.25939666E+04</rscale>
<asrwt>0</asrwt>
<pdfrwt beam="1">  1        2 0.21711412E+00 0.25939666E+04</pdfrwt>
<pdfrwt beam="2">  1       -2 0.18338085E+00 0.25939666E+04</pdfrwt>
<totfact> 0.21689444E+00</totfact>
</mgrwt>
</event>
<event>
 4    1  0.1308745E-008  0.2034692E+04  0.7816531E-02  0.8590571E-01
          2   -1    0    0  501    0  0.00000000000E+00  0.00000000000E+00  0.57765246305E+03  0.57765246305E+03  0.00000000000E+00 0.  1.
         -2   -1    0    0    0  501 -0.00000000000E+00 -0.00000000000E+00 -0.17917225287E+04  0.17917225287E+04  0.00000000000E+00 0. -1.
    2000013    1    1    2    0    0  0.17879432522E+03 -0.27567302080E+03 -0.42465257638E+03  0.10912345466E+04  0.95000000000E+03 0.  0.
   -2000013    1    1    2    0    0 -0.17879432522E+03  0.27567302080E+03 -0.78941748933E+03  0.12781404452E+04  0.95000000000E+03 0.  0.
<mgrwt>
<rscale>  0 0.20346920E+04</rscale>
<asrwt>0</asrwt>
<pdfrwt beam="1">  1        2 0.88869610E-01 0.20346920E+04</pdfrwt>
<pdfrwt beam="2">  1       -2 0.27564962E+00 0.20346920E+04</pdfrwt>
<totfact> 0.21540350E+00</totfact>
</mgrwt>
</event>
<event>
 4    1  0.1308745E-008  0.2444527E+04  0.7816531E-02  0.8423019E-01
         -2   -1    0    0    0  501 -0.00000000000E+00  0.00000000000E+00  0.14724318690E+04  0.14724318690E+04  0.00000000000E+00 0. -1.
          2   -1    0    0  501    0  0.00000000000E+00 -0.00000000000E+00 -0.10145991887E+04  0.10145991887E+04  0.00000000000E+00 0.  1.
    2000013    1    1    2    0    0 -0.70907499109E+03 -0.29517324568E+03  0.18933497774E+03  0.12362290733E+04  0.95000000000E+03 0.  0.
   -2000013    1    1    2    0    0  0.70907499109E+03  0.29517324568E+03  0.26849770252E+03  0.12508019844E+04  0.95000000000E+03 0.  0.
<mgrwt>
<rscale>  0 0.24445271E+04</rscale>
<asrwt>0</asrwt>
<pdfrwt beam="2">  1        2 0.15609218E+00 0.24445271E+04</pdfrwt>
<pdfrwt beam="1">  1       -2 0.22652798E+00 0.24445271E+04</pdfrwt>
<totfact> 0.19850742E+00</totfact>
</mgrwt>
</event>
<event>
 4    1  0.1308745E-008  0.2774707E+04  0.7816531E-02  0.8311164E-01
          2   -1    0    0  501    0  0.00000000000E+00  0.00000000000E+00  0.15929484358E+04  0.15929484358E+04  0.00000000000E+00 0.  1.
         -2   -1    0    0    0  501 -0.00000000000E+00 -0.00000000000E+00 -0.12082936213E+04  0.12082936213E+04  0.00000000000E+00 0. -1.
    2000013    1    1    2    0    0 -0.20289173097E+03  0.81989119746E+03 -0.36874168712E+03  0.13235773729E+04  0.95000000000E+03 0.  0.
   -2000013    1    1    2    0    0  0.20289173097E+03 -0.81989119746E+03  0.75339650171E+03  0.14776646842E+04  0.95000000000E+03 0.  0.
<mgrwt>
<rscale>  0 0.27747068E+04</rscale>
<asrwt>0</asrwt>
<pdfrwt beam="1">  1        2 0.24506899E+00 0.27747068E+04</pdfrwt>
<pdfrwt beam="2">  1       -2 0.18589132E+00 0.27747068E+04</pdfrwt>
<totfact> 0.16215936E+00</totfact>
</mgrwt>
</event>
<event>
 4    1  0.1308745E-008  0.2449226E+04  0.7816531E-02  0.8421301E-01
         -2   -1    0    0    0  501 -0.00000000000E+00  0.00000000000E+00  0.48896262176E+03  0.48896262176E+03  0.00000000000E+00 0. -1.
          2   -1    0    0  501    0  0.00000000000E+00 -0.00000000000E+00 -0.30670589502E+04  0.30670589502E+04  0.00000000000E+00 0.  1.
    2000013    1    1    2    0    0  0.60117362617E+03 -0.48076053928E+03 -0.11901831055E+04  0.17063341553E+04  0.95000000000E+03 0.  0.
   -2000013    1    1    2    0    0 -0.60117362617E+03  0.48076053928E+03 -0.13879132229E+04  0.18496874167E+04  0.95000000000E+03 0.  0.
<mgrwt>
<rscale>  0 0.24492262E+04</rscale>
<asrwt>0</asrwt>
<pdfrwt beam="2">  1        2 0.47185521E+00 0.24492262E+04</pdfrwt>
<pdfrwt beam="1">  1       -2 0.75225020E-01 0.24492262E+04</pdfrwt>
<totfact> 0.22447444E+00</totfact>
</mgrwt>
</event>
<event>
 4    1  0.1308745E-008  0.2853989E+04  0.7816531E-02  0.8286700E-01
         -2   -1    0    0    0  501 -0.00000000000E+00  0.00000000000E+00  0.12596729286E+04  0.12596729286E+04  0.00000000000E+00 0. -1.
          2   -1    0    0  501    0  0.00000000000E+00 -0.00000000000E+00 -0.16165410653E+04  0.16165410653E+04  0.00000000000E+00 0.  1.
    2000013    1    1    2    0    0 -0.51155689293E+03 -0.90200094296E+03 -0.42222045212E+03  0.14683549523E+04  0.95000000000E+03 0.  0.
   -2000013    1    1    2    0    0  0.51155689293E+03  0.90200094296E+03  0.65352315439E+02  0.14078590416E+04  0.95000000000E+03 0.  0.
<mgrwt>
<rscale>  0 0.28539888E+04</rscale>
<asrwt>0</asrwt>
<pdfrwt beam="2">  1        2 0.24869863E+00 0.28539888E+04</pdfrwt>
<pdfrwt beam="1">  1       -2 0.19379583E+00 0.28539888E+04</pdfrwt>
<totfact> 0.13827838E+00</totfact>
</mgrwt>
</event>
<event>
 4    1  0.1308745E-008  0.3143859E+04  0.7816531E-02  0.8203803E-01
         -2   -1    0    0    0  501 -0.00000000000E+00  0.00000000000E+00  0.11587782377E+04  0.11587782377E+04  0.00000000000E+00 0. -1.
          2   -1    0    0  501    0  0.00000000000E+00 -0.00000000000E+00 -0.21323864295E+04  0.21323864295E+04  0.00000000000E+00 0.  1.
    2000013    1    1    2    0    0  0.23837826127E+03 -0.55794724072E+03  0.66012742965E+03  0.13062915227E+04  0.95000000000E+03 0.  0.
   -2000013    1    1    2    0    0 -0.23837826127E+03  0.55794724072E+03 -0.16337356215E+04  0.19848731445E+04  0.95000000000E+03 0.  0.
<mgrwt>
<rscale>  0 0.31438594E+04</rscale>
<asrwt>0</asrwt>
<pdfrwt beam="2">  1        2 0.32805944E+00 0.31438594E+04</pdfrwt>
<pdfrwt beam="1">  1       -2 0.17827358E+00 0.31438594E+04</pdfrwt>
<totfact> 0.88867446E-01</totfact>
</mgrwt>
</event>
<event>
 4    1  0.1308745E-008  0.2260365E+04  0.7816531E-02  0.8493715E-01
          1   -1    0    0  501    0  0.00000000000E+00  0.00000000000E+00  0.10001002441E+04  0.10001002441E+04  0.00000000000E+00 0.  1.
         -1   -1    0    0    0  501 -0.00000000000E+00 -0.00000000000E+00 -0.12771845527E+04  0.12771845527E+04  0.00000000000E+00 0. -1.
    2000013    1    1    2    0    0 -0.12783204073E+03  0.55453297936E+03  0.88901386231E+02  0.11109686370E+04  0.95000000000E+03 0.  0.
   -2000013    1    1    2    0    0  0.12783204073E+03 -0.55453297936E+03 -0.36598569482E+03  0.11663161598E+04  0.95000000000E+03 0.  0.
<mgrwt>
<rscale>  0 0.22603651E+04</rscale>
<asrwt>0</asrwt>
<pdfrwt beam="1">  1        1 0.15386158E+00 0.22603651E+04</pdfrwt>
<pdfrwt beam="2">  1       -1 0.19648993E+00 0.22603651E+04</pdfrwt>
<totfact> 0.21839435E+00</totfact>
</mgrwt>
</event>
<event>
 4    1  0.1308745E-008  0.2510219E+04  0.7816531E-02  0.8399354E-01
          2   -1    0    0  501    0  0.00000000000E+00  0.00000000000E+00  0.32775634653E+04  0.32775634653E+04  0.00000000000E+00 0.  1.
         -2   -1    0    0    0  501 -0.00000000000E+00 -0.00000000000E+00 -0.48063132440E+03  0.48063132440E+03  0.00000000000E+00 0. -1.
    2000013    1    1    2    0    0 -0.61494013486E+03 -0.49561756472E+03  0.10670169841E+04  0.16324256137E+04  0.95000000000E+03 0.  0.
   -2000013    1    1    2    0    0  0.61494013486E+03  0.49561756472E+03  0.17299151568E+04  0.21257691760E+04  0.95000000000E+03 0.  0.
<mgrwt>
<rscale>  0 0.25102189E+04</rscale>
<asrwt>0</asrwt>
<pdfrwt beam="1">  1        2 0.50424052E+00 0.25102189E+04</pdfrwt>
<pdfrwt beam="2">  1       -2 0.73943283E-01 0.25102189E+04</pdfrwt>
<totfact> 0.16939450E+00</totfact>
</mgrwt>
</event>
<event>
 4    1  0.1308745E-008  0.2613003E+04  0.7816531E-02  0.8363798E-01
         -1   -1    0    0    0  501 -0.00000000000E+00  0.00000000000E+00  0.13007711956E+04  0.13007711956E+04  0.00000000000E+00 0. -1.
          1   -1    0    0  501    0  0.00000000000E+00 -0.00000000000E+00 -0.13122575485E+04  0.13122575485E+04  0.00000000000E+00 0.  1.
    2000013    1    1    2    0    0 -0.11739313777E+03  0.72212151295E+03  0.51311267443E+03  0.13042335853E+04  0.95000000000E+03 0.  0.
   -2000013    1    1    2    0    0  0.11739313777E+03 -0.72212151295E+03 -0.52459902734E+03  0.13087951588E+04  0.95000000000E+03 0.  0.
<mgrwt>
<rscale>  0 0.26130035E+04</rscale>
<asrwt>0</asrwt>
<pdfrwt beam="2">  1        1 0.20188578E+00 0.26130035E+04</pdfrwt>
<pdfrwt beam="1">  1       -1 0.20011865E+00 0.26130035E+04</pdfrwt>
<totfact> 0.11716051E+00</totfact>
</mgrwt>
</event>
<event>
 4    1  0.1308745E-008  0.2690354E+04  0.7816531E-02  0.8338142E-01
         -2   -1    0    0    0  501 -0.00000000000E+00  0.00000000000E+00  0.13396677576E+04  0.13396677576E+04  0.00000000000E+00 0. -1.
          2   -1    0    0  501    0  0.00000000000E+00 -0.00000000000E+00 -0.13507084199E+04  0.13507084199E+04  0.00000000000E+00 0.  1.
    2000013    1    1    2    0    0 -0.30992164752E+03 -0.82507126265E+03  0.35532409069E+03  0.13437072693E+04  0.95000000000E+03 0.  0.
   -2000013    1    1    2    0    0  0.30992164752E+03  0.82507126265E+03 -0.36636475297E+03  0.13466689082E+04  0.95000000000E+03 0.  0.
<mgrwt>
<rscale>  0 0.26903535E+04</rscale>
<asrwt>0</asrwt>
<pdfrwt beam="2">  1        2 0.20780129E+00 0.26903535E+04</pdfrwt>
<pdfrwt beam="1">  1       -2 0.20610273E+00 0.26903535E+04</pdfrwt>
<totfact> 0.16458227E+00</totfact>
</mgrwt>
</event>
<event>
 4    1  0.1308745E-008  0.2154003E+04  0.7816531E-02  0.8537821E-01
         -2   -1    0    0    0  501 -0.00000000000E+00  0.00000000000E+00  0.10032408953E+04  0.10032408953E+04  0.00000000000E+00 0. -1.
          2   -1    0    0  501    0  0.00000000000E+00 -0.00000000000E+00 -0.11561856067E+04  0.11561856067E+04  0.00000000000E+00 0.  1.
    2000013    1    1    2    0    0  0.26342554314E+03  0.26860198085E+03 -0.41775953269E+03  0.11038854415E+04  0.95000000000E+03 0.  0.
   -2000013    1    1    2    0    0 -0.26342554314E+03 -0.26860198085E+03  0.26481482131E+03  0.10555410605E+04  0.95000000000E+03 0.  0.
<mgrwt>
<rscale>  0 0.21540034E+04</rscale>
<asrwt>0</asrwt>
<pdfrwt beam="2">  1        2 0.17787471E+00 0.21540034E+04</pdfrwt>
<pdfrwt beam="1">  1       -2 0.15434475E+00 0.21540034E+04</pdfrwt>
<totfact> 0.51277027E+00</totfact>
</mgrwt>
</event>
<event>
 4    1  0.1308745E-008  0.3261419E+04  0.7816531E-02  0.8172782E-01
         -2   -1    0    0    0  501 -0.00000000000E+00  0.00000000000E+00  0.10708316335E+04  0.10708316335E+04  0.00000000000E+00 0. -1.
          2   -1    0    0  501    0  0.00000000000E+00 -0.00000000000E+00 -0.24833160119E+04  0.24833160119E+04  0.00000000000E+00 0.  1.
    2000013    1    1    2    0    0 -0.10751318806E+04  0.77492547043E+03 -0.68751563576E+03  0.17696315421E+04  0.95000000000E+03 0.  0.
   -2000013    1    1    2    0    0  0.10751318806E+04 -0.77492547043E+03 -0.72496874264E+03  0.17845161034E+04  0.95000000000E+03 0.  0.
<mgrwt>
<rscale>  0 0.32614189E+04</rscale>
<asrwt>0</asrwt>
<pdfrwt beam="2">  1        2 0.38204862E+00 0.32614189E+04</pdfrwt>
<pdfrwt beam="1">  1       -2 0.16474333E+00 0.32614189E+04</pdfrwt>
<totfact> 0.69329897E-01</totfact>
</mgrwt>
</event>
<event>
 4    1  0.1308745E-008  0.3342803E+04  0.7816531E-02  0.8152089E-01
          2   -1    0    0  501    0  0.00000000000E+00  0.00000000000E+00  0.19744180702E+04  0.19744180702E+04  0.00000000000E+00 0.  1.
         -2   -1    0    0    0  501 -0.00000000000E+00 -0.00000000000E+00 -0.14148890525E+04  0.14148890525E+04  0.00000000000E+00 0. -1.
    2000013    1    1    2    0    0 -0.44944808323E+03  0.98235985397E+03  0.11425123300E+04  0.18370816221E+04  0.95000000000E+03 0.  0.
   -2000013    1    1    2    0    0  0.44944808323E+03 -0.98235985397E+03 -0.58298331236E+03  0.15522255006E+04  0.95000000000E+03 0.  0.
<mgrwt>
<rscale>  0 0.33428027E+04</rscale>
<asrwt>0</asrwt>
<pdfrwt beam="1">  1        2 0.30375663E+00 0.33428027E+04</pdfrwt>
<pdfrwt beam="2">  1       -2 0.21767524E+00 0.33428027E+04</pdfrwt>
<totfact> 0.58759819E-01</totfact>
</mgrwt>
</event>
<event>
 4    1  0.1308745E-008  0.2918768E+04  0.7816531E-02  0.8267315E-01
          1   -1    0    0  501    0  0.00000000000E+00  0.00000000000E+00  0.26500749519E+04  0.26500749519E+04  0.00000000000E+00 0.  1.
         -1   -1    0    0    0  501 -0.00000000000E+00 -0.00000000000E+00 -0.80367578330E+03  0.80367578330E+03  0.00000000000E+00 0. -1.
    2000013    1    1    2    0    0  0.40321110443E+03 -0.96791464679E+03  0.13463201137E+04  0.19530785460E+04  0.95000000000E+03 0.  0.
   -2000013    1    1    2    0    0 -0.40321110443E+03  0.96791464679E+03  0.50007905481E+03  0.15006721891E+04  0.95000000000E+03 0.  0.
<mgrwt>
<rscale>  0 0.29187676E+04</rscale>
<asrwt>0</asrwt>
<pdfrwt beam="1">  1        1 0.40770383E+00 0.29187676E+04</pdfrwt>
<pdfrwt beam="2">  1       -1 0.12364243E+00 0.29187676E+04</pdfrwt>
<totfact> 0.52415776E-01</totfact>
</mgrwt>
</event>
<event>
 4    1  0.1308745E-008  0.2468798E+04  0.7816531E-02  0.8414186E-01
          2   -1    0    0  501    0  0.00000000000E+00  0.00000000000E+00  0.16480910103E+04  0.16480910103E+04  0.00000000000E+00 0.  1.
         -2   -1    0    0    0  501 -0.00000000000E+00 -0.00000000000E+00 -0.92454929762E+03  0.92454929762E+03  0.00000000000E+00 0. -1.
    2000013    1    1    2    0    0  0.63052317574E+03  0.35423152060E+03  0.35218006986E+02  0.11944788627E+04  0.95000000000E+03 0.  0.
   -2000013    1    1    2    0    0 -0.63052317574E+03 -0.35423152060E+03  0.68832370568E+03  0.13781614452E+04  0.95000000000E+03 0.  0.
<mgrwt>
<rscale>  0 0.24687984E+04</rscale>
<asrwt>0</asrwt>
<pdfrwt beam="1">  1        2 0.25355246E+00 0.24687984E+04</pdfrwt>
<pdfrwt beam="2">  1       -2 0.14223835E+00 0.24687984E+04</pdfrwt>
<totfact> 0.32306154E+00</totfact>
</mgrwt>
</event>
<event>
 4    1  0.1308745E-008  0.3747646E+04  0.7816531E-02  0.8057484E-01
          2   -1    0    0  501    0  0.00000000000E+00  0.00000000000E+00  0.21750162931E+04  0.21750162931E+04  0.00000000000E+00 0.  1.
         -2   -1    0    0    0  501 -0.00000000000E+00 -0.00000000000E+00 -0.16143381795E+04  0.16143381795E+04  0.00000000000E+00 0. -1.
    2000013    1    1    2    0    0 -0.75784015618E+03 -0.14252755360E+04  0.33553400562E+03  0.19028439570E+04  0.95000000000E+03 0.  0.
   -2000013    1    1    2    0    0  0.75784015618E+03  0.14252755360E+04  0.22514410797E+03  0.18865105155E+04  0.95000000000E+03 0.  0.
<mgrwt>
<rscale>  0 0.37476456E+04</rscale>
<asrwt>0</asrwt>
<pdfrwt beam="1">  1        2 0.33461789E+00 0.37476456E+04</pdfrwt>
<pdfrwt beam="2">  1       -2 0.24835972E+00 0.37476456E+04</pdfrwt>
<totfact> 0.28251453E-01</totfact>
</mgrwt>
</event>
<event>
 4    1  0.1308745E-008  0.2559849E+04  0.7816531E-02  0.8381969E-01
          2   -1    0    0  501    0  0.00000000000E+00  0.00000000000E+00  0.21510994613E+04  0.21510994613E+04  0.00000000000E+00 0.  1.
         -2   -1    0    0    0  501 -0.00000000000E+00 -0.00000000000E+00 -0.76156740432E+03  0.76156740432E+03  0.00000000000E+00 0. -1.
    2000013    1    1    2    0    0  0.79261304872E+03  0.12278726221E+03  0.10406264087E+04  0.16213313909E+04  0.95000000000E+03 0.  0.
   -2000013    1    1    2    0    0 -0.79261304872E+03 -0.12278726221E+03  0.34890564828E+03  0.12913354747E+04  0.95000000000E+03 0.  0.
<mgrwt>
<rscale>  0 0.25598494E+04</rscale>
<asrwt>0</asrwt>
<pdfrwt beam="1">  1        2 0.33093838E+00 0.25598494E+04</pdfrwt>
<pdfrwt beam="2">  1       -2 0.11716422E+00 0.25598494E+04</pdfrwt>
<totfact> 0.27501338E+00</totfact>
</mgrwt>
</event>
<event>
 4    1  0.1308745E-008  0.3001134E+04  0.7816531E-02  0.8243407E-01
         -2   -1    0    0    0  501 -0.00000000000E+00  0.00000000000E+00  0.10332976185E+04  0.10332976185E+04  0.00000000000E+00 0. -1.
          2   -1    0    0  501    0  0.00000000000E+00 -0.00000000000E+00 -0.21791408065E+04  0.21791408065E+04  0.00000000000E+00 0.  1.
    2000013    1    1    2    0    0  0.23887685808E+03 -0.40756502066E+03  0.56293724022E+03  0.12010702460E+04  0.95000000000E+03 0.  0.
   -2000013    1    1    2    0    0 -0.23887685808E+03  0.40756502066E+03 -0.17087804282E+04  0.20113681789E+04  0.95000000000E+03 0.  0.
<mgrwt>
<rscale>  0 0.30011338E+04</rscale>
<asrwt>0</asrwt>
<pdfrwt beam="2">  1        2 0.33525243E+00 0.30011338E+04</pdfrwt>
<pdfrwt beam="1">  1       -2 0.15896886E+00 0.30011338E+04</pdfrwt>
<totfact> 0.11641361E+00</totfact>
</mgrwt>
</event>
<event>
 4    1  0.1308745E-008  0.3115931E+04  0.7816531E-02  0.8211379E-01
         -2   -1    0    0    0  501 -0.00000000000E+00  0.00000000000E+00  0.15852492060E+04  0.15852492060E+04  0.00000000000E+00 0. -1.
          2   -1    0    0  501    0  0.00000000000E+00 -0.00000000000E+00 -0.15311515717E+04  0.15311515717E+04  0.00000000000E+00 0.  1.
    2000013    1    1    2    0    0  0.22224242864E+03 -0.11605931126E+04  0.38541656525E+03  0.15644212984E+04  0.95000000000E+03 0.  0.
   -2000013    1    1    2    0    0 -0.22224242864E+03  0.11605931126E+04 -0.33131893089E+03  0.15519794793E+04  0.95000000000E+03 0.  0.
<mgrwt>
<rscale>  0 0.31159312E+04</rscale>
<asrwt>0</asrwt>
<pdfrwt beam="2">  1        2 0.23556178E+00 0.31159312E+04</pdfrwt>
<pdfrwt beam="1">  1       -2 0.24388449E+00 0.31159312E+04</pdfrwt>
<totfact> 0.72448204E-01</totfact>
</mgrwt>
</event>
<event>
 4    1  0.1308745E-008  0.2157865E+04  0.7816531E-02  0.8536173E-01
          2   -1    0    0  501    0  0.00000000000E+00  0.00000000000E+00  0.21841082034E+04  0.21841082034E+04  0.00000000000E+00 0.  1.
         -2   -1    0    0    0  501 -0.00000000000E+00 -0.00000000000E+00 -0.53298431314E+03  0.53298431314E+03  0.00000000000E+00 0. -1.
    2000013    1    1    2    0    0 -0.32930314580E+03  0.38714183134E+03  0.89763210455E+03  0.14023418822E+04  0.95000000000E+03 0.  0.
   -2000013    1    1    2    0    0  0.32930314580E+03 -0.38714183134E+03  0.75349178572E+03  0.13147506344E+04  0.95000000000E+03 0.  0.
<mgrwt>
<rscale>  0 0.21578651E+04</rscale>
<asrwt>0</asrwt>
<pdfrwt beam="1">  1        2 0.33601664E+00 0.21578651E+04</pdfrwt>
<pdfrwt beam="2">  1       -2 0.81997587E-01 0.21578651E+04</pdfrwt>
<totfact> 0.63206140E+00</totfact>
</mgrwt>
</event>
<event>
 4    1  0.1308745E-008  0.2865902E+04  0.7816531E-02  0.8283096E-01
         -1   -1    0    0    0  501 -0.00000000000E+00  0.00000000000E+00  0.10609301362E+04  0.10609301362E+04  0.00000000000E+00 0. -1.
          1   -1    0    0  501    0  0.00000000000E+00 -0.00000000000E+00 -0.19354229179E+04  0.19354229179E+04  0.00000000000E+00 0.  1.
    2000013    1    1    2    0    0 -0.75190822902E+03 -0.63967059901E+03 -0.87624463938E+03  0.16262992124E+04  0.95000000000E+03 0.  0.
   -2000013    1    1    2    0    0  0.75190822902E+03  0.63967059901E+03  0.17518576800E+01  0.13700538417E+04  0.95000000000E+03 0.  0.
<mgrwt>
<rscale>  0 0.28659020E+04</rscale>
<asrwt>0</asrwt>
<pdfrwt beam="2">  1        1 0.29775737E+00 0.28659020E+04</pdfrwt>
<pdfrwt beam="1">  1       -1 0.16322002E+00 0.28659020E+04</pdfrwt>
<totfact> 0.78416587E-01</totfact>
</mgrwt>
</event>
<event>
 4    1  0.1308745E-008  0.2204212E+04  0.7816531E-02  0.8516677E-01
         -2   -1    0    0    0  501 -0.00000000000E+00  0.00000000000E+00  0.32072478714E+03  0.32072478714E+03  0.00000000000E+00 0. -1.
          2   -1    0    0  501    0  0.00000000000E+00 -0.00000000000E+00 -0.37871659763E+04  0.37871659763E+04  0.00000000000E+00 0.  1.
    2000013    1    1    2    0    0  0.31008010150E+03  0.45626270593E+03 -0.15684933816E+04  0.19149404205E+04  0.95000000000E+03 0.  0.
   -2000013    1    1    2    0    0 -0.31008010150E+03 -0.45626270593E+03 -0.18979478076E+04  0.21929503429E+04  0.95000000000E+03 0.  0.
<mgrwt>
<rscale>  0 0.22042123E+04</rscale>
<asrwt>0</asrwt>
<pdfrwt beam="2">  1        2 0.58264089E+00 0.22042123E+04</pdfrwt>
<pdfrwt beam="1">  1       -2 0.49342277E-01 0.22042123E+04</pdfrwt>
<totfact> 0.17939493E+00</totfact>
</mgrwt>
</event>
<event>
 4    1  0.1308745E-008  0.2420450E+04  0.7816531E-02  0.8431887E-01
         -2   -1    0    0    0  501 -0.00000000000E+00  0.00000000000E+00  0.79419888328E+03  0.79419888328E+03  0.00000000000E+00 0. -1.
          2   -1    0    0  501    0  0.00000000000E+00 -0.00000000000E+00 -0.18441788427E+04  0.18441788427E+04  0.00000000000E+00 0.  1.
    2000013    1    1    2    0    0 -0.74499804575E+03 -0.21609935341E+02 -0.43606215087E+03  0.12837987681E+04  0.95000000000E+03 0.  0.
   -2000013    1    1    2    0    0  0.74499804575E+03  0.21609935341E+02 -0.61391780850E+03  0.13545789579E+04  0.95000000000E+03 0.  0.
<mgrwt>
<rscale>  0 0.24204502E+04</rscale>
<asrwt>0</asrwt>
<pdfrwt beam="2">  1        2 0.28371982E+00 0.24204502E+04</pdfrwt>
<pdfrwt beam="1">  1       -2 0.12218444E+00 0.24204502E+04</pdfrwt>
<totfact> 0.37167264E+00</totfact>
</mgrwt>
</event>
<event>
 4    1  0.1308745E-008  0.2022630E+04  0.7816531E-02  0.8596113E-01
         -2   -1    0    0    0  501 -0.00000000000E+00  0.00000000000E+00  0.97261702884E+03  0.97261702884E+03  0.00000000000E+00 0. -1.
          2   -1    0    0  501    0  0.00000000000E+00 -0.00000000000E+00 -0.10515531440E+04  0.10515531440E+04  0.00000000000E+00 0.  1.
    2000013    1    1    2    0    0  0.76206433074E+02 -0.25900513092E+03 -0.25727430155E+03  0.10205788282E+04  0.95000000000E+03 0.  0.
   -2000013    1    1    2    0    0 -0.76206433074E+02  0.25900513092E+03  0.17833818642E+03  0.10035913446E+04  0.95000000000E+03 0.  0.
<mgrwt>
<rscale>  0 0.20226305E+04</rscale>
<asrwt>0</asrwt>
<pdfrwt beam="2">  1        2 0.16177741E+00 0.20226305E+04</pdfrwt>
<pdfrwt beam="1">  1       -2 0.14963339E+00 0.20226305E+04</pdfrwt>
<totfact> 0.65314404E+00</totfact>
</mgrwt>
</event>
<event>
 4    1  0.1308745E-008  0.1946954E+04  0.7816531E-02  0.8631831E-01
          2   -1    0    0  501    0  0.00000000000E+00  0.00000000000E+00  0.19280435251E+04  0.19280435251E+04  0.00000000000E+00 0.  1.
         -2   -1    0    0    0  501 -0.00000000000E+00 -0.00000000000E+00 -0.49151260217E+03  0.49151260217E+03  0.00000000000E+00 0. -1.
    2000013    1    1    2    0    0 -0.12740335579E+03  0.59201706027E+02  0.52012267524E+03  0.10921373789E+04  0.95000000000E+03 0.  0.
   -2000013    1    1    2    0    0  0.12740335579E+03 -0.59201706027E+02  0.91640824765E+03  0.13274187483E+04  0.95000000000E+03 0.  0.
<mgrwt>
<rscale>  0 0.19469542E+04</rscale>
<asrwt>0</asrwt>
<pdfrwt beam="1">  1        2 0.29662208E+00 0.19469542E+04</pdfrwt>
<pdfrwt beam="2">  1       -2 0.75617324E-01 0.19469542E+04</pdfrwt>
<totfact> 0.10716960E+01</totfact>
</mgrwt>
</event>
<event>
 4    1  0.1308745E-008  0.2552889E+04  0.7816531E-02  0.8384382E-01
          2   -1    0    0  501    0  0.00000000000E+00  0.00000000000E+00  0.30070313462E+04  0.30070313462E+04  0.00000000000E+00 0.  1.
         -2   -1    0    0    0  501 -0.00000000000E+00 -0.00000000000E+00 -0.54183343247E+03  0.54183343247E+03  0.00000000000E+00 0. -1.
    2000013    1    1    2    0    0  0.43804690035E+03 -0.40544099167E+03  0.20788060665E+04  0.23622451495E+04  0.95000000000E+03 0.  0.
   -2000013    1    1    2    0    0 -0.43804690035E+03  0.40544099167E+03  0.38639184733E+03  0.11866196292E+04  0.95000000000E+03 0.  0.
<mgrwt>
<rscale>  0 0.25528887E+04</rscale>
<asrwt>0</asrwt>
<pdfrwt beam="1">  1        2 0.46262020E+00 0.25528887E+04</pdfrwt>
<pdfrwt beam="2">  1       -2 0.83358991E-01 0.25528887E+04</pdfrwt>
<totfact> 0.19278184E+00</totfact>
</mgrwt>
</event>
<event>
 4    1  0.1308745E-008  0.3479052E+04  0.7816531E-02  0.8118772E-01
          2   -1    0    0  501    0  0.00000000000E+00  0.00000000000E+00  0.28130327349E+04  0.28130327349E+04  0.00000000000E+00 0.  1.
         -2   -1    0    0    0  501 -0.00000000000E+00 -0.00000000000E+00 -0.10756895463E+04  0.10756895463E+04  0.00000000000E+00 0. -1.
    2000013    1    1    2    0    0  0.63811809497E+03 -0.24989080996E+03 -0.56876548840E+03  0.13021652356E+04  0.95000000000E+03 0.  0.
   -2000013    1    1    2    0    0 -0.63811809497E+03  0.24989080996E+03  0.23061086770E+04  0.25865570456E+04  0.95000000000E+03 0.  0.
<mgrwt>
<rscale>  0 0.34790515E+04</rscale>
<asrwt>0</asrwt>
<pdfrwt beam="1">  1        2 0.43277426E+00 0.34790515E+04</pdfrwt>
<pdfrwt beam="2">  1       -2 0.16549070E+00 0.34790515E+04</pdfrwt>
<totfact> 0.42900130E-01</totfact>
</mgrwt>
</event>
<event>
 4    1  0.1308745E-008  0.2560347E+04  0.7816531E-02  0.8381796E-01
          2   -1    0    0  501    0  0.00000000000E+00  0.00000000000E+00  0.31088481597E+04  0.31088481597E+04  0.00000000000E+00 0.  1.
         -2   -1    0    0    0  501 -0.00000000000E+00 -0.00000000000E+00 -0.52715484046E+03  0.52715484046E+03  0.00000000000E+00 0. -1.
    2000013    1    1    2    0    0  0.13158658175E+03 -0.25760285840E+02  0.87202295128E+02  0.96337057309E+03  0.95000000000E+03 0.  0.
   -2000013    1    1    2    0    0 -0.13158658175E+03  0.25760285840E+02  0.24944910241E+04  0.26726324271E+04  0.95000000000E+03 0.  0.
<mgrwt>
<rscale>  0 0.25603471E+04</rscale>
<asrwt>0</asrwt>
<pdfrwt beam="1">  1        2 0.47828432E+00 0.25603471E+04</pdfrwt>
<pdfrwt beam="2">  1       -2 0.81100747E-01 0.25603471E+04</pdfrwt>
<totfact> 0.17670989E+00</totfact>
</mgrwt>
</event>
<event>
 4    1  0.1308745E-008  0.2797613E+04  0.7816531E-02  0.8304010E-01
          1   -1    0    0  501    0  0.00000000000E+00  0.00000000000E+00  0.13780584581E+04  0.13780584581E+04  0.00000000000E+00 0.  1.
         -1   -1    0    0    0  501 -0.00000000000E+00 -0.00000000000E+00 -0.14198665292E+04  0.14198665292E+04  0.00000000000E+00 0. -1.
    2000013    1    1    2    0    0  0.60766383515E+03  0.10126854161E+03 -0.84236559552E+03  0.14112372056E+04  0.95000000000E+03 0.  0.
   -2000013    1    1    2    0    0 -0.60766383515E+03 -0.10126854161E+03  0.80055752437E+03  0.13866877817E+04  0.95000000000E+03 0.  0.
<mgrwt>
<rscale>  0 0.27976126E+04</rscale>
<asrwt>0</asrwt>
<pdfrwt beam="1">  1        1 0.21200899E+00 0.27976126E+04</pdfrwt>
<pdfrwt beam="2">  1       -1 0.21844100E+00 0.27976126E+04</pdfrwt>
<totfact> 0.77716718E-01</totfact>
</mgrwt>
</event>
<event>
 4    1  0.1308745E-008  0.2889163E+04  0.7816531E-02  0.8276109E-01
          2   -1    0    0  501    0  0.00000000000E+00  0.00000000000E+00  0.12829606954E+04  0.12829606954E+04  0.00000000000E+00 0.  1.
         -2   -1    0    0    0  501 -0.00000000000E+00 -0.00000000000E+00 -0.16265619582E+04  0.16265619582E+04  0.00000000000E+00 0. -1.
    2000013    1    1    2    0    0 -0.96144988343E+03 -0.34603434500E+03 -0.54885795226E+03  0.14992900647E+04  0.95000000000E+03 0.  0.
   -2000013    1    1    2    0    0  0.96144988343E+03  0.34603434500E+03  0.20525668940E+03  0.14102325889E+04  0.95000000000E+03 0.  0.
<mgrwt>
<rscale>  0 0.28891626E+04</rscale>
<asrwt>0</asrwt>
<pdfrwt beam="1">  1        2 0.19737857E+00 0.28891626E+04</pdfrwt>
<pdfrwt beam="2">  1       -2 0.25024030E+00 0.28891626E+04</pdfrwt>
<totfact> 0.93579228E-01</totfact>
</mgrwt>
</event>
<event>
 4    1  0.1308745E-008  0.2403272E+04  0.7816531E-02  0.8438280E-01
          1   -1    0    0  501    0  0.00000000000E+00  0.00000000000E+00  0.12353433496E+04  0.12353433496E+04  0.00000000000E+00 0. -1.
         -1   -1    0    0    0  501 -0.00000000000E+00 -0.00000000000E+00 -0.11688479525E+04  0.11688479525E+04  0.00000000000E+00 0.  1.
    2000013    1    1    2    0    0 -0.38862145860E+03 -0.60142044016E+03 -0.13621418145E+03  0.11974086550E+04  0.95000000000E+03 0.  0.
   -2000013    1    1    2    0    0  0.38862145860E+03  0.60142044016E+03  0.20270957855E+03  0.12067826470E+04  0.95000000000E+03 0.  0.
<mgrwt>
<rscale>  0 0.24032716E+04</rscale>
<asrwt>0</asrwt>
<pdfrwt beam="1">  1        1 0.19005282E+00 0.24032716E+04</pdfrwt>
<pdfrwt beam="2">  1       -1 0.17982276E+00 0.24032716E+04</pdfrwt>
<totfact> 0.18830855E+00</totfact>
</mgrwt>
</event>
<event>
 4    1  0.1308745E-008  0.2298499E+04  0.7816531E-02  0.8478513E-01
         -2   -1    0    0    0  501 -0.00000000000E+00  0.00000000000E+00  0.35002252881E+03  0.35002252881E+03  0.00000000000E+00 0. -1.
          2   -1    0    0  501    0  0.00000000000E+00 -0.00000000000E+00 -0.37733987699E+04  0.37733987699E+04  0.00000000000E+00 0.  1.
    2000013    1    1    2    0    0  0.54286653798E+03 -0.23057702957E+03 -0.21876961707E+04  0.24569054479E+04  0.95000000000E+03 0.  0.
   -2000013    1    1    2    0    0 -0.54286653798E+03  0.23057702957E+03 -0.12356800704E+04  0.16665158508E+04  0.95000000000E+03 0.  0.
<mgrwt>
<rscale>  0 0.22984991E+04</rscale>
<asrwt>0</asrwt>
<pdfrwt beam="2">  1        2 0.58052289E+00 0.22984991E+04</pdfrwt>
<pdfrwt beam="1">  1       -2 0.53849620E-01 0.22984991E+04</pdfrwt>
<totfact> 0.15218263E+00</totfact>
</mgrwt>
</event>
<event>
 4    1  0.1308745E-008  0.3152772E+04  0.7816531E-02  0.8201402E-01
          2   -1    0    0  501    0  0.00000000000E+00  0.00000000000E+00  0.93138211154E+03  0.93138211154E+03  0.00000000000E+00 0.  1.
         -2   -1    0    0    0  501 -0.00000000000E+00 -0.00000000000E+00 -0.26680703328E+04  0.26680703328E+04  0.00000000000E+00 0. -1.
    2000013    1    1    2    0    0 -0.90942688921E+03  0.11095232345E+03 -0.18525248999E+04  0.22745804426E+04  0.95000000000E+03 0.  0.
   -2000013    1    1    2    0    0  0.90942688921E+03 -0.11095232345E+03  0.11583667867E+03  0.13248720018E+04  0.95000000000E+03 0.  0.
<mgrwt>
<rscale>  0 0.31527721E+04</rscale>
<asrwt>0</asrwt>
<pdfrwt beam="1">  1        2 0.14328956E+00 0.31527721E+04</pdfrwt>
<pdfrwt beam="2">  1       -2 0.41047236E+00 0.31527721E+04</pdfrwt>
<totfact> 0.14946935E-01</totfact>
</mgrwt>
</event>
<event>
 4    1  0.1308745E-008  0.2228002E+04  0.7816531E-02  0.8506863E-01
          2   -1    0    0  501    0  0.00000000000E+00  0.00000000000E+00  0.27888199170E+04  0.27888199170E+04  0.00000000000E+00 0.  1.
         -2   -1    0    0    0  501 -0.00000000000E+00 -0.00000000000E+00 -0.44499045262E+03  0.44499045262E+03  0.00000000000E+00 0. -1.
    2000013    1    1    2    0    0 -0.57008274896E+03  0.29299990570E+02  0.13351317273E+04  0.17352030312E+04  0.95000000000E+03 0.  0.
   -2000013    1    1    2    0    0  0.57008274896E+03 -0.29299990570E+02  0.10086977371E+04  0.14986073385E+04  0.95000000000E+03 0.  0.
<mgrwt>
<rscale>  0 0.22280020E+04</rscale>
<asrwt>0</asrwt>
<pdfrwt beam="1">  1        2 0.42904921E+00 0.22280020E+04</pdfrwt>
<pdfrwt beam="2">  1       -2 0.68460071E-01 0.22280020E+04</pdfrwt>
<totfact> 0.41818024E+00</totfact>
</mgrwt>
</event>
<event>
 4    1  0.1308745E-008  0.2329982E+04  0.7816531E-02  0.8466193E-01
         -2   -1    0    0    0  501 -0.00000000000E+00  0.00000000000E+00  0.13723290976E+04  0.13723290976E+04  0.00000000000E+00 0.  1.
          2   -1    0    0  501    0  0.00000000000E+00 -0.00000000000E+00 -0.98897815500E+03  0.98897815500E+03  0.00000000000E+00 0. -1.
    2000013    1    1    2    0    0 -0.42760067286E+03 -0.52096553364E+03  0.17003240565E+03  0.11771399414E+04  0.95000000000E+03 0.  0.
   -2000013    1    1    2    0    0  0.42760067286E+03  0.52096553364E+03  0.21331853693E+03  0.11841673112E+04  0.95000000000E+03 0.  0.
<mgrwt>
<rscale>  0 0.23299815E+04</rscale>
<asrwt>0</asrwt>
<pdfrwt beam="2">  1        2 0.15215049E+00 0.23299815E+04</pdfrwt>
<pdfrwt beam="1">  1       -2 0.21112755E+00 0.23299815E+04</pdfrwt>
<totfact> 0.26070676E+00</totfact>
</mgrwt>
</event>
<event>
 4    1  0.1308745E-008  0.2917759E+04  0.7816531E-02  0.8267613E-01
          2   -1    0    0  501    0  0.00000000000E+00  0.00000000000E+00  0.33756586404E+04  0.33756586404E+04  0.00000000000E+00 0.  1.
         -2   -1    0    0    0  501 -0.00000000000E+00 -0.00000000000E+00 -0.63049326857E+03  0.63049326857E+03  0.00000000000E+00 0. -1.
    2000013    1    1    2    0    0  0.79567926606E+03 -0.43826424158E+03  0.50350226493E+03  0.14075494914E+04  0.95000000000E+03 0.  0.
   -2000013    1    1    2    0    0 -0.79567926606E+03  0.43826424158E+03  0.22416631069E+04  0.25986024176E+04  0.95000000000E+03 0.  0.
<mgrwt>
<rscale>  0 0.29177594E+04</rscale>
<asrwt>0</asrwt>
<pdfrwt beam="1">  1        2 0.51933209E+00 0.29177594E+04</pdfrwt>
<pdfrwt beam="2">  1       -2 0.96998966E-01 0.29177594E+04</pdfrwt>
<totfact> 0.75723979E-01</totfact>
</mgrwt>
</event>
<event>
 4    1  0.1308745E-008  0.2532374E+04  0.7816531E-02  0.8391542E-01
         -2   -1    0    0    0  501 -0.00000000000E+00  0.00000000000E+00  0.86632269817E+03  0.86632269817E+03  0.00000000000E+00 0. -1.
          2   -1    0    0  501    0  0.00000000000E+00 -0.00000000000E+00 -0.18506142566E+04  0.18506142566E+04  0.00000000000E+00 0.  1.
    2000013    1    1    2    0    0  0.82966460683E+03  0.10971285198E+03 -0.51218502273E+03  0.13657282919E+04  0.95000000000E+03 0.  0.
   -2000013    1    1    2    0    0 -0.82966460683E+03 -0.10971285198E+03 -0.47210653573E+03  0.13512086629E+04  0.95000000000E+03 0.  0.
<mgrwt>
<rscale>  0 0.25323737E+04</rscale>
<asrwt>0</asrwt>
<pdfrwt beam="2">  1        2 0.28470988E+00 0.25323737E+04</pdfrwt>
<pdfrwt beam="1">  1       -2 0.13328042E+00 0.25323737E+04</pdfrwt>
<totfact> 0.29330830E+00</totfact>
</mgrwt>
</event>
<event>
 4    1  0.1308745E-008  0.2609981E+04  0.7816531E-02  0.8364819E-01
         -2   -1    0    0    0  501 -0.00000000000E+00  0.00000000000E+00  0.11810607697E+04  0.11810607697E+04  0.00000000000E+00 0.  1.
          2   -1    0    0  501    0  0.00000000000E+00 -0.00000000000E+00 -0.14419246278E+04  0.14419246278E+04  0.00000000000E+00 0. -1.
    2000013    1    1    2    0    0 -0.73174419905E+03  0.10324378832E+03 -0.63731757584E+03  0.13619040147E+04  0.95000000000E+03 0.  0.
   -2000013    1    1    2    0    0  0.73174419905E+03 -0.10324378832E+03  0.37645371768E+03  0.12610813829E+04  0.95000000000E+03 0.  0.
<mgrwt>
<rscale>  0 0.26099813E+04</rscale>
<asrwt>0</asrwt>
<pdfrwt beam="2">  1        2 0.22183456E+00 0.26099813E+04</pdfrwt>
<pdfrwt beam="1">  1       -2 0.18170166E+00 0.26099813E+04</pdfrwt>
<totfact> 0.21364367E+00</totfact>
</mgrwt>
</event>
<event>
 4    1  0.1308745E-008  0.2508875E+04  0.7816531E-02  0.8399831E-01
          2   -1    0    0  501    0  0.00000000000E+00  0.00000000000E+00  0.16742442299E+04  0.16742442299E+04  0.00000000000E+00 0.  1.
         -2   -1    0    0    0  501 -0.00000000000E+00 -0.00000000000E+00 -0.93989488262E+03  0.93989488262E+03  0.00000000000E+00 0. -1.
    2000013    1    1    2    0    0 -0.80930564684E+03  0.48193385930E+02  0.24470441896E+03  0.12726658969E+04  0.95000000000E+03 0.  0.
   -2000013    1    1    2    0    0  0.80930564684E+03 -0.48193385930E+02  0.48964492835E+03  0.13414732157E+04  0.95000000000E+03 0.  0.
<mgrwt>
<rscale>  0 0.25088751E+04</rscale>
<asrwt>0</asrwt>
<pdfrwt beam="1">  1        2 0.25757603E+00 0.25088751E+04</pdfrwt>
<pdfrwt beam="2">  1       -2 0.14459921E+00 0.25088751E+04</pdfrwt>
<totfact> 0.29822251E+00</totfact>
</mgrwt>
</event>
<event>
 4    1  0.1308745E-008  0.2007152E+04  0.7816531E-02  0.8603284E-01
         -2   -1    0    0    0  501 -0.00000000000E+00  0.00000000000E+00  0.39159524761E+03  0.39159524761E+03  0.00000000000E+00 0. -1.
          2   -1    0    0  501    0  0.00000000000E+00 -0.00000000000E+00 -0.25719531414E+04  0.25719531414E+04  0.00000000000E+00 0.  1.
    2000013    1    1    2    0    0  0.27612436112E+03 -0.12294856619E+03 -0.91987817312E+03  0.13564795856E+04  0.95000000000E+03 0.  0.
   -2000013    1    1    2    0    0 -0.27612436112E+03  0.12294856619E+03 -0.12604797207E+04  0.16070688034E+04  0.95000000000E+03 0.  0.
<mgrwt>
<rscale>  0 0.20071518E+04</rscale>
<asrwt>0</asrwt>
<pdfrwt beam="2">  1        2 0.39568510E+00 0.20071518E+04</pdfrwt>
<pdfrwt beam="1">  1       -2 0.60245422E-01 0.20071518E+04</pdfrwt>
<totfact> 0.75409622E+00</totfact>
</mgrwt>
</event>
<event>
 4    1  0.1308745E-008  0.2531609E+04  0.7816531E-02  0.8391811E-01
         -2   -1    0    0    0  501 -0.00000000000E+00  0.00000000000E+00  0.66416028445E+03  0.66416028445E+03  0.00000000000E+00 0.  1.
          2   -1    0    0  501    0  0.00000000000E+00 -0.00000000000E+00 -0.24124606799E+04  0.24124606799E+04  0.00000000000E+00 0. -1.
    2000013    1    1    2    0    0  0.78926614727E+03 -0.12975165840E+03 -0.11717928987E+04  0.17074469659E+04  0.95000000000E+03 0.  0.
   -2000013    1    1    2    0    0 -0.78926614727E+03  0.12975165840E+03 -0.57650749674E+03  0.13691739984E+04  0.95000000000E+03 0.  0.
<mgrwt>
<rscale>  0 0.25316086E+04</rscale>
<asrwt>0</asrwt>
<pdfrwt beam="2">  1        2 0.37114780E+00 0.25316086E+04</pdfrwt>
<pdfrwt beam="1">  1       -2 0.10217851E+00 0.25316086E+04</pdfrwt>
<totfact> 0.27290945E+00</totfact>
</mgrwt>
</event>
<event>
 4    1  0.1308745E-008  0.2901394E+04  0.7816531E-02  0.8272463E-01
          2   -1    0    0  501    0  0.00000000000E+00  0.00000000000E+00  0.20589607903E+04  0.20589607903E+04  0.00000000000E+00 0.  1.
         -2   -1    0    0    0  501 -0.00000000000E+00 -0.00000000000E+00 -0.10221284090E+04  0.10221284090E+04  0.00000000000E+00 0. -1.
    2000013    1    1    2    0    0 -0.60181349629E+03  0.16309565695E+03  0.14760678792E+04  0.18628086487E+04  0.95000000000E+03 0.  0.
   -2000013    1    1    2    0    0  0.60181349629E+03 -0.16309565695E+03 -0.43923549784E+03  0.12182805507E+04  0.95000000000E+03 0.  0.
<mgrwt>
<rscale>  0 0.29013944E+04</rscale>
<asrwt>0</asrwt>
<pdfrwt beam="1">  1        2 0.31676320E+00 0.29013944E+04</pdfrwt>
<pdfrwt beam="2">  1       -2 0.15725052E+00 0.29013944E+04</pdfrwt>
<totfact> 0.14115057E+00</totfact>
</mgrwt>
</event>
<event>
 4    1  0.1308745E-008  0.2715261E+04  0.7816531E-02  0.8330070E-01
          2   -1    0    0  501    0  0.00000000000E+00  0.00000000000E+00  0.32236326579E+04  0.32236326579E+04  0.00000000000E+00 0.  1.
         -2   -1    0    0    0  501 -0.00000000000E+00 -0.00000000000E+00 -0.57176504084E+03  0.57176504084E+03  0.00000000000E+00 0. -1.
    2000013    1    1    2    0    0 -0.85656779639E+03 -0.43419251828E+03  0.15156899014E+04  0.20302825937E+04  0.95000000000E+03 0.  0.
   -2000013    1    1    2    0    0  0.85656779639E+03  0.43419251828E+03  0.11361777156E+04  0.17651151051E+04  0.95000000000E+03 0.  0.
<mgrwt>
<rscale>  0 0.27152609E+04</rscale>
<asrwt>0</asrwt>
<pdfrwt beam="1">  1        2 0.49594347E+00 0.27152609E+04</pdfrwt>
<pdfrwt beam="2">  1       -2 0.87963854E-01 0.27152609E+04</pdfrwt>
<totfact> 0.12212453E+00</totfact>
</mgrwt>
</event>
<event>
 4    1  0.1308745E-008  0.2636079E+04  0.7816531E-02  0.8356048E-01
         -2   -1    0    0    0  501 -0.00000000000E+00  0.00000000000E+00  0.12124266513E+04  0.12124266513E+04  0.00000000000E+00 0. -1.
          2   -1    0    0  501    0  0.00000000000E+00 -0.00000000000E+00 -0.14328518919E+04  0.14328518919E+04  0.00000000000E+00 0.  1.
    2000013    1    1    2    0    0 -0.44809204048E+03 -0.76602350909E+03 -0.32810938343E+03  0.13407961294E+04  0.95000000000E+03 0.  0.
   -2000013    1    1    2    0    0  0.44809204048E+03  0.76602350909E+03  0.10768414281E+03  0.13044824138E+04  0.95000000000E+03 0.  0.
<mgrwt>
<rscale>  0 0.26360788E+04</rscale>
<asrwt>0</asrwt>
<pdfrwt beam="2">  1        2 0.22043875E+00 0.26360788E+04</pdfrwt>
<pdfrwt beam="1">  1       -2 0.18652718E+00 0.26360788E+04</pdfrwt>
<totfact> 0.19996924E+00</totfact>
</mgrwt>
</event>
<event>
 4    1  0.1308745E-008  0.2219959E+04  0.7816531E-02  0.8510166E-01
         -2   -1    0    0    0  501 -0.00000000000E+00  0.00000000000E+00  0.88674878447E+03  0.88674878447E+03  0.00000000000E+00 0. -1.
          2   -1    0    0  501    0  0.00000000000E+00 -0.00000000000E+00 -0.13894070266E+04  0.13894070266E+04  0.00000000000E+00 0.  1.
    2000013    1    1    2    0    0  0.39091054571E+03  0.12442835550E+03 -0.66306842155E+03  0.12290049642E+04  0.95000000000E+03 0.  0.
   -2000013    1    1    2    0    0 -0.39091054571E+03 -0.12442835550E+03  0.16041017942E+03  0.10471508469E+04  0.95000000000E+03 0.  0.
<mgrwt>
<rscale>  0 0.22199595E+04</rscale>
<asrwt>0</asrwt>
<pdfrwt beam="2">  1        2 0.21375493E+00 0.22199595E+04</pdfrwt>
<pdfrwt beam="1">  1       -2 0.13642289E+00 0.22199595E+04</pdfrwt>
<totfact> 0.51439221E+00</totfact>
</mgrwt>
</event>
<event>
 4    1  0.1308745E-008  0.2892311E+04  0.7816531E-02  0.8275169E-01
          2   -1    0    0  501    0  0.00000000000E+00  0.00000000000E+00  0.18718989576E+04  0.18718989576E+04  0.00000000000E+00 0.  1.
         -2   -1    0    0    0  501 -0.00000000000E+00 -0.00000000000E+00 -0.11172424815E+04  0.11172424815E+04  0.00000000000E+00 0. -1.
    2000013    1    1    2    0    0  0.96270184613E+02 -0.10308229361E+04  0.73083411343E+03  0.15838189213E+04  0.95000000000E+03 0.  0.
   -2000013    1    1    2    0    0 -0.96270184613E+02  0.10308229361E+04  0.23822362661E+02  0.14053225178E+04  0.95000000000E+03 0.  0.
<mgrwt>
<rscale>  0 0.28923105E+04</rscale>
<asrwt>0</asrwt>
<pdfrwt beam="1">  1        2 0.28798445E+00 0.28923105E+04</pdfrwt>
<pdfrwt beam="2">  1       -2 0.17188346E+00 0.28923105E+04</pdfrwt>
<totfact> 0.14050569E+00</totfact>
</mgrwt>
</event>
<event>
 4    1  0.1308745E-008  0.2568186E+04  0.7816531E-02  0.8379089E-01
         -1   -1    0    0    0  501 -0.00000000000E+00  0.00000000000E+00  0.11205581766E+04  0.11205581766E+04  0.00000000000E+00 0. -1.
          1   -1    0    0  501    0  0.00000000000E+00 -0.00000000000E+00 -0.14714936115E+04  0.14714936115E+04  0.00000000000E+00 0.  1.
    2000013    1    1    2    0    0 -0.73293385891E+03 -0.38314021241E+03  0.76665190352E+02  0.12618898586E+04  0.95000000000E+03 0.  0.
   -2000013    1    1    2    0    0  0.73293385891E+03  0.38314021241E+03 -0.42760062526E+03  0.13301619295E+04  0.95000000000E+03 0.  0.
<mgrwt>
<rscale>  0 0.25681855E+04</rscale>
<asrwt>0</asrwt>
<pdfrwt beam="2">  1        1 0.22638363E+00 0.25681855E+04</pdfrwt>
<pdfrwt beam="1">  1       -1 0.17239357E+00 0.25681855E+04</pdfrwt>
<totfact> 0.14291048E+00</totfact>
</mgrwt>
</event>
<event>
 4    1  0.1308745E-008  0.3689632E+04  0.7816531E-02  0.8070263E-01
          2   -1    0    0  501    0  0.00000000000E+00  0.00000000000E+00  0.16510289806E+04  0.16510289806E+04  0.00000000000E+00 0.  1.
         -2   -1    0    0    0  501 -0.00000000000E+00 -0.00000000000E+00 -0.20613484664E+04  0.20613484664E+04  0.00000000000E+00 0. -1.
    2000013    1    1    2    0    0 -0.11003526977E+04 -0.16373271829E+03 -0.13360376533E+04  0.19811817365E+04  0.95000000000E+03 0.  0.
   -2000013    1    1    2    0    0  0.11003526977E+04  0.16373271829E+03  0.92571816745E+03  0.17311957104E+04  0.95000000000E+03 0.  0.
<mgrwt>
<rscale>  0 0.36896320E+04</rscale>
<asrwt>0</asrwt>
<pdfrwt beam="1">  1        2 0.25400446E+00 0.36896320E+04</pdfrwt>
<pdfrwt beam="2">  1       -2 0.31713053E+00 0.36896320E+04</pdfrwt>
<totfact> 0.21070347E-01</totfact>
</mgrwt>
</event>
<event>
 4    1  0.1308745E-008  0.2676991E+04  0.7816531E-02  0.8342510E-01
          2   -1    0    0  501    0  0.00000000000E+00  0.00000000000E+00  0.13286791584E+04  0.13286791584E+04  0.00000000000E+00 0. -1.
         -2   -1    0    0    0  501 -0.00000000000E+00 -0.00000000000E+00 -0.13483839565E+04  0.13483839565E+04  0.00000000000E+00 0.  1.
    2000013    1    1    2    0    0 -0.94889134031E+02  0.38503665754E+03 -0.86533596737E+03  0.13448284321E+04  0.95000000000E+03 0.  0.
   -2000013    1    1    2    0    0  0.94889134031E+02 -0.38503665754E+03  0.84563116937E+03  0.13322346828E+04  0.95000000000E+03 0.  0.
<mgrwt>
<rscale>  0 0.26769906E+04</rscale>
<asrwt>0</asrwt>
<pdfrwt beam="1">  1        2 0.20441218E+00 0.26769906E+04</pdfrwt>
<pdfrwt beam="2">  1       -2 0.20744368E+00 0.26769906E+04</pdfrwt>
<totfact> 0.16631501E+00</totfact>
</mgrwt>
</event>
<event>
 4    1  0.1308745E-008  0.2271464E+04  0.7816531E-02  0.8489258E-01
          2   -1    0    0  501    0  0.00000000000E+00  0.00000000000E+00  0.15853947991E+04  0.15853947991E+04  0.00000000000E+00 0.  1.
         -2   -1    0    0    0  501 -0.00000000000E+00 -0.00000000000E+00 -0.81360615813E+03  0.81360615813E+03  0.00000000000E+00 0. -1.
    2000013    1    1    2    0    0 -0.40900991129E+03  0.19965435021E+03 -0.62484792147E+02  0.10552513048E+04  0.95000000000E+03 0.  0.
   -2000013    1    1    2    0    0  0.40900991129E+03 -0.19965435021E+03  0.83427343310E+03  0.13437496524E+04  0.95000000000E+03 0.  0.
<mgrwt>
<rscale>  0 0.22714638E+04</rscale>
<asrwt>0</asrwt>
<pdfrwt beam="1">  1        2 0.24390689E+00 0.22714638E+04</pdfrwt>
<pdfrwt beam="2">  1       -2 0.12517018E+00 0.22714638E+04</pdfrwt>
<totfact> 0.49353707E+00</totfact>
</mgrwt>
</event>
<event>
 4    1  0.1308745E-008  0.2215903E+04  0.7816531E-02  0.8511838E-01
          2   -1    0    0  501    0  0.00000000000E+00  0.00000000000E+00  0.25234392730E+04  0.25234392730E+04  0.00000000000E+00 0.  1.
         -2   -1    0    0    0  501 -0.00000000000E+00 -0.00000000000E+00 -0.48646152264E+03  0.48646152264E+03  0.00000000000E+00 0. -1.
    2000013    1    1    2    0    0 -0.37557777957E+03 -0.39671643592E+03  0.79689762682E+03  0.13549865042E+04  0.95000000000E+03 0.  0.
   -2000013    1    1    2    0    0  0.37557777957E+03  0.39671643592E+03  0.12400801235E+04  0.16549142914E+04  0.95000000000E+03 0.  0.
<mgrwt>
<rscale>  0 0.22159026E+04</rscale>
<asrwt>0</asrwt>
<pdfrwt beam="1">  1        2 0.38822142E+00 0.22159026E+04</pdfrwt>
<pdfrwt beam="2">  1       -2 0.74840236E-01 0.22159026E+04</pdfrwt>
<totfact> 0.49414114E+00</totfact>
</mgrwt>
</event>
<event>
 4    1  0.1308745E-008  0.4545292E+04  0.7816531E-02  0.7902755E-01
          2   -1    0    0  501    0  0.00000000000E+00  0.00000000000E+00  0.32891068892E+04  0.32891068892E+04  0.00000000000E+00 0.  1.
         -2   -1    0    0    0  501 -0.00000000000E+00 -0.00000000000E+00 -0.15703110516E+04  0.15703110516E+04  0.00000000000E+00 0. -1.
    2000013    1    1    2    0    0  0.16373937880E+04  0.55126170545E+03 -0.34896749695E+03  0.20023052212E+04  0.95000000000E+03 0.  0.
   -2000013    1    1    2    0    0 -0.16373937880E+04 -0.55126170545E+03  0.20677633346E+04  0.28571127197E+04  0.95000000000E+03 0.  0.
<mgrwt>
<rscale>  0 0.45452925E+04</rscale>
<asrwt>0</asrwt>
<pdfrwt beam="1">  1        2 0.50601644E+00 0.45452925E+04</pdfrwt>
<pdfrwt beam="2">  1       -2 0.24158632E+00 0.45452925E+04</pdfrwt>
<totfact> 0.61848457E-02</totfact>
</mgrwt>
</event>
<event>
 4    1  0.1308745E-008  0.2250992E+04  0.7816531E-02  0.8497499E-01
         -2   -1    0    0    0  501 -0.00000000000E+00  0.00000000000E+00  0.62376321991E+03  0.62376321991E+03  0.00000000000E+00 0. -1.
          2   -1    0    0  501    0  0.00000000000E+00 -0.00000000000E+00 -0.20308039915E+04  0.20308039915E+04  0.00000000000E+00 0.  1.
    2000013    1    1    2    0    0  0.49648783563E+03  0.25998860653E+03 -0.96760344892E+03  0.14672595819E+04  0.95000000000E+03 0.  0.
   -2000013    1    1    2    0    0 -0.49648783563E+03 -0.25998860653E+03 -0.43943732269E+03  0.11873076295E+04  0.95000000000E+03 0.  0.
<mgrwt>
<rscale>  0 0.22509916E+04</rscale>
<asrwt>0</asrwt>
<pdfrwt beam="2">  1        2 0.31243139E+00 0.22509916E+04</pdfrwt>
<pdfrwt beam="1">  1       -2 0.95963572E-01 0.22509916E+04</pdfrwt>
<totfact> 0.53207441E+00</totfact>
</mgrwt>
</event>
<event>
 4    1  0.1308745E-008  0.3247550E+04  0.7816531E-02  0.8176371E-01
          2   -1    0    0  501    0  0.00000000000E+00  0.00000000000E+00  0.22510998696E+04  0.22510998696E+04  0.00000000000E+00 0.  1.
         -2   -1    0    0    0  501 -0.00000000000E+00 -0.00000000000E+00 -0.11712697200E+04  0.11712697200E+04  0.00000000000E+00 0. -1.
    2000013    1    1    2    0    0  0.10110470410E+04 -0.21827202685E+03 -0.31899703661E+03  0.14401798173E+04  0.95000000000E+03 0.  0.
   -2000013    1    1    2    0    0 -0.10110470410E+04  0.21827202685E+03  0.13988271862E+04  0.19821897723E+04  0.95000000000E+03 0.  0.
<mgrwt>
<rscale>  0 0.32475499E+04</rscale>
<asrwt>0</asrwt>
<pdfrwt beam="1">  1        2 0.34632306E+00 0.32475499E+04</pdfrwt>
<pdfrwt beam="2">  1       -2 0.18019534E+00 0.32475499E+04</pdfrwt>
<totfact> 0.73265341E-01</totfact>
</mgrwt>
</event>
<event>
 4    1  0.1308745E-008  0.2143058E+04  0.7816531E-02  0.8542510E-01
          2   -1    0    0  501    0  0.00000000000E+00  0.00000000000E+00  0.72354105817E+03  0.72354105817E+03  0.00000000000E+00 0.  1.
         -2   -1    0    0    0  501 -0.00000000000E+00 -0.00000000000E+00 -0.15868824021E+04  0.15868824021E+04  0.00000000000E+00 0. -1.
    2000013    1    1    2    0    0  0.13462295858E+02 -0.48113544787E+03 -0.55924196923E+03  0.12028815955E+04  0.95000000000E+03 0.  0.
   -2000013    1    1    2    0    0 -0.13462295858E+02  0.48113544787E+03 -0.30409937473E+03  0.11075418648E+04  0.95000000000E+03 0.  0.
<mgrwt>
<rscale>  0 0.21430582E+04</rscale>
<asrwt>0</asrwt>
<pdfrwt beam="1">  1        2 0.11131401E+00 0.21430582E+04</pdfrwt>
<pdfrwt beam="2">  1       -2 0.24413575E+00 0.21430582E+04</pdfrwt>
<totfact> 0.25185250E+00</totfact>
</mgrwt>
</event>
<event>
 4    1  0.1308745E-008  0.3033012E+04  0.7816531E-02  0.8234367E-01
         -2   -1    0    0    0  501 -0.00000000000E+00  0.00000000000E+00  0.12933335447E+04  0.12933335447E+04  0.00000000000E+00 0. -1.
          2   -1    0    0  501    0  0.00000000000E+00 -0.00000000000E+00 -0.17781877949E+04  0.17781877949E+04  0.00000000000E+00 0.  1.
    2000013    1    1    2    0    0 -0.76695875264E+03 -0.86695543466E+03 -0.48516291220E+03  0.15740776681E+04  0.95000000000E+03 0.  0.
   -2000013    1    1    2    0    0  0.76695875264E+03  0.86695543466E+03  0.30866207547E+00  0.14974436715E+04  0.95000000000E+03 0.  0.
<mgrwt>
<rscale>  0 0.30330117E+04</rscale>
<asrwt>0</asrwt>
<pdfrwt beam="2">  1        2 0.27356736E+00 0.30330117E+04</pdfrwt>
<pdfrwt beam="1">  1       -2 0.19897439E+00 0.30330117E+04</pdfrwt>
<totfact> 0.10233332E+00</totfact>
</mgrwt>
</event>
<event>
 4    1  0.1308745E-008  0.2285385E+04  0.7816531E-02  0.8483706E-01
         -2   -1    0    0    0  501 -0.00000000000E+00  0.00000000000E+00  0.35671342522E+03  0.35671342522E+03  0.00000000000E+00 0. -1.
          2   -1    0    0  501    0  0.00000000000E+00 -0.00000000000E+00 -0.36604899102E+04  0.36604899102E+04  0.00000000000E+00 0.  1.
    2000013    1    1    2    0    0  0.93872410963E+02 -0.57462562949E+03 -0.20974056896E+04  0.23749983727E+04  0.95000000000E+03 0.  0.
   -2000013    1    1    2    0    0 -0.93872410963E+02  0.57462562949E+03 -0.12063707954E+04  0.16422049627E+04  0.95000000000E+03 0.  0.
<mgrwt>
<rscale>  0 0.22853848E+04</rscale>
<asrwt>0</asrwt>
<pdfrwt beam="2">  1        2 0.56315227E+00 0.22853848E+04</pdfrwt>
<pdfrwt beam="1">  1       -2 0.54878991E-01 0.22853848E+04</pdfrwt>
<totfact> 0.17757619E+00</totfact>
</mgrwt>
</event>
<event>
 4    1  0.1308745E-008  0.2672320E+04  0.7816531E-02  0.8344042E-01
         -2   -1    0    0    0  501 -0.00000000000E+00  0.00000000000E+00  0.10323103614E+04  0.10323103614E+04  0.00000000000E+00 0. -1.
          2   -1    0    0  501    0  0.00000000000E+00 -0.00000000000E+00 -0.17294442165E+04  0.17294442165E+04  0.00000000000E+00 0.  1.
    2000013    1    1    2    0    0  0.85443456419E+03 -0.26441669886E+03 -0.64603418564E+03  0.14559652414E+04  0.95000000000E+03 0.  0.
   -2000013    1    1    2    0    0 -0.85443456419E+03  0.26441669886E+03 -0.51099669492E+02  0.13057893365E+04  0.95000000000E+03 0.  0.
<mgrwt>
<rscale>  0 0.26723197E+04</rscale>
<asrwt>0</asrwt>
<pdfrwt beam="2">  1        2 0.26606834E+00 0.26723197E+04</pdfrwt>
<pdfrwt beam="1">  1       -2 0.15881698E+00 0.26723197E+04</pdfrwt>
<totfact> 0.21347148E+00</totfact>
</mgrwt>
</event>
<event>
 4    1  0.1308745E-008  0.2131365E+04  0.7816531E-02  0.8547551E-01
          2   -1    0    0  501    0  0.00000000000E+00  0.00000000000E+00  0.99549792506E+03  0.99549792506E+03  0.00000000000E+00 0.  1.
         -2   -1    0    0    0  501 -0.00000000000E+00 -0.00000000000E+00 -0.11408153094E+04  0.11408153094E+04  0.00000000000E+00 0. -1.
    2000013    1    1    2    0    0 -0.17446336915E+03  0.41269612735E+03 -0.25314258803E+03  0.10804335845E+04  0.95000000000E+03 0.  0.
   -2000013    1    1    2    0    0  0.17446336915E+03 -0.41269612735E+03  0.10782520365E+03  0.10558796500E+04  0.95000000000E+03 0.  0.
<mgrwt>
<rscale>  0 0.21313651E+04</rscale>
<asrwt>0</asrwt>
<pdfrwt beam="1">  1        2 0.15315353E+00 0.21313651E+04</pdfrwt>
<pdfrwt beam="2">  1       -2 0.17551005E+00 0.21313651E+04</pdfrwt>
<totfact> 0.45410319E+00</totfact>
</mgrwt>
</event>
<event>
 4    1  0.1308745E-008  0.2611453E+04  0.7816531E-02  0.8364321E-01
          1   -1    0    0  501    0  0.00000000000E+00  0.00000000000E+00  0.15219722652E+04  0.15219722652E+04  0.00000000000E+00 0.  1.
         -1   -1    0    0    0  501 -0.00000000000E+00 -0.00000000000E+00 -0.11202055512E+04  0.11202055512E+04  0.00000000000E+00 0. -1.
    2000013    1    1    2    0    0 -0.37025084616E+03 -0.79054743012E+03 -0.24055934034E+01  0.12901770093E+04  0.95000000000E+03 0.  0.
   -2000013    1    1    2    0    0  0.37025084616E+03  0.79054743012E+03  0.40417230736E+03  0.13520008071E+04  0.95000000000E+03 0.  0.
<mgrwt>
<rscale>  0 0.26114531E+04</rscale>
<asrwt>0</asrwt>
<pdfrwt beam="1">  1        1 0.23414958E+00 0.26114531E+04</pdfrwt>
<pdfrwt beam="2">  1       -1 0.17233932E+00 0.26114531E+04</pdfrwt>
<totfact> 0.13145757E+00</totfact>
</mgrwt>
</event>
<event>
 4    1  0.1308745E-008  0.4040498E+04  0.7816531E-02  0.7996426E-01
          2   -1    0    0  501    0  0.00000000000E+00  0.00000000000E+00  0.17518367224E+04  0.17518367224E+04  0.00000000000E+00 0.  1.
         -2   -1    0    0    0  501 -0.00000000000E+00 -0.00000000000E+00 -0.23297871565E+04  0.23297871565E+04  0.00000000000E+00 0. -1.
    2000013    1    1    2    0    0 -0.17101250294E+04  0.49490022607E+03 -0.19075987192E+03  0.20269048272E+04  0.95000000000E+03 0.  0.
   -2000013    1    1    2    0    0  0.17101250294E+04 -0.49490022607E+03 -0.38719056224E+03  0.20547190517E+04  0.95000000000E+03 0.  0.
<mgrwt>
<rscale>  0 0.40404983E+04</rscale>
<asrwt>0</asrwt>
<pdfrwt beam="1">  1        2 0.26951334E+00 0.40404983E+04</pdfrwt>
<pdfrwt beam="2">  1       -2 0.35842879E+00 0.40404983E+04</pdfrwt>
<totfact> 0.99265657E-02</totfact>
</mgrwt>
</event>
<event>
 4    1  0.1308745E-008  0.2312422E+04  0.7816531E-02  0.8473039E-01
          2   -1    0    0  501    0  0.00000000000E+00  0.00000000000E+00  0.99971174163E+03  0.99971174163E+03  0.00000000000E+00 0.  1.
         -2   -1    0    0    0  501 -0.00000000000E+00 -0.00000000000E+00 -0.13372089329E+04  0.13372089329E+04  0.00000000000E+00 0. -1.
    2000013    1    1    2    0    0 -0.62729769794E+03  0.71555820917E+02 -0.35969703996E+03  0.11960370387E+04  0.95000000000E+03 0.  0.
   -2000013    1    1    2    0    0  0.62729769794E+03 -0.71555820917E+02  0.22199848655E+02  0.11408836359E+04  0.95000000000E+03 0.  0.
<mgrwt>
<rscale>  0 0.23124216E+04</rscale>
<asrwt>0</asrwt>
<pdfrwt beam="1">  1        2 0.15380181E+00 0.23124216E+04</pdfrwt>
<pdfrwt beam="2">  1       -2 0.20572445E+00 0.23124216E+04</pdfrwt>
<totfact> 0.27844551E+00</totfact>
</mgrwt>
</event>
<event>
 4    1  0.1308745E-008  0.2090838E+04  0.7816531E-02  0.8565290E-01
          2   -1    0    0  501    0  0.00000000000E+00  0.00000000000E+00  0.58216870398E+03  0.58216870398E+03  0.00000000000E+00 0.  1.
         -2   -1    0    0    0  501 -0.00000000000E+00 -0.00000000000E+00 -0.18772924395E+04  0.18772924395E+04  0.00000000000E+00 0. -1.
    2000013    1    1    2    0    0  0.72212265093E+02  0.35033167591E+03 -0.35359407710E+03  0.10749305400E+04  0.95000000000E+03 0.  0.
   -2000013    1    1    2    0    0 -0.72212265093E+02 -0.35033167591E+03 -0.94152965838E+03  0.13845306035E+04  0.95000000000E+03 0.  0.
<mgrwt>
<rscale>  0 0.20908380E+04</rscale>
<asrwt>0</asrwt>
<pdfrwt beam="1">  1        2 0.89564416E-01 0.20908380E+04</pdfrwt>
<pdfrwt beam="2">  1       -2 0.28881422E+00 0.20908380E+04</pdfrwt>
<totfact> 0.17658406E+00</totfact>
</mgrwt>
</event>
<event>
 4    1  0.1308745E-008  0.2153226E+04  0.7816531E-02  0.8538153E-01
          2   -1    0    0  501    0  0.00000000000E+00  0.00000000000E+00  0.34228661919E+04  0.34228661919E+04  0.00000000000E+00 0.  1.
         -2   -1    0    0    0  501 -0.00000000000E+00 -0.00000000000E+00 -0.33863308133E+03  0.33863308133E+03  0.00000000000E+00 0. -1.
    2000013    1    1    2    0    0  0.38526964574E+03 -0.17023058746E+03  0.10505394779E+04  0.14776820861E+04  0.95000000000E+03 0.  0.
   -2000013    1    1    2    0    0 -0.38526964574E+03  0.17023058746E+03  0.20336936327E+04  0.22838171872E+04  0.95000000000E+03 0.  0.
<mgrwt>
<rscale>  0 0.21532262E+04</rscale>
<asrwt>0</asrwt>
<pdfrwt beam="1">  1        2 0.52659478E+00 0.21532262E+04</pdfrwt>
<pdfrwt beam="2">  1       -2 0.52097399E-01 0.21532262E+04</pdfrwt>
<totfact> 0.29453118E+00</totfact>
</mgrwt>
</event>
<event>
 4    1  0.1308745E-008  0.2616134E+04  0.7816531E-02  0.8362741E-01
          2   -1    0    0  501    0  0.00000000000E+00  0.00000000000E+00  0.84448266253E+03  0.84448266253E+03  0.00000000000E+00 0.  1.
         -2   -1    0    0    0  501 -0.00000000000E+00 -0.00000000000E+00 -0.20261393297E+04  0.20261393297E+04  0.00000000000E+00 0. -1.
    2000013    1    1    2    0    0  0.78185949957E+03  0.43991178565E+03 -0.65768911077E+03  0.14628334227E+04  0.95000000000E+03 0.  0.
   -2000013    1    1    2    0    0 -0.78185949957E+03 -0.43991178565E+03 -0.52396755637E+03  0.14077885695E+04  0.95000000000E+03 0.  0.
<mgrwt>
<rscale>  0 0.26161342E+04</rscale>
<asrwt>0</asrwt>
<pdfrwt beam="1">  1        2 0.12992041E+00 0.26161342E+04</pdfrwt>
<pdfrwt beam="2">  1       -2 0.31171374E+00 0.26161342E+04</pdfrwt>
<totfact> 0.76199483E-01</totfact>
</mgrwt>
</event>
<event>
 4    1  0.1308745E-008  0.3322760E+04  0.7816531E-02  0.8157128E-01
         -2   -1    0    0    0  501 -0.00000000000E+00  0.00000000000E+00  0.13908506976E+04  0.13908506976E+04  0.00000000000E+00 0. -1.
          2   -1    0    0  501    0  0.00000000000E+00 -0.00000000000E+00 -0.19845286713E+04  0.19845286713E+04  0.00000000000E+00 0.  1.
    2000013    1    1    2    0    0 -0.28835714707E+03  0.13108413182E+04 -0.55958813781E+02  0.16453225199E+04  0.95000000000E+03 0.  0.
   -2000013    1    1    2    0    0  0.28835714707E+03 -0.13108413182E+04 -0.53771915983E+03  0.17300568490E+04  0.95000000000E+03 0.  0.
<mgrwt>
<rscale>  0 0.33227597E+04</rscale>
<asrwt>0</asrwt>
<pdfrwt beam="2">  1        2 0.30531210E+00 0.33227597E+04</pdfrwt>
<pdfrwt beam="1">  1       -2 0.21397703E+00 0.33227597E+04</pdfrwt>
<totfact> 0.61344193E-01</totfact>
</mgrwt>
</event>
<event>
 4    1  0.1308745E-008  0.3166797E+04  0.7816531E-02  0.8197641E-01
         -2   -1    0    0    0  501 -0.00000000000E+00  0.00000000000E+00  0.92883158808E+03  0.92883158808E+03  0.00000000000E+00 0. -1.
          2   -1    0    0  501    0  0.00000000000E+00 -0.00000000000E+00 -0.26992530804E+04  0.26992530804E+04  0.00000000000E+00 0.  1.
    2000013    1    1    2    0    0 -0.93334031874E+03 -0.83527205585E+03 -0.11021256512E+04  0.19198917962E+04  0.95000000000E+03 0.  0.
   -2000013    1    1    2    0    0  0.93334031874E+03  0.83527205585E+03 -0.66829584113E+03  0.17081928723E+04  0.95000000000E+03 0.  0.
<mgrwt>
<rscale>  0 0.31667975E+04</rscale>
<asrwt>0</asrwt>
<pdfrwt beam="2">  1        2 0.41526970E+00 0.31667975E+04</pdfrwt>
<pdfrwt beam="1">  1       -2 0.14289717E+00 0.31667975E+04</pdfrwt>
<totfact> 0.76390824E-01</totfact>
</mgrwt>
</event>
<event>
 4    1  0.1308745E-008  0.2961949E+04  0.7816531E-02  0.8254681E-01
         -2   -1    0    0    0  501 -0.00000000000E+00  0.00000000000E+00  0.71841139524E+03  0.71841139524E+03  0.00000000000E+00 0. -1.
          2   -1    0    0  501    0  0.00000000000E+00 -0.00000000000E+00 -0.30529665144E+04  0.30529665144E+04  0.00000000000E+00 0.  1.
    2000013    1    1    2    0    0 -0.10575425461E+04  0.41519718076E+03 -0.11660058451E+04  0.18849017392E+04  0.95000000000E+03 0.  0.
   -2000013    1    1    2    0    0  0.10575425461E+04 -0.41519718076E+03 -0.11685492741E+04  0.18864761704E+04  0.95000000000E+03 0.  0.
<mgrwt>
<rscale>  0 0.29619493E+04</rscale>
<asrwt>0</asrwt>
<pdfrwt beam="2">  1        2 0.46968715E+00 0.29619493E+04</pdfrwt>
<pdfrwt beam="1">  1       -2 0.11052483E+00 0.29619493E+04</pdfrwt>
<totfact> 0.89862743E-01</totfact>
</mgrwt>
</event>
<event>
 4    1  0.1308745E-008  0.2132135E+04  0.7816531E-02  0.8547218E-01
          2   -1    0    0  501    0  0.00000000000E+00  0.00000000000E+00  0.13917340160E+04  0.13917340160E+04  0.00000000000E+00 0.  1.
         -2   -1    0    0    0  501 -0.00000000000E+00 -0.00000000000E+00 -0.81660700579E+03  0.81660700579E+03  0.00000000000E+00 0. -1.
    2000013    1    1    2    0    0  0.31429364501E+03 -0.36631319518E+03  0.32086699732E+03  0.11128438714E+04  0.95000000000E+03 0.  0.
   -2000013    1    1    2    0    0 -0.31429364501E+03  0.36631319518E+03  0.25426001289E+03  0.10954971503E+04  0.95000000000E+03 0.  0.
<mgrwt>
<rscale>  0 0.21321348E+04</rscale>
<asrwt>0</asrwt>
<pdfrwt beam="1">  1        2 0.21411293E+00 0.21321348E+04</pdfrwt>
<pdfrwt beam="2">  1       -2 0.12563185E+00 0.21321348E+04</pdfrwt>
<totfact> 0.63672778E+00</totfact>
</mgrwt>
</event>
<event>
 4    1  0.1308745E-008  0.2299220E+04  0.7816531E-02  0.8478229E-01
         -2   -1    0    0    0  501 -0.00000000000E+00  0.00000000000E+00  0.65005215376E+03  0.65005215376E+03  0.00000000000E+00 0. -1.
          2   -1    0    0  501    0  0.00000000000E+00 -0.00000000000E+00 -0.20330723804E+04  0.20330723804E+04  0.00000000000E+00 0.  1.
    2000013    1    1    2    0    0  0.18045588750E+03  0.62062364150E+03 -0.73462569619E+03  0.13637862535E+04  0.95000000000E+03 0.  0.
   -2000013    1    1    2    0    0 -0.18045588750E+03 -0.62062364150E+03 -0.64839453048E+03  0.13193382807E+04  0.95000000000E+03 0.  0.
<mgrwt>
<rscale>  0 0.22992199E+04</rscale>
<asrwt>0</asrwt>
<pdfrwt beam="2">  1        2 0.31278037E+00 0.22992199E+04</pdfrwt>
<pdfrwt beam="1">  1       -2 0.10000802E+00 0.22992199E+04</pdfrwt>
<totfact> 0.47946728E+00</totfact>
</mgrwt>
</event>
<event>
 4    1  0.1308745E-008  0.2439733E+04  0.7816531E-02  0.8424776E-01
          2   -1    0    0  501    0  0.00000000000E+00  0.00000000000E+00  0.30197582858E+04  0.30197582858E+04  0.00000000000E+00 0.  1.
         -2   -1    0    0    0  501 -0.00000000000E+00 -0.00000000000E+00 -0.49277922204E+03  0.49277922204E+03  0.00000000000E+00 0. -1.
    2000013    1    1    2    0    0  0.57935151137E+03 -0.49859123785E+03  0.12109299576E+04  0.17184565046E+04  0.95000000000E+03 0.  0.
   -2000013    1    1    2    0    0 -0.57935151137E+03  0.49859123785E+03  0.13160491062E+04  0.17940810032E+04  0.95000000000E+03 0.  0.
<mgrwt>
<rscale>  0 0.24397329E+04</rscale>
<asrwt>0</asrwt>
<pdfrwt beam="1">  1        2 0.46457819E+00 0.24397329E+04</pdfrwt>
<pdfrwt beam="2">  1       -2 0.75812190E-01 0.24397329E+04</pdfrwt>
<totfact> 0.23653523E+00</totfact>
</mgrwt>
</event>
<event>
 4    1  0.1308745E-008  0.2640783E+04  0.7816531E-02  0.8354479E-01
         -2   -1    0    0    0  501 -0.00000000000E+00  0.00000000000E+00  0.23859812671E+04  0.23859812671E+04  0.00000000000E+00 0. -1.
          2   -1    0    0  501    0  0.00000000000E+00 -0.00000000000E+00 -0.73069881498E+03  0.73069881498E+03  0.00000000000E+00 0.  1.
    2000013    1    1    2    0    0  0.78872696079E+03  0.31072707319E+03  0.41491809767E+03  0.13391409786E+04  0.95000000000E+03 0.  0.
   -2000013    1    1    2    0    0 -0.78872696079E+03 -0.31072707319E+03  0.12403643544E+04  0.17775391035E+04  0.95000000000E+03 0.  0.
<mgrwt>
<rscale>  0 0.26407830E+04</rscale>
<asrwt>0</asrwt>
<pdfrwt beam="2">  1        2 0.11241520E+00 0.26407830E+04</pdfrwt>
<pdfrwt beam="1">  1       -2 0.36707404E+00 0.26407830E+04</pdfrwt>
<totfact> 0.41453375E-01</totfact>
</mgrwt>
</event>
<event>
 4    1  0.1308745E-008  0.3764420E+04  0.7816531E-02  0.8053834E-01
          1   -1    0    0  501    0  0.00000000000E+00  0.00000000000E+00  0.27760811163E+04  0.27760811163E+04  0.00000000000E+00 0. -1.
         -1   -1    0    0    0  501 -0.00000000000E+00 -0.00000000000E+00 -0.12761569548E+04  0.12761569548E+04  0.00000000000E+00 0.  1.
    2000013    1    1    2    0    0 -0.14031651304E+04  0.68614676644E+03  0.26789969331E+03  0.18476850419E+04  0.95000000000E+03 0.  0.
   -2000013    1    1    2    0    0  0.14031651304E+04 -0.68614676644E+03  0.12320244682E+04  0.22045530292E+04  0.95000000000E+03 0.  0.
<mgrwt>
<rscale>  0 0.37644204E+04</rscale>
<asrwt>0</asrwt>
<pdfrwt beam="1">  1        1 0.42708940E+00 0.37644204E+04</pdfrwt>
<pdfrwt beam="2">  1       -1 0.19633184E+00 0.37644204E+04</pdfrwt>
<totfact> 0.11034161E-01</totfact>
</mgrwt>
</event>
<event>
 4    1  0.1308745E-008  0.3224284E+04  0.7816531E-02  0.8182433E-01
         -2   -1    0    0    0  501 -0.00000000000E+00  0.00000000000E+00  0.10347731889E+04  0.10347731889E+04  0.00000000000E+00 0. -1.
          2   -1    0    0  501    0  0.00000000000E+00 -0.00000000000E+00 -0.25116638144E+04  0.25116638144E+04  0.00000000000E+00 0.  1.
    2000013    1    1    2    0    0 -0.12529163631E+04 -0.32837824221E+02 -0.34859639818E+03  0.16108684566E+04  0.95000000000E+03 0.  0.
   -2000013    1    1    2    0    0  0.12529163631E+04  0.32837824221E+02 -0.11282942273E+04  0.19355685467E+04  0.95000000000E+03 0.  0.
<mgrwt>
<rscale>  0 0.32242843E+04</rscale>
<asrwt>0</asrwt>
<pdfrwt beam="2">  1        2 0.38640981E+00 0.32242843E+04</pdfrwt>
<pdfrwt beam="1">  1       -2 0.15919588E+00 0.32242843E+04</pdfrwt>
<totfact> 0.73537681E-01</totfact>
</mgrwt>
</event>
<event>
 4    1  0.1308745E-008  0.2327825E+04  0.7816531E-02  0.8467030E-01
         -2   -1    0    0    0  501 -0.00000000000E+00  0.00000000000E+00  0.61398111782E+03  0.61398111782E+03  0.00000000000E+00 0. -1.
          2   -1    0    0  501    0  0.00000000000E+00 -0.00000000000E+00 -0.22064070640E+04  0.22064070640E+04  0.00000000000E+00 0.  1.
    2000013    1    1    2    0    0  0.19441389281E+03  0.59916288734E+03 -0.10813876059E+04  0.15712072051E+04  0.95000000000E+03 0.  0.
   -2000013    1    1    2    0    0 -0.19441389281E+03 -0.59916288734E+03 -0.51103834029E+03  0.12491809767E+04  0.95000000000E+03 0.  0.
<mgrwt>
<rscale>  0 0.23278250E+04</rscale>
<asrwt>0</asrwt>
<pdfrwt beam="2">  1        2 0.33944724E+00 0.23278250E+04</pdfrwt>
<pdfrwt beam="1">  1       -2 0.94458634E-01 0.23278250E+04</pdfrwt>
<totfact> 0.43748471E+00</totfact>
</mgrwt>
</event>
<event>
 4    1  0.1308745E-008  0.2214849E+04  0.7816531E-02  0.8512273E-01
          1   -1    0    0  501    0  0.00000000000E+00  0.00000000000E+00  0.24997329312E+04  0.24997329312E+04  0.00000000000E+00 0.  1.
         -1   -1    0    0    0  501 -0.00000000000E+00 -0.00000000000E+00 -0.49060787341E+03  0.49060787341E+03  0.00000000000E+00 0. -1.
    2000013    1    1    2    0    0  0.49070636541E+03  0.14801951052E+03  0.13385292358E+04  0.17195531476E+04  0.95000000000E+03 0.  0.
   -2000013    1    1    2    0    0 -0.49070636541E+03 -0.14801951052E+03  0.67059582200E+03  0.12707876569E+04  0.95000000000E+03 0.  0.
<mgrwt>
<rscale>  0 0.22148487E+04</rscale>
<asrwt>0</asrwt>
<pdfrwt beam="1">  1        1 0.38457429E+00 0.22148487E+04</pdfrwt>
<pdfrwt beam="2">  1       -1 0.75478135E-01 0.22148487E+04</pdfrwt>
<totfact> 0.21772073E+00</totfact>
</mgrwt>
</event>
<event>
 4    1  0.1308745E-008  0.2654049E+04  0.7816531E-02  0.8350070E-01
         -2   -1    0    0    0  501 -0.00000000000E+00  0.00000000000E+00  0.21356741569E+04  0.21356741569E+04  0.00000000000E+00 0. -1.
          2   -1    0    0  501    0  0.00000000000E+00 -0.00000000000E+00 -0.82456110141E+03  0.82456110141E+03  0.00000000000E+00 0.  1.
    2000013    1    1    2    0    0  0.57396279334E+03 -0.64556627265E+03  0.28177628092E+03  0.13145672189E+04  0.95000000000E+03 0.  0.
   -2000013    1    1    2    0    0 -0.57396279334E+03  0.64556627265E+03  0.10293367746E+04  0.16456680395E+04  0.95000000000E+03 0.  0.
<mgrwt>
<rscale>  0 0.26540489E+04</rscale>
<asrwt>0</asrwt>
<pdfrwt beam="2">  1        2 0.12685555E+00 0.26540489E+04</pdfrwt>
<pdfrwt beam="1">  1       -2 0.32856525E+00 0.26540489E+04</pdfrwt>
<totfact> 0.61729339E-01</totfact>
</mgrwt>
</event>
<event>
 4    1  0.1308745E-008  0.2805803E+04  0.7816531E-02  0.8301469E-01
         -2   -1    0    0    0  501 -0.00000000000E+00  0.00000000000E+00  0.14861096592E+04  0.14861096592E+04  0.00000000000E+00 0. -1.
          2   -1    0    0  501    0  0.00000000000E+00 -0.00000000000E+00 -0.13243521891E+04  0.13243521891E+04  0.00000000000E+00 0.  1.
    2000013    1    1    2    0    0 -0.32622079660E+03  0.78870147444E+03  0.66249988706E+03  0.14387064066E+04  0.95000000000E+03 0.  0.
   -2000013    1    1    2    0    0  0.32622079660E+03 -0.78870147444E+03 -0.50074241690E+03  0.13717554418E+04  0.95000000000E+03 0.  0.
<mgrwt>
<rscale>  0 0.28058030E+04</rscale>
<asrwt>0</asrwt>
<pdfrwt beam="2">  1        2 0.20374649E+00 0.28058030E+04</pdfrwt>
<pdfrwt beam="1">  1       -2 0.22863226E+00 0.28058030E+04</pdfrwt>
<totfact> 0.12135636E+00</totfact>
</mgrwt>
</event>
<event>
 4    1  0.1308745E-008  0.4754288E+04  0.7816531E-02  0.7867570E-01
         -2   -1    0    0    0  501 -0.00000000000E+00  0.00000000000E+00  0.15188218700E+04  0.15188218700E+04  0.00000000000E+00 0. -1.
          2   -1    0    0  501    0  0.00000000000E+00 -0.00000000000E+00 -0.37205241340E+04  0.37205241340E+04  0.00000000000E+00 0.  1.
    2000013    1    1    2    0    0 -0.41404712114E+03  0.16238600496E+04 -0.26357778501E+04  0.32646870224E+04  0.95000000000E+03 0.  0.
   -2000013    1    1    2    0    0  0.41404712114E+03 -0.16238600496E+04  0.43407558606E+03  0.19746589816E+04  0.95000000000E+03 0.  0.
<mgrwt>
<rscale>  0 0.47542879E+04</rscale>
<asrwt>0</asrwt>
<pdfrwt beam="2">  1        2 0.57238833E+00 0.47542879E+04</pdfrwt>
<pdfrwt beam="1">  1       -2 0.23366490E+00 0.47542879E+04</pdfrwt>
<totfact> 0.33835668E-02</totfact>
</mgrwt>
</event>
<event>
 4    1  0.1308745E-008  0.2277990E+04  0.7816531E-02  0.8486650E-01
         -2   -1    0    0    0  501 -0.00000000000E+00  0.00000000000E+00  0.49385729745E+03  0.49385729745E+03  0.00000000000E+00 0. -1.
          2   -1    0    0  501    0  0.00000000000E+00 -0.00000000000E+00 -0.26268919215E+04  0.26268919215E+04  0.00000000000E+00 0.  1.
    2000013    1    1    2    0    0 -0.31881223563E+03 -0.53953970997E+03 -0.10042572389E+04  0.15178197989E+04  0.95000000000E+03 0.  0.
   -2000013    1    1    2    0    0  0.31881223563E+03  0.53953970997E+03 -0.11287773852E+04  0.16029294200E+04  0.95000000000E+03 0.  0.
<mgrwt>
<rscale>  0 0.22779901E+04</rscale>
<asrwt>0</asrwt>
<pdfrwt beam="2">  1        2 0.40413722E+00 0.22779901E+04</pdfrwt>
<pdfrwt beam="1">  1       -2 0.75978045E-01 0.22779901E+04</pdfrwt>
<totfact> 0.41353175E+00</totfact>
</mgrwt>
</event>
<event>
 4    1  0.1308745E-008  0.2808237E+04  0.7816531E-02  0.8300716E-01
          2   -1    0    0  501    0  0.00000000000E+00  0.00000000000E+00  0.13191093071E+04  0.13191093071E+04  0.00000000000E+00 0. -1.
         -2   -1    0    0    0  501 -0.00000000000E+00 -0.00000000000E+00 -0.14946055554E+04  0.14946055554E+04  0.00000000000E+00 0.  1.
    2000013    1    1    2    0    0  0.57838537158E+03 -0.48406932079E+03  0.62087647925E+03  0.13626592927E+04  0.95000000000E+03 0.  0.
   -2000013    1    1    2    0    0 -0.57838537158E+03  0.48406932079E+03 -0.79637272753E+03  0.14510555698E+04  0.95000000000E+03 0.  0.
<mgrwt>
<rscale>  0 0.28082365E+04</rscale>
<asrwt>0</asrwt>
<pdfrwt beam="1">  1        2 0.20293989E+00 0.28082365E+04</pdfrwt>
<pdfrwt beam="2">  1       -2 0.22993932E+00 0.28082365E+04</pdfrwt>
<totfact> 0.11990260E+00</totfact>
</mgrwt>
</event>
<event>
 4    1  0.1308745E-008  0.2238554E+04  0.7816531E-02  0.8502550E-01
         -2   -1    0    0    0  501 -0.00000000000E+00  0.00000000000E+00  0.41339749608E+03  0.41339749608E+03  0.00000000000E+00 0. -1.
          2   -1    0    0  501    0  0.00000000000E+00 -0.00000000000E+00 -0.30304508355E+04  0.30304508355E+04  0.00000000000E+00 0.  1.
    2000013    1    1    2    0    0  0.58094246082E+03  0.56808698563E+02 -0.14589420231E+04  0.18362279808E+04  0.95000000000E+03 0.  0.
   -2000013    1    1    2    0    0 -0.58094246082E+03 -0.56808698563E+02 -0.11581113164E+04  0.16076203508E+04  0.95000000000E+03 0.  0.
<mgrwt>
<rscale>  0 0.22385538E+04</rscale>
<asrwt>0</asrwt>
<pdfrwt beam="2">  1        2 0.46622317E+00 0.22385538E+04</pdfrwt>
<pdfrwt beam="1">  1       -2 0.63599619E-01 0.22385538E+04</pdfrwt>
<totfact> 0.34767157E+00</totfact>
</mgrwt>
</event>
<event>
 4    1  0.1308745E-008  0.3258457E+04  0.7816531E-02  0.8173547E-01
         -2   -1    0    0    0  501 -0.00000000000E+00  0.00000000000E+00  0.10960890375E+04  0.10960890375E+04  0.00000000000E+00 0. -1.
          2   -1    0    0  501    0  0.00000000000E+00 -0.00000000000E+00 -0.24216883226E+04  0.24216883226E+04  0.00000000000E+00 0.  1.
    2000013    1    1    2    0    0  0.90479147860E+03 -0.56384729190E+03  0.18404732176E+03  0.14397724838E+04  0.95000000000E+03 0.  0.
   -2000013    1    1    2    0    0 -0.90479147860E+03  0.56384729190E+03 -0.15096466069E+04  0.20780048763E+04  0.95000000000E+03 0.  0.
<mgrwt>
<rscale>  0 0.32584573E+04</rscale>
<asrwt>0</asrwt>
<pdfrwt beam="2">  1        2 0.37256743E+00 0.32584573E+04</pdfrwt>
<pdfrwt beam="1">  1       -2 0.16862909E+00 0.32584573E+04</pdfrwt>
<totfact> 0.70564432E-01</totfact>
</mgrwt>
</event>
<event>
 4    1  0.1308745E-008  0.3195094E+04  0.7816531E-02  0.8190114E-01
         -2   -1    0    0    0  501 -0.00000000000E+00  0.00000000000E+00  0.62890059614E+03  0.62890059614E+03  0.00000000000E+00 0.  1.
          2   -1    0    0  501    0  0.00000000000E+00 -0.00000000000E+00 -0.40581236775E+04  0.40581236775E+04  0.00000000000E+00 0. -1.
    2000013    1    1    2    0    0  0.76110837750E+03  0.54613038962E+03 -0.30036139393E+04  0.32866002284E+04  0.95000000000E+03 0.  0.
   -2000013    1    1    2    0    0 -0.76110837750E+03 -0.54613038962E+03 -0.42560914205E+03  0.14004240453E+04  0.95000000000E+03 0.  0.
<mgrwt>
<rscale>  0 0.31950940E+04</rscale>
<asrwt>0</asrwt>
<pdfrwt beam="2">  1        2 0.62432672E+00 0.31950940E+04</pdfrwt>
<pdfrwt beam="1">  1       -2 0.96753938E-01 0.31950940E+04</pdfrwt>
<totfact> 0.23024639E-01</totfact>
</mgrwt>
</event>
<event>
 4    1  0.1308745E-008  0.2635154E+04  0.7816531E-02  0.8356357E-01
          1   -1    0    0  501    0  0.00000000000E+00  0.00000000000E+00  0.21156910670E+04  0.21156910670E+04  0.00000000000E+00 0.  1.
         -1   -1    0    0    0  501 -0.00000000000E+00 -0.00000000000E+00 -0.82053974321E+03  0.82053974321E+03  0.00000000000E+00 0. -1.
    2000013    1    1    2    0    0  0.83823181047E+03 -0.31869787833E+03  0.45682101737E+03  0.13839748363E+04  0.95000000000E+03 0.  0.
   -2000013    1    1    2    0    0 -0.83823181047E+03  0.31869787833E+03  0.83833030642E+03  0.15522559739E+04  0.95000000000E+03 0.  0.
<mgrwt>
<rscale>  0 0.26351536E+04</rscale>
<asrwt>0</asrwt>
<pdfrwt beam="1">  1        1 0.32549093E+00 0.26351536E+04</pdfrwt>
<pdfrwt beam="2">  1       -1 0.12623688E+00 0.26351536E+04</pdfrwt>
<totfact> 0.11919387E+00</totfact>
</mgrwt>
</event>
<event>
 4    1  0.1308745E-008  0.2457745E+04  0.7816531E-02  0.8418196E-01
          2   -1    0    0  501    0  0.00000000000E+00  0.00000000000E+00  0.18564647160E+04  0.18564647160E+04  0.00000000000E+00 0.  1.
         -2   -1    0    0    0  501 -0.00000000000E+00 -0.00000000000E+00 -0.81344265623E+03  0.81344265623E+03  0.00000000000E+00 0. -1.
    2000013    1    1    2    0    0  0.72216985848E+03 -0.29083952862E+03  0.56373332731E+03  0.13514481863E+04  0.95000000000E+03 0.  0.
   -2000013    1    1    2    0    0 -0.72216985848E+03  0.29083952862E+03  0.47928873245E+03  0.13184591859E+04  0.95000000000E+03 0.  0.
<mgrwt>
<rscale>  0 0.24577450E+04</rscale>
<asrwt>0</asrwt>
<pdfrwt beam="1">  1        2 0.28560995E+00 0.24577450E+04</pdfrwt>
<pdfrwt beam="2">  1       -2 0.12514502E+00 0.24577450E+04</pdfrwt>
<totfact> 0.34352565E+00</totfact>
</mgrwt>
</event>
<event>
 4    1  0.1308745E-008  0.2574998E+04  0.7816531E-02  0.8376744E-01
         -2   -1    0    0    0  501 -0.00000000000E+00  0.00000000000E+00  0.17291243653E+04  0.17291243653E+04  0.00000000000E+00 0. -1.
          2   -1    0    0  501    0  0.00000000000E+00 -0.00000000000E+00 -0.95866681672E+03  0.95866681672E+03  0.00000000000E+00 0.  1.
    2000013    1    1    2    0    0  0.53617754011E+03 -0.61059946504E+03  0.70667282033E+03  0.14360377907E+04  0.95000000000E+03 0.  0.
   -2000013    1    1    2    0    0 -0.53617754011E+03  0.61059946504E+03  0.63784728249E+02  0.12517533914E+04  0.95000000000E+03 0.  0.
<mgrwt>
<rscale>  0 0.25749984E+04</rscale>
<asrwt>0</asrwt>
<pdfrwt beam="2">  1        2 0.14748720E+00 0.25749984E+04</pdfrwt>
<pdfrwt beam="1">  1       -2 0.26601913E+00 0.25749984E+04</pdfrwt>
<totfact> 0.12174165E+00</totfact>
</mgrwt>
</event>
<event>
 4    1  0.1308745E-008  0.3861353E+04  0.7816531E-02  0.8033115E-01
         -2   -1    0    0    0  501 -0.00000000000E+00  0.00000000000E+00  0.84369766084E+03  0.84369766084E+03  0.00000000000E+00 0. -1.
          2   -1    0    0  501    0  0.00000000000E+00 -0.00000000000E+00 -0.44180663424E+04  0.44180663424E+04  0.00000000000E+00 0.  1.
    2000013    1    1    2    0    0  0.11994385496E+04  0.11589688627E+04 -0.15041200096E+04  0.24385935828E+04  0.95000000000E+03 0.  0.
   -2000013    1    1    2    0    0 -0.11994385496E+04 -0.11589688627E+04 -0.20702486720E+04  0.28231704204E+04  0.95000000000E+03 0.  0.
<mgrwt>
<rscale>  0 0.38613533E+04</rscale>
<asrwt>0</asrwt>
<pdfrwt beam="2">  1        2 0.67970250E+00 0.38613533E+04</pdfrwt>
<pdfrwt beam="1">  1       -2 0.12979964E+00 0.38613533E+04</pdfrwt>
<totfact> 0.51025819E-02</totfact>
</mgrwt>
</event>
<event>
 4    1  0.1308745E-008  0.2254029E+04  0.7816531E-02  0.8496270E-01
          2   -1    0    0  501    0  0.00000000000E+00  0.00000000000E+00  0.89140976162E+03  0.89140976162E+03  0.00000000000E+00 0.  1.
         -2   -1    0    0    0  501 -0.00000000000E+00 -0.00000000000E+00 -0.14248913420E+04  0.14248913420E+04  0.00000000000E+00 0. -1.
    2000013    1    1    2    0    0 -0.58894929718E+03 -0.67656835077E+02 -0.39763048254E+03  0.11882965634E+04  0.95000000000E+03 0.  0.
   -2000013    1    1    2    0    0  0.58894929718E+03  0.67656835077E+02 -0.13585109787E+03  0.11280045402E+04  0.95000000000E+03 0.  0.
<mgrwt>
<rscale>  0 0.22540293E+04</rscale>
<asrwt>0</asrwt>
<pdfrwt beam="1">  1        2 0.13713997E+00 0.22540293E+04</pdfrwt>
<pdfrwt beam="2">  1       -2 0.21921405E+00 0.22540293E+04</pdfrwt>
<totfact> 0.27029268E+00</totfact>
</mgrwt>
</event>
<event>
 4    1  0.1308745E-008  0.2557298E+04  0.7816531E-02  0.8382852E-01
         -2   -1    0    0    0  501 -0.00000000000E+00  0.00000000000E+00  0.79347368947E+03  0.79347368947E+03  0.00000000000E+00 0. -1.
          2   -1    0    0  501    0  0.00000000000E+00 -0.00000000000E+00 -0.20604886793E+04  0.20604886793E+04  0.00000000000E+00 0.  1.
    2000013    1    1    2    0    0 -0.79560276568E+03 -0.21902990630E+03 -0.88673457645E+03  0.15394012049E+04  0.95000000000E+03 0.  0.
   -2000013    1    1    2    0    0  0.79560276568E+03  0.21902990630E+03 -0.38028041333E+03  0.13145611638E+04  0.95000000000E+03 0.  0.
<mgrwt>
<rscale>  0 0.25572982E+04</rscale>
<asrwt>0</asrwt>
<pdfrwt beam="2">  1        2 0.31699825E+00 0.25572982E+04</pdfrwt>
<pdfrwt beam="1">  1       -2 0.12207288E+00 0.25572982E+04</pdfrwt>
<totfact> 0.27921948E+00</totfact>
</mgrwt>
</event>
<event>
 4    1  0.1308745E-008  0.2386980E+04  0.7816531E-02  0.8444394E-01
         -2   -1    0    0    0  501 -0.00000000000E+00  0.00000000000E+00  0.12668647672E+04  0.12668647672E+04  0.00000000000E+00 0. -1.
          2   -1    0    0  501    0  0.00000000000E+00 -0.00000000000E+00 -0.11243652494E+04  0.11243652494E+04  0.00000000000E+00 0.  1.
    2000013    1    1    2    0    0 -0.54371226665E+03  0.44078756846E+03 -0.10795979280E+03  0.11849354524E+04  0.95000000000E+03 0.  0.
   -2000013    1    1    2    0    0  0.54371226665E+03 -0.44078756846E+03  0.25045931068E+03  0.12062945642E+04  0.95000000000E+03 0.  0.
<mgrwt>
<rscale>  0 0.23869803E+04</rscale>
<asrwt>0</asrwt>
<pdfrwt beam="2">  1        2 0.17297927E+00 0.23869803E+04</pdfrwt>
<pdfrwt beam="1">  1       -2 0.19490227E+00 0.23869803E+04</pdfrwt>
<totfact> 0.27229503E+00</totfact>
</mgrwt>
</event>
<event>
 4    1  0.1308745E-008  0.2584392E+04  0.7816531E-02  0.8373522E-01
          2   -1    0    0  501    0  0.00000000000E+00  0.00000000000E+00  0.82325709334E+03  0.82325709334E+03  0.00000000000E+00 0.  1.
         -2   -1    0    0    0  501 -0.00000000000E+00 -0.00000000000E+00 -0.20282486577E+04  0.20282486577E+04  0.00000000000E+00 0. -1.
    2000013    1    1    2    0    0  0.67646365867E+03  0.35265089616E+03 -0.10774576393E+04  0.16264626342E+04  0.95000000000E+03 0.  0.
   -2000013    1    1    2    0    0 -0.67646365867E+03 -0.35265089616E+03 -0.12753392509E+03  0.12250431168E+04  0.95000000000E+03 0.  0.
<mgrwt>
<rscale>  0 0.25843917E+04</rscale>
<asrwt>0</asrwt>
<pdfrwt beam="1">  1        2 0.12665494E+00 0.25843917E+04</pdfrwt>
<pdfrwt beam="2">  1       -2 0.31203825E+00 0.25843917E+04</pdfrwt>
<totfact> 0.78723617E-01</totfact>
</mgrwt>
</event>
<event>
 4    1  0.1308745E-008  0.2942843E+04  0.7816531E-02  0.8260243E-01
         -2   -1    0    0    0  501 -0.00000000000E+00  0.00000000000E+00  0.10251401063E+04  0.10251401063E+04  0.00000000000E+00 0. -1.
          2   -1    0    0  501    0  0.00000000000E+00 -0.00000000000E+00 -0.21119853401E+04  0.21119853401E+04  0.00000000000E+00 0.  1.
    2000013    1    1    2    0    0 -0.34009801385E+03  0.10384715061E+04 -0.26443684767E+03  0.14719091597E+04  0.95000000000E+03 0.  0.
   -2000013    1    1    2    0    0  0.34009801385E+03 -0.10384715061E+04 -0.82240838608E+03  0.16652162867E+04  0.95000000000E+03 0.  0.
<mgrwt>
<rscale>  0 0.29428428E+04</rscale>
<asrwt>0</asrwt>
<pdfrwt beam="2">  1        2 0.32492082E+00 0.29428428E+04</pdfrwt>
<pdfrwt beam="1">  1       -2 0.15771386E+00 0.29428428E+04</pdfrwt>
<totfact> 0.13034783E+00</totfact>
</mgrwt>
</event>
<event>
 4    1  0.1308745E-008  0.3402304E+04  0.7816531E-02  0.8137341E-01
         -1   -1    0    0    0  501 -0.00000000000E+00  0.00000000000E+00  0.11579063390E+04  0.11579063390E+04  0.00000000000E+00 0. -1.
          1   -1    0    0  501    0  0.00000000000E+00 -0.00000000000E+00 -0.24992684888E+04  0.24992684888E+04  0.00000000000E+00 0.  1.
    2000013    1    1    2    0    0 -0.13817687698E+04 -0.28347483076E+03 -0.62538261899E+03  0.18119730498E+04  0.95000000000E+03 0.  0.
   -2000013    1    1    2    0    0  0.13817687698E+04  0.28347483076E+03 -0.71597953089E+03  0.18452017780E+04  0.95000000000E+03 0.  0.
<mgrwt>
<rscale>  0 0.34023044E+04</rscale>
<asrwt>0</asrwt>
<pdfrwt beam="2">  1        1 0.38450284E+00 0.34023044E+04</pdfrwt>
<pdfrwt beam="1">  1       -1 0.17813944E+00 0.34023044E+04</pdfrwt>
<totfact> 0.23940262E-01</totfact>
</mgrwt>
</event>
<event>
 4    1  0.1308745E-008  0.2776715E+04  0.7816531E-02  0.8310534E-01
          2   -1    0    0  501    0  0.00000000000E+00  0.00000000000E+00  0.13877449269E+04  0.13877449269E+04  0.00000000000E+00 0.  1.
         -2   -1    0    0    0  501 -0.00000000000E+00 -0.00000000000E+00 -0.13889703757E+04  0.13889703757E+04  0.00000000000E+00 0. -1.
    2000013    1    1    2    0    0  0.91091176919E+03  0.32658650172E+03 -0.29829983440E+03  0.13884890297E+04  0.95000000000E+03 0.  0.
   -2000013    1    1    2    0    0 -0.91091176919E+03 -0.32658650172E+03  0.29707438564E+03  0.13882262730E+04  0.95000000000E+03 0.  0.
<mgrwt>
<rscale>  0 0.27767150E+04</rscale>
<asrwt>0</asrwt>
<pdfrwt beam="1">  1        2 0.21349922E+00 0.27767150E+04</pdfrwt>
<pdfrwt beam="2">  1       -2 0.21368775E+00 0.27767150E+04</pdfrwt>
<totfact> 0.13902938E+00</totfact>
</mgrwt>
</event>
<event>
 4    1  0.1308745E-008  0.3159133E+04  0.7816531E-02  0.8199694E-01
          2   -1    0    0  501    0  0.00000000000E+00  0.00000000000E+00  0.32252466098E+04  0.32252466098E+04  0.00000000000E+00 0.  1.
         -2   -1    0    0    0  501 -0.00000000000E+00 -0.00000000000E+00 -0.77359370145E+03  0.77359370145E+03  0.00000000000E+00 0. -1.
    2000013    1    1    2    0    0  0.49682920370E+03 -0.38227047089E+03 -0.16053736712E+03  0.11494530077E+04  0.95000000000E+03 0.  0.
   -2000013    1    1    2    0    0 -0.49682920370E+03  0.38227047089E+03  0.26121902755E+04  0.28493873036E+04  0.95000000000E+03 0.  0.
<mgrwt>
<rscale>  0 0.31591331E+04</rscale>
<asrwt>0</asrwt>
<pdfrwt beam="1">  1        2 0.49619178E+00 0.31591331E+04</pdfrwt>
<pdfrwt beam="2">  1       -2 0.11901442E+00 0.31591331E+04</pdfrwt>
<totfact> 0.57112076E-01</totfact>
</mgrwt>
</event>
<event>
 4    1  0.1308745E-008  0.2427688E+04  0.7816531E-02  0.8429210E-01
         -2   -1    0    0    0  501 -0.00000000000E+00  0.00000000000E+00  0.20780442337E+04  0.20780442337E+04  0.00000000000E+00 0. -1.
          2   -1    0    0  501    0  0.00000000000E+00 -0.00000000000E+00 -0.70904031564E+03  0.70904031564E+03  0.00000000000E+00 0.  1.
    2000013    1    1    2    0    0 -0.70447715436E+03  0.34902520685E+02  0.37344670521E+03  0.12407532747E+04  0.95000000000E+03 0.  0.
   -2000013    1    1    2    0    0  0.70447715436E+03 -0.34902520685E+02  0.99555721284E+03  0.15463312747E+04  0.95000000000E+03 0.  0.
<mgrwt>
<rscale>  0 0.24276879E+04</rscale>
<asrwt>0</asrwt>
<pdfrwt beam="2">  1        2 0.10908313E+00 0.24276879E+04</pdfrwt>
<pdfrwt beam="1">  1       -2 0.31969911E+00 0.24276879E+04</pdfrwt>
<totfact> 0.87006150E-01</totfact>
</mgrwt>
</event>
<event>
 4    1  0.1308745E-008  0.2528047E+04  0.7816531E-02  0.8393061E-01
         -2   -1    0    0    0  501 -0.00000000000E+00  0.00000000000E+00  0.13013031938E+04  0.13013031938E+04  0.00000000000E+00 0. -1.
          2   -1    0    0  501    0  0.00000000000E+00 -0.00000000000E+00 -0.12278115599E+04  0.12278115599E+04  0.00000000000E+00 0.  1.
    2000013    1    1    2    0    0 -0.77412086005E+03 -0.12684145985E+03 -0.24604521577E+03  0.12563399660E+04  0.95000000000E+03 0.  0.
   -2000013    1    1    2    0    0  0.77412086005E+03  0.12684145985E+03  0.31953684968E+03  0.12727747877E+04  0.95000000000E+03 0.  0.
<mgrwt>
<rscale>  0 0.25280468E+04</rscale>
<asrwt>0</asrwt>
<pdfrwt beam="2">  1        2 0.18889409E+00 0.25280468E+04</pdfrwt>
<pdfrwt beam="1">  1       -2 0.20020049E+00 0.25280468E+04</pdfrwt>
<totfact> 0.21510435E+00</totfact>
</mgrwt>
</event>
<event>
 4    1  0.1308745E-008  0.2358155E+04  0.7816531E-02  0.8455338E-01
         -1   -1    0    0    0  501 -0.00000000000E+00  0.00000000000E+00  0.75812926658E+03  0.75812926658E+03  0.00000000000E+00 0.  1.
          1   -1    0    0  501    0  0.00000000000E+00 -0.00000000000E+00 -0.18337561462E+04  0.18337561462E+04  0.00000000000E+00 0. -1.
    2000013    1    1    2    0    0  0.44732069624E+03  0.25395749643E+03 -0.10570033479E+04  0.15114054032E+04  0.95000000000E+03 0.  0.
   -2000013    1    1    2    0    0 -0.44732069624E+03 -0.25395749643E+03 -0.18623531753E+02  0.10804800096E+04  0.95000000000E+03 0.  0.
<mgrwt>
<rscale>  0 0.23581554E+04</rscale>
<asrwt>0</asrwt>
<pdfrwt beam="2">  1        1 0.28211633E+00 0.23581554E+04</pdfrwt>
<pdfrwt beam="1">  1       -1 0.11663527E+00 0.23581554E+04</pdfrwt>
<totfact> 0.23055274E+00</totfact>
</mgrwt>
</event>
<event>
 4    1  0.1308745E-008  0.2250038E+04  0.7816531E-02  0.8497885E-01
         -2   -1    0    0    0  501 -0.00000000000E+00  0.00000000000E+00  0.46999155096E+03  0.46999155096E+03  0.00000000000E+00 0.  1.
          2   -1    0    0  501    0  0.00000000000E+00 -0.00000000000E+00 -0.26929588122E+04  0.26929588122E+04  0.00000000000E+00 0. -1.
    2000013    1    1    2    0    0 -0.16564299934E+03 -0.31483829979E+03 -0.42770359849E+03  0.11009046854E+04  0.95000000000E+03 0.  0.
   -2000013    1    1    2    0    0  0.16564299934E+03  0.31483829979E+03 -0.17952636627E+04  0.20620456777E+04  0.95000000000E+03 0.  0.
<mgrwt>
<rscale>  0 0.22500381E+04</rscale>
<asrwt>0</asrwt>
<pdfrwt beam="2">  1        2 0.41430135E+00 0.22500381E+04</pdfrwt>
<pdfrwt beam="1">  1       -2 0.72306393E-01 0.22500381E+04</pdfrwt>
<totfact> 0.42269567E+00</totfact>
</mgrwt>
</event>
<event>
 4    1  0.1308745E-008  0.2108323E+04  0.7816531E-02  0.8557586E-01
         -2   -1    0    0    0  501 -0.00000000000E+00  0.00000000000E+00  0.65396580235E+03  0.65396580235E+03  0.00000000000E+00 0. -1.
          2   -1    0    0  501    0  0.00000000000E+00 -0.00000000000E+00 -0.16992585193E+04  0.16992585193E+04  0.00000000000E+00 0.  1.
    2000013    1    1    2    0    0 -0.33263377848E+03  0.25722011607E+03 -0.72215348133E+03  0.12652324171E+04  0.95000000000E+03 0.  0.
   -2000013    1    1    2    0    0  0.33263377848E+03 -0.25722011607E+03 -0.32313923559E+03  0.10879919045E+04  0.95000000000E+03 0.  0.
<mgrwt>
<rscale>  0 0.21083235E+04</rscale>
<asrwt>0</asrwt>
<pdfrwt beam="2">  1        2 0.26142439E+00 0.21083235E+04</pdfrwt>
<pdfrwt beam="1">  1       -2 0.10061012E+00 0.21083235E+04</pdfrwt>
<totfact> 0.73602579E+00</totfact>
</mgrwt>
</event>
<event>
 4    1  0.1308745E-008  0.2800341E+04  0.7816531E-02  0.8303162E-01
         -2   -1    0    0    0  501 -0.00000000000E+00  0.00000000000E+00  0.11344999583E+04  0.11344999583E+04  0.00000000000E+00 0. -1.
          2   -1    0    0  501    0  0.00000000000E+00 -0.00000000000E+00 -0.17280544944E+04  0.17280544944E+04  0.00000000000E+00 0.  1.
    2000013    1    1    2    0    0  0.79736666908E+03 -0.39580884911E+03  0.22995632182E+03  0.13220583043E+04  0.95000000000E+03 0.  0.
   -2000013    1    1    2    0    0 -0.79736666908E+03  0.39580884911E+03 -0.82351085799E+03  0.15404961484E+04  0.95000000000E+03 0.  0.
<mgrwt>
<rscale>  0 0.28003412E+04</rscale>
<asrwt>0</asrwt>
<pdfrwt beam="2">  1        2 0.26585454E+00 0.28003412E+04</pdfrwt>
<pdfrwt beam="1">  1       -2 0.17453845E+00 0.28003412E+04</pdfrwt>
<totfact> 0.16297988E+00</totfact>
</mgrwt>
</event>
<event>
 4    1  0.1308745E-008  0.2273116E+04  0.7816531E-02  0.8488597E-01
          2   -1    0    0  501    0  0.00000000000E+00  0.00000000000E+00  0.16484356202E+04  0.16484356202E+04  0.00000000000E+00 0.  1.
         -2   -1    0    0    0  501 -0.00000000000E+00 -0.00000000000E+00 -0.78363025963E+03  0.78363025963E+03  0.00000000000E+00 0. -1.
    2000013    1    1    2    0    0 -0.47771182194E+03 -0.35820057300E+03  0.23878509721E+03  0.11471854941E+04  0.95000000000E+03 0.  0.
   -2000013    1    1    2    0    0  0.47771182194E+03  0.35820057300E+03  0.62602026331E+03  0.12848803856E+04  0.95000000000E+03 0.  0.
<mgrwt>
<rscale>  0 0.22731160E+04</rscale>
<asrwt>0</asrwt>
<pdfrwt beam="1">  1        2 0.25360548E+00 0.22731160E+04</pdfrwt>
<pdfrwt beam="2">  1       -2 0.12055850E+00 0.22731160E+04</pdfrwt>
<totfact> 0.49978230E+00</totfact>
</mgrwt>
</event>
<event>
 4    1  0.1308745E-008  0.3120670E+04  0.7816531E-02  0.8210088E-01
         -2   -1    0    0    0  501 -0.00000000000E+00  0.00000000000E+00  0.96134388050E+03  0.96134388050E+03  0.00000000000E+00 0. -1.
          2   -1    0    0  501    0  0.00000000000E+00 -0.00000000000E+00 -0.25325444285E+04  0.25325444285E+04  0.00000000000E+00 0.  1.
    2000013    1    1    2    0    0  0.70926326304E+03  0.92326624099E+03 -0.12561916164E+04  0.19585689431E+04  0.95000000000E+03 0.  0.
   -2000013    1    1    2    0    0 -0.70926326304E+03 -0.92326624099E+03 -0.31500893161E+03  0.15353193658E+04  0.95000000000E+03 0.  0.
<mgrwt>
<rscale>  0 0.31206705E+04</rscale>
<asrwt>0</asrwt>
<pdfrwt beam="2">  1        2 0.38962222E+00 0.31206705E+04</pdfrwt>
<pdfrwt beam="1">  1       -2 0.14789906E+00 0.31206705E+04</pdfrwt>
<totfact> 0.87835536E-01</totfact>
</mgrwt>
</event>
<event>
 4    1  0.1308745E-008  0.2338289E+04  0.7816531E-02  0.8462976E-01
          2   -1    0    0  501    0  0.00000000000E+00  0.00000000000E+00  0.12831660182E+04  0.12831660182E+04  0.00000000000E+00 0.  1.
         -2   -1    0    0    0  501 -0.00000000000E+00 -0.00000000000E+00 -0.10652548122E+04  0.10652548122E+04  0.00000000000E+00 0. -1.
    2000013    1    1    2    0    0  0.36585559508E+03  0.29181205135E+03 -0.38856364282E+03  0.11280453423E+04  0.95000000000E+03 0.  0.
   -2000013    1    1    2    0    0 -0.36585559508E+03 -0.29181205135E+03  0.60647484882E+03  0.12203754881E+04  0.95000000000E+03 0.  0.
<mgrwt>
<rscale>  0 0.23382889E+04</rscale>
<asrwt>0</asrwt>
<pdfrwt beam="1">  1        2 0.19741016E+00 0.23382889E+04</pdfrwt>
<pdfrwt beam="2">  1       -2 0.16388536E+00 0.23382889E+04</pdfrwt>
<totfact> 0.36053769E+00</totfact>
</mgrwt>
</event>
<event>
 4    1  0.1308745E-008  0.3293471E+04  0.7816531E-02  0.8164559E-01
          1   -1    0    0  501    0  0.00000000000E+00  0.00000000000E+00  0.28121144535E+04  0.28121144535E+04  0.00000000000E+00 0.  1.
         -1   -1    0    0    0  501 -0.00000000000E+00 -0.00000000000E+00 -0.96430591890E+03  0.96430591890E+03  0.00000000000E+00 0. -1.
    2000013    1    1    2    0    0 -0.11981497261E+04  0.19447655777E+02  0.22333022358E+03  0.15454181849E+04  0.95000000000E+03 0.  0.
   -2000013    1    1    2    0    0  0.11981497261E+04 -0.19447655777E+02  0.16244783111E+04  0.22310021875E+04  0.95000000000E+03 0.  0.
<mgrwt>
<rscale>  0 0.32934715E+04</rscale>
<asrwt>0</asrwt>
<pdfrwt beam="1">  1        1 0.43263299E+00 0.32934715E+04</pdfrwt>
<pdfrwt beam="2">  1       -1 0.14835476E+00 0.32934715E+04</pdfrwt>
<totfact> 0.24358602E-01</totfact>
</mgrwt>
</event>
<event>
 4    1  0.1308745E-008  0.2843749E+04  0.7816531E-02  0.8289813E-01
         -1   -1    0    0    0  501 -0.00000000000E+00  0.00000000000E+00  0.11498536791E+04  0.11498536791E+04  0.00000000000E+00 0. -1.
          1   -1    0    0  501    0  0.00000000000E+00 -0.00000000000E+00 -0.17582470143E+04  0.17582470143E+04  0.00000000000E+00 0.  1.
    2000013    1    1    2    0    0 -0.63482704639E+03 -0.82337687421E+03 -0.50425583737E+03  0.14959040094E+04  0.95000000000E+03 0.  0.
   -2000013    1    1    2    0    0  0.63482704639E+03  0.82337687421E+03 -0.10413749782E+03  0.14121966840E+04  0.95000000000E+03 0.  0.
<mgrwt>
<rscale>  0 0.28437488E+04</rscale>
<asrwt>0</asrwt>
<pdfrwt beam="2">  1        1 0.27049954E+00 0.28437488E+04</pdfrwt>
<pdfrwt beam="1">  1       -1 0.17690057E+00 0.28437488E+04</pdfrwt>
<totfact> 0.82200104E-01</totfact>
</mgrwt>
</event>
<event>
 4    1  0.1308745E-008  0.4752869E+04  0.7816531E-02  0.7867803E-01
          2   -1    0    0  501    0  0.00000000000E+00  0.00000000000E+00  0.47834573090E+04  0.47834573090E+04  0.00000000000E+00 0. -1.
         -2   -1    0    0    0  501 -0.00000000000E+00 -0.00000000000E+00 -0.11806191669E+04  0.11806191669E+04  0.00000000000E+00 0.  1.
    2000013    1    1    2    0    0  0.55458609823E+03 -0.19774315697E+04  0.27124861216E+04  0.35324046078E+04  0.95000000000E+03 0.  0.
   -2000013    1    1    2    0    0 -0.55458609823E+03  0.19774315697E+04  0.89035202048E+03  0.24316718680E+04  0.95000000000E+03 0.  0.
<mgrwt>
<rscale>  0 0.47528692E+04</rscale>
<asrwt>0</asrwt>
<pdfrwt beam="1">  1        2 0.73591650E+00 0.47528692E+04</pdfrwt>
<pdfrwt beam="2">  1       -2 0.18163372E+00 0.47528692E+04</pdfrwt>
<totfact> 0.80459260E-03</totfact>
</mgrwt>
</event>
<event>
 4    1  0.1308745E-008  0.3160232E+04  0.7816531E-02  0.8199399E-01
         -2   -1    0    0    0  501 -0.00000000000E+00  0.00000000000E+00  0.15285318347E+04  0.15285318347E+04  0.00000000000E+00 0. -1.
          2   -1    0    0  501    0  0.00000000000E+00 -0.00000000000E+00 -0.16334411588E+04  0.16334411588E+04  0.00000000000E+00 0.  1.
    2000013    1    1    2    0    0  0.10633047217E+04 -0.68082025573E+03 -0.64022160971E+02  0.15813702883E+04  0.95000000000E+03 0.  0.
   -2000013    1    1    2    0    0 -0.10633047217E+04  0.68082025573E+03 -0.40887163117E+02  0.15806027052E+04  0.95000000000E+03 0.  0.
<mgrwt>
<rscale>  0 0.31602322E+04</rscale>
<asrwt>0</asrwt>
<pdfrwt beam="2">  1        2 0.25129864E+00 0.31602322E+04</pdfrwt>
<pdfrwt beam="1">  1       -2 0.23515874E+00 0.31602322E+04</pdfrwt>
<totfact> 0.71644261E-01</totfact>
</mgrwt>
</event>
<event>
 4    1  0.1308745E-008  0.3196804E+04  0.7816531E-02  0.8189662E-01
          2   -1    0    0  501    0  0.00000000000E+00  0.00000000000E+00  0.20637690618E+04  0.20637690618E+04  0.00000000000E+00 0.  1.
         -2   -1    0    0    0  501 -0.00000000000E+00 -0.00000000000E+00 -0.12379719289E+04  0.12379719289E+04  0.00000000000E+00 0. -1.
    2000013    1    1    2    0    0  0.41173078617E+03 -0.84033439584E+03  0.13231363050E+04  0.18785296960E+04  0.95000000000E+03 0.  0.
   -2000013    1    1    2    0    0 -0.41173078617E+03  0.84033439584E+03 -0.49733917211E+03  0.14232112947E+04  0.95000000000E+03 0.  0.
<mgrwt>
<rscale>  0 0.31968035E+04</rscale>
<asrwt>0</asrwt>
<pdfrwt beam="1">  1        2 0.31750293E+00 0.31968035E+04</pdfrwt>
<pdfrwt beam="2">  1       -2 0.19045722E+00 0.31968035E+04</pdfrwt>
<totfact> 0.79810981E-01</totfact>
</mgrwt>
</event>
<event>
 4    1  0.1308745E-008  0.2699871E+04  0.7816531E-02  0.8335047E-01
          2   -1    0    0  501    0  0.00000000000E+00  0.00000000000E+00  0.14573617651E+04  0.14573617651E+04  0.00000000000E+00 0.  1.
         -2   -1    0    0    0  501 -0.00000000000E+00 -0.00000000000E+00 -0.12504279106E+04  0.12504279106E+04  0.00000000000E+00 0. -1.
    2000013    1    1    2    0    0  0.46500371671E+03  0.77484348859E+03  0.42568002958E+03  0.13785189066E+04  0.95000000000E+03 0.  0.
   -2000013    1    1    2    0    0 -0.46500371671E+03 -0.77484348859E+03 -0.21874617508E+03  0.13292707691E+04  0.95000000000E+03 0.  0.
<mgrwt>
<rscale>  0 0.26998710E+04</rscale>
<asrwt>0</asrwt>
<pdfrwt beam="1">  1        2 0.22420950E+00 0.26998710E+04</pdfrwt>
<pdfrwt beam="2">  1       -2 0.19237352E+00 0.26998710E+04</pdfrwt>
<totfact> 0.17595015E+00</totfact>
</mgrwt>
</event>
<event>
 4    1  0.1308745E-008  0.2379946E+04  0.7816531E-02  0.8447050E-01
          2   -1    0    0  501    0  0.00000000000E+00  0.00000000000E+00  0.11609004263E+04  0.11609004263E+04  0.00000000000E+00 0.  1.
         -2   -1    0    0    0  501 -0.00000000000E+00 -0.00000000000E+00 -0.12197734329E+04  0.12197734329E+04  0.00000000000E+00 0. -1.
    2000013    1    1    2    0    0 -0.67190311338E+02  0.71191788551E+03  0.17416746937E+02  0.11891782695E+04  0.95000000000E+03 0.  0.
   -2000013    1    1    2    0    0  0.67190311338E+02 -0.71191788551E+03 -0.76289753575E+02  0.11914955896E+04  0.95000000000E+03 0.  0.
<mgrwt>
<rscale>  0 0.23799458E+04</rscale>
<asrwt>0</asrwt>
<pdfrwt beam="1">  1        2 0.17860007E+00 0.23799458E+04</pdfrwt>
<pdfrwt beam="2">  1       -2 0.18765745E+00 0.23799458E+04</pdfrwt>
<totfact> 0.28947955E+00</totfact>
</mgrwt>
</event>
<event>
 4    1  0.1308745E-008  0.3913666E+04  0.7816531E-02  0.8022193E-01
         -2   -1    0    0    0  501 -0.00000000000E+00  0.00000000000E+00  0.95050708145E+03  0.95050708145E+03  0.00000000000E+00 0. -1.
          2   -1    0    0  501    0  0.00000000000E+00 -0.00000000000E+00 -0.40285819588E+04  0.40285819588E+04  0.00000000000E+00 0.  1.
    2000013    1    1    2    0    0 -0.55365718430E+03  0.16084502771E+04 -0.17703146546E+04  0.26325201894E+04  0.95000000000E+03 0.  0.
   -2000013    1    1    2    0    0  0.55365718430E+03 -0.16084502771E+04 -0.13077602228E+04  0.23465688508E+04  0.95000000000E+03 0.  0.
<mgrwt>
<rscale>  0 0.39136661E+04</rscale>
<asrwt>0</asrwt>
<pdfrwt beam="2">  1        2 0.61978184E+00 0.39136661E+04</pdfrwt>
<pdfrwt beam="1">  1       -2 0.14623186E+00 0.39136661E+04</pdfrwt>
<totfact> 0.82246208E-02</totfact>
</mgrwt>
</event>
<event>
 4    1  0.1308745E-008  0.3424026E+04  0.7816531E-02  0.8132035E-01
         -2   -1    0    0    0  501 -0.00000000000E+00  0.00000000000E+00  0.22203171450E+04  0.22203171450E+04  0.00000000000E+00 0. -1.
          2   -1    0    0  501    0  0.00000000000E+00 -0.00000000000E+00 -0.13200767478E+04  0.13200767478E+04  0.00000000000E+00 0.  1.
    2000013    1    1    2    0    0 -0.71717269387E+03 -0.12294384888E+04  0.50318054256E+03  0.17836889664E+04  0.95000000000E+03 0.  0.
   -2000013    1    1    2    0    0  0.71717269387E+03  0.12294384888E+04  0.39705985463E+03  0.17567049265E+04  0.95000000000E+03 0.  0.
<mgrwt>
<rscale>  0 0.34240263E+04</rscale>
<asrwt>0</asrwt>
<pdfrwt beam="2">  1        2 0.20308873E+00 0.34240263E+04</pdfrwt>
<pdfrwt beam="1">  1       -2 0.34158725E+00 0.34240263E+04</pdfrwt>
<totfact> 0.23373644E-01</totfact>
</mgrwt>
</event>
<event>
 4    1  0.1308745E-008  0.2141986E+04  0.7816531E-02  0.8542971E-01
         -2   -1    0    0    0  501 -0.00000000000E+00  0.00000000000E+00  0.37953239894E+03  0.37953239894E+03  0.00000000000E+00 0. -1.
          2   -1    0    0  501    0  0.00000000000E+00 -0.00000000000E+00 -0.30222077418E+04  0.30222077418E+04  0.00000000000E+00 0.  1.
    2000013    1    1    2    0    0 -0.23067232452E+03  0.43499845946E+03 -0.12486929370E+04  0.16444352927E+04  0.95000000000E+03 0.  0.
   -2000013    1    1    2    0    0  0.23067232452E+03 -0.43499845946E+03 -0.13939824059E+04  0.17573048481E+04  0.95000000000E+03 0.  0.
<mgrwt>
<rscale>  0 0.21419858E+04</rscale>
<asrwt>0</asrwt>
<pdfrwt beam="2">  1        2 0.46495502E+00 0.21419858E+04</pdfrwt>
<pdfrwt beam="1">  1       -2 0.58389601E-01 0.21419858E+04</pdfrwt>
<totfact> 0.42545352E+00</totfact>
</mgrwt>
</event>
<event>
 4    1  0.1308745E-008  0.2541091E+04  0.7816531E-02  0.8388491E-01
         -1   -1    0    0    0  501 -0.00000000000E+00  0.00000000000E+00  0.65402634821E+03  0.65402634821E+03  0.00000000000E+00 0. -1.
          1   -1    0    0  501    0  0.00000000000E+00 -0.00000000000E+00 -0.24682266989E+04  0.24682266989E+04  0.00000000000E+00 0.  1.
    2000013    1    1    2    0    0  0.65581673945E+03 -0.52663886899E+03 -0.98805688956E+03  0.16081668169E+04  0.95000000000E+03 0.  0.
   -2000013    1    1    2    0    0 -0.65581673945E+03  0.52663886899E+03 -0.82614346116E+03  0.15140862302E+04  0.95000000000E+03 0.  0.
<mgrwt>
<rscale>  0 0.25410905E+04</rscale>
<asrwt>0</asrwt>
<pdfrwt beam="2">  1        1 0.37972719E+00 0.25410905E+04</pdfrwt>
<pdfrwt beam="1">  1       -1 0.10061944E+00 0.25410905E+04</pdfrwt>
<totfact> 0.11852103E+00</totfact>
</mgrwt>
</event>
<event>
 4    1  0.1308745E-008  0.3002229E+04  0.7816531E-02  0.8243095E-01
          2   -1    0    0  501    0  0.00000000000E+00  0.00000000000E+00  0.17859772507E+04  0.17859772507E+04  0.00000000000E+00 0.  1.
         -2   -1    0    0    0  501 -0.00000000000E+00 -0.00000000000E+00 -0.12616871095E+04  0.12616871095E+04  0.00000000000E+00 0. -1.
    2000013    1    1    2    0    0 -0.62928647409E+02  0.10491519639E+04 -0.24151342147E+03  0.14371877368E+04  0.95000000000E+03 0.  0.
   -2000013    1    1    2    0    0  0.62928647409E+02 -0.10491519639E+04  0.76580356262E+03  0.16104766234E+04  0.95000000000E+03 0.  0.
<mgrwt>
<rscale>  0 0.30022288E+04</rscale>
<asrwt>0</asrwt>
<pdfrwt beam="1">  1        2 0.27476573E+00 0.30022288E+04</pdfrwt>
<pdfrwt beam="2">  1       -2 0.19410571E+00 0.30022288E+04</pdfrwt>
<totfact> 0.10940883E+00</totfact>
</mgrwt>
</event>
<event>
 4    1  0.1308745E-008  0.2667991E+04  0.7816531E-02  0.8345466E-01
         -2   -1    0    0    0  501 -0.00000000000E+00  0.00000000000E+00  0.23462897771E+04  0.23462897771E+04  0.00000000000E+00 0.  1.
          2   -1    0    0  501    0  0.00000000000E+00 -0.00000000000E+00 -0.75845031197E+03  0.75845031197E+03  0.00000000000E+00 0. -1.
    2000013    1    1    2    0    0 -0.21374411612E+03 -0.91166871514E+03  0.81109445942E+03  0.15611536169E+04  0.95000000000E+03 0.  0.
   -2000013    1    1    2    0    0  0.21374411612E+03  0.91166871514E+03  0.77674500575E+03  0.15435864722E+04  0.95000000000E+03 0.  0.
<mgrwt>
<rscale>  0 0.26679912E+04</rscale>
<asrwt>0</asrwt>
<pdfrwt beam="2">  1        2 0.11668466E+00 0.26679912E+04</pdfrwt>
<pdfrwt beam="1">  1       -2 0.36096766E+00 0.26679912E+04</pdfrwt>
<totfact> 0.43104461E-01</totfact>
</mgrwt>
</event>
<event>
 4    1  0.1308745E-008  0.2811196E+04  0.7816531E-02  0.8299801E-01
         -2   -1    0    0    0  501 -0.00000000000E+00  0.00000000000E+00  0.11070478700E+04  0.11070478700E+04  0.00000000000E+00 0. -1.
          2   -1    0    0  501    0  0.00000000000E+00 -0.00000000000E+00 -0.17846611651E+04  0.17846611651E+04  0.00000000000E+00 0.  1.
    2000013    1    1    2    0    0 -0.54297043604E+03  0.50037625998E+01  0.56871023958E+03  0.12331963626E+04  0.95000000000E+03 0.  0.
   -2000013    1    1    2    0    0  0.54297043604E+03 -0.50037625998E+01 -0.12463235346E+04  0.16585126726E+04  0.95000000000E+03 0.  0.
<mgrwt>
<rscale>  0 0.28111957E+04</rscale>
<asrwt>0</asrwt>
<pdfrwt beam="2">  1        2 0.27456326E+00 0.28111957E+04</pdfrwt>
<pdfrwt beam="1">  1       -2 0.17031506E+00 0.28111957E+04</pdfrwt>
<totfact> 0.16223298E+00</totfact>
</mgrwt>
</event>
<event>
 4    1  0.1308745E-008  0.3137380E+04  0.7816531E-02  0.8205553E-01
         -1   -1    0    0    0  501 -0.00000000000E+00  0.00000000000E+00  0.12689447094E+04  0.12689447094E+04  0.00000000000E+00 0. -1.
          1   -1    0    0  501    0  0.00000000000E+00 -0.00000000000E+00 -0.19392405727E+04  0.19392405727E+04  0.00000000000E+00 0.  1.
    2000013    1    1    2    0    0 -0.32121204444E+03  0.97223958605E+03  0.39501302545E+03  0.14515379018E+04  0.95000000000E+03 0.  0.
   -2000013    1    1    2    0    0  0.32121204444E+03 -0.97223958605E+03 -0.10653088888E+04  0.17566473803E+04  0.95000000000E+03 0.  0.
<mgrwt>
<rscale>  0 0.31373805E+04</rscale>
<asrwt>0</asrwt>
<pdfrwt beam="2">  1        1 0.29834470E+00 0.31373805E+04</pdfrwt>
<pdfrwt beam="1">  1       -1 0.19522226E+00 0.31373805E+04</pdfrwt>
<totfact> 0.44774101E-01</totfact>
</mgrwt>
</event>
<event>
 4    1  0.1308745E-008  0.2088028E+04  0.7816531E-02  0.8566536E-01
         -2   -1    0    0    0  501 -0.00000000000E+00  0.00000000000E+00  0.35737041871E+03  0.35737041871E+03  0.00000000000E+00 0. -1.
          2   -1    0    0  501    0  0.00000000000E+00 -0.00000000000E+00 -0.30499591730E+04  0.30499591730E+04  0.00000000000E+00 0.  1.
    2000013    1    1    2    0    0 -0.33417126593E+03  0.17183700173E+03 -0.16972987698E+04  0.19810405104E+04  0.95000000000E+03 0.  0.
   -2000013    1    1    2    0    0  0.33417126593E+03 -0.17183700173E+03 -0.99528998457E+03  0.14262890813E+04  0.95000000000E+03 0.  0.
<mgrwt>
<rscale>  0 0.20880280E+04</rscale>
<asrwt>0</asrwt>
<pdfrwt beam="2">  1        2 0.46922449E+00 0.20880280E+04</pdfrwt>
<pdfrwt beam="1">  1       -2 0.54980064E-01 0.20880280E+04</pdfrwt>
<totfact> 0.46573032E+00</totfact>
</mgrwt>
</event>
<event>
 4    1  0.1308745E-008  0.2383339E+04  0.7816531E-02  0.8445768E-01
         -2   -1    0    0    0  501 -0.00000000000E+00  0.00000000000E+00  0.98457854000E+03  0.98457854000E+03  0.00000000000E+00 0. -1.
          2   -1    0    0  501    0  0.00000000000E+00 -0.00000000000E+00 -0.14423188574E+04  0.14423188574E+04  0.00000000000E+00 0.  1.
    2000013    1    1    2    0    0  0.69951781383E+03  0.14488342130E+03 -0.14210838144E+03  0.11970844455E+04  0.95000000000E+03 0.  0.
   -2000013    1    1    2    0    0 -0.69951781383E+03 -0.14488342130E+03 -0.31563193597E+03  0.12298129519E+04  0.95000000000E+03 0.  0.
<mgrwt>
<rscale>  0 0.23833390E+04</rscale>
<asrwt>0</asrwt>
<pdfrwt beam="2">  1        2 0.22189521E+00 0.23833390E+04</pdfrwt>
<pdfrwt beam="1">  1       -2 0.15147362E+00 0.23833390E+04</pdfrwt>
<totfact> 0.35985916E+00</totfact>
</mgrwt>
</event>
<event>
 4    1  0.1308745E-008  0.2168865E+04  0.7816531E-02  0.8531500E-01
          2   -1    0    0  501    0  0.00000000000E+00  0.00000000000E+00  0.11934481460E+04  0.11934481460E+04  0.00000000000E+00 0.  1.
         -2   -1    0    0    0  501 -0.00000000000E+00 -0.00000000000E+00 -0.98537478450E+03  0.98537478450E+03  0.00000000000E+00 0. -1.
    2000013    1    1    2    0    0  0.58430233024E+02  0.48588784791E+03  0.28925406288E+03  0.11070993658E+04  0.95000000000E+03 0.  0.
   -2000013    1    1    2    0    0 -0.58430233024E+02 -0.48588784791E+03 -0.81180701358E+02  0.10717235647E+04  0.95000000000E+03 0.  0.
<mgrwt>
<rscale>  0 0.21688649E+04</rscale>
<asrwt>0</asrwt>
<pdfrwt beam="1">  1        2 0.18360741E+00 0.21688649E+04</pdfrwt>
<pdfrwt beam="2">  1       -2 0.15159612E+00 0.21688649E+04</pdfrwt>
<totfact> 0.51024616E+00</totfact>
</mgrwt>
</event>
<event>
 4    1  0.1308745E-008  0.2946936E+04  0.7816531E-02  0.8259048E-01
          2   -1    0    0  501    0  0.00000000000E+00  0.00000000000E+00  0.24114412818E+04  0.24114412818E+04  0.00000000000E+00 0.  1.
         -2   -1    0    0    0  501 -0.00000000000E+00 -0.00000000000E+00 -0.90033630331E+03  0.90033630331E+03  0.00000000000E+00 0. -1.
    2000013    1    1    2    0    0 -0.88304497425E+03 -0.21955462895E+03  0.15015376109E+04  0.19962684836E+04  0.95000000000E+03 0.  0.
   -2000013    1    1    2    0    0  0.88304497425E+03  0.21955462895E+03  0.95673675907E+01  0.13155091015E+04  0.95000000000E+03 0.  0.
<mgrwt>
<rscale>  0 0.29469361E+04</rscale>
<asrwt>0</asrwt>
<pdfrwt beam="1">  1        2 0.37099096E+00 0.29469361E+04</pdfrwt>
<pdfrwt beam="2">  1       -2 0.13851328E+00 0.29469361E+04</pdfrwt>
<totfact> 0.12429708E+00</totfact>
</mgrwt>
</event>
<event>
 4    1  0.1308745E-008  0.2862208E+04  0.7816531E-02  0.8284211E-01
         -2   -1    0    0    0  501 -0.00000000000E+00  0.00000000000E+00  0.11822826024E+04  0.11822826024E+04  0.00000000000E+00 0. -1.
          2   -1    0    0  501    0  0.00000000000E+00 -0.00000000000E+00 -0.17322916416E+04  0.17322916416E+04  0.00000000000E+00 0.  1.
    2000013    1    1    2    0    0 -0.97720672270E+03 -0.41366694333E+03 -0.13278919166E+03  0.14304496805E+04  0.95000000000E+03 0.  0.
   -2000013    1    1    2    0    0  0.97720672270E+03  0.41366694333E+03 -0.41721984754E+03  0.14841245635E+04  0.95000000000E+03 0.  0.
<mgrwt>
<rscale>  0 0.28622077E+04</rscale>
<asrwt>0</asrwt>
<pdfrwt beam="2">  1        2 0.26650641E+00 0.28622077E+04</pdfrwt>
<pdfrwt beam="1">  1       -2 0.18188963E+00 0.28622077E+04</pdfrwt>
<totfact> 0.14336676E+00</totfact>
</mgrwt>
</event>
<event>
 4    1  0.1308745E-008  0.2379887E+04  0.7816531E-02  0.8447072E-01
         -1   -1    0    0    0  501 -0.00000000000E+00  0.00000000000E+00  0.12325305429E+04  0.12325305429E+04  0.00000000000E+00 0. -1.
          1   -1    0    0  501    0  0.00000000000E+00 -0.00000000000E+00 -0.11488280713E+04  0.11488280713E+04  0.00000000000E+00 0.  1.
    2000013    1    1    2    0    0 -0.46093837039E+03 -0.52580686668E+03  0.19856430350E+03  0.11961876211E+04  0.95000000000E+03 0.  0.
   -2000013    1    1    2    0    0  0.46093837039E+03  0.52580686668E+03 -0.11486183189E+03  0.11851709931E+04  0.95000000000E+03 0.  0.
<mgrwt>
<rscale>  0 0.23798871E+04</rscale>
<asrwt>0</asrwt>
<pdfrwt beam="2">  1        1 0.17674278E+00 0.23798871E+04</pdfrwt>
<pdfrwt beam="1">  1       -1 0.18962008E+00 0.23798871E+04</pdfrwt>
<totfact> 0.18602645E+00</totfact>
</mgrwt>
</event>
<event>
 4    1  0.1308745E-008  0.2746719E+04  0.7816531E-02  0.8320004E-01
         -1   -1    0    0    0  501 -0.00000000000E+00  0.00000000000E+00  0.10824752577E+04  0.10824752577E+04  0.00000000000E+00 0. -1.
          1   -1    0    0  501    0  0.00000000000E+00 -0.00000000000E+00 -0.17424101238E+04  0.17424101238E+04  0.00000000000E+00 0.  1.
    2000013    1    1    2    0    0 -0.77392346527E+03  0.45378265617E+03  0.10484010740E+03  0.13108652399E+04  0.95000000000E+03 0.  0.
   -2000013    1    1    2    0    0  0.77392346527E+03 -0.45378265617E+03 -0.76477497345E+03  0.15140201416E+04  0.95000000000E+03 0.  0.
<mgrwt>
<rscale>  0 0.27467187E+04</rscale>
<asrwt>0</asrwt>
<pdfrwt beam="2">  1        1 0.26806309E+00 0.27467187E+04</pdfrwt>
<pdfrwt beam="1">  1       -1 0.16653466E+00 0.27467187E+04</pdfrwt>
<totfact> 0.10122016E+00</totfact>
</mgrwt>
</event>
<event>
 4    1  0.1308745E-008  0.2710363E+04  0.7816531E-02  0.8331650E-01
          2   -1    0    0  501    0  0.00000000000E+00  0.00000000000E+00  0.28000504314E+04  0.28000504314E+04  0.00000000000E+00 0.  1.
         -2   -1    0    0    0  501 -0.00000000000E+00 -0.00000000000E+00 -0.65588720814E+03  0.65588720814E+03  0.00000000000E+00 0. -1.
    2000013    1    1    2    0    0 -0.39501341434E+03  0.85915494705E+03  0.81759335293E+03  0.15700769762E+04  0.95000000000E+03 0.  0.
   -2000013    1    1    2    0    0  0.39501341434E+03 -0.85915494705E+03  0.13265698703E+04  0.18858606633E+04  0.95000000000E+03 0.  0.
<mgrwt>
<rscale>  0 0.27103633E+04</rscale>
<asrwt>0</asrwt>
<pdfrwt beam="1">  1        2 0.43077698E+00 0.27103633E+04</pdfrwt>
<pdfrwt beam="2">  1       -2 0.10090573E+00 0.27103633E+04</pdfrwt>
<totfact> 0.16381136E+00</totfact>
</mgrwt>
</event>
<event>
 4    1  0.1308745E-008  0.5167935E+04  0.7816531E-02  0.7803111E-01
          2   -1    0    0  501    0  0.00000000000E+00  0.00000000000E+00  0.22890911366E+04  0.22890911366E+04  0.00000000000E+00 0.  1.
         -2   -1    0    0    0  501 -0.00000000000E+00 -0.00000000000E+00 -0.29168298036E+04  0.29168298036E+04  0.00000000000E+00 0. -1.
    2000013    1    1    2    0    0 -0.97260009196E+03  0.20329739116E+04 -0.11539386529E+04  0.27042574358E+04  0.95000000000E+03 0.  0.
   -2000013    1    1    2    0    0  0.97260009196E+03 -0.20329739116E+04  0.52619998586E+03  0.25016635044E+04  0.95000000000E+03 0.  0.
<mgrwt>
<rscale>  0 0.51679355E+04</rscale>
<asrwt>0</asrwt>
<pdfrwt beam="1">  1        2 0.35216787E+00 0.51679355E+04</pdfrwt>
<pdfrwt beam="2">  1       -2 0.44874305E+00 0.51679355E+04</pdfrwt>
<totfact> 0.11724856E-02</totfact>
</mgrwt>
</event>
<event>
 4    1  0.1308745E-008  0.2587120E+04  0.7816531E-02  0.8372590E-01
          1   -1    0    0  501    0  0.00000000000E+00  0.00000000000E+00  0.28160451399E+04  0.28160451399E+04  0.00000000000E+00 0.  1.
         -1   -1    0    0    0  501 -0.00000000000E+00 -0.00000000000E+00 -0.59420105292E+03  0.59420105292E+03  0.00000000000E+00 0. -1.
    2000013    1    1    2    0    0 -0.45660800197E+03 -0.68190019398E+03  0.69970949675E+03  0.14372098392E+04  0.95000000000E+03 0.  0.
   -2000013    1    1    2    0    0  0.45660800197E+03  0.68190019398E+03  0.15221345902E+04  0.19730363536E+04  0.95000000000E+03 0.  0.
<mgrwt>
<rscale>  0 0.25871196E+04</rscale>
<asrwt>0</asrwt>
<pdfrwt beam="1">  1        1 0.43323771E+00 0.25871196E+04</pdfrwt>
<pdfrwt beam="2">  1       -1 0.91415548E-01 0.25871196E+04</pdfrwt>
<totfact> 0.83484012E-01</totfact>
</mgrwt>
</event>
<event>
 4    1  0.1308745E-008  0.2837070E+04  0.7816531E-02  0.8291851E-01
          2   -1    0    0  501    0  0.00000000000E+00  0.00000000000E+00  0.16817559180E+04  0.16817559180E+04  0.00000000000E+00 0.  1.
         -2   -1    0    0    0  501 -0.00000000000E+00 -0.00000000000E+00 -0.11965125541E+04  0.11965125541E+04  0.00000000000E+00 0. -1.
    2000013    1    1    2    0    0 -0.60882407976E+03  0.50384632084E+03 -0.46406668297E+03  0.13199946066E+04  0.95000000000E+03 0.  0.
   -2000013    1    1    2    0    0  0.60882407976E+03 -0.50384632084E+03  0.94931004686E+03  0.15582738656E+04  0.95000000000E+03 0.  0.
<mgrwt>
<rscale>  0 0.28370704E+04</rscale>
<asrwt>0</asrwt>
<pdfrwt beam="1">  1        2 0.25873168E+00 0.28370704E+04</pdfrwt>
<pdfrwt beam="2">  1       -2 0.18407885E+00 0.28370704E+04</pdfrwt>
<totfact> 0.14807023E+00</totfact>
</mgrwt>
</event>
<event>
 4    1  0.1308745E-008  0.2993240E+04  0.7816531E-02  0.8245664E-01
         -3   -1    0    0    0  501 -0.00000000000E+00  0.00000000000E+00  0.26999707764E+04  0.26999707764E+04  0.00000000000E+00 0. -1.
          3   -1    0    0  501    0  0.00000000000E+00 -0.00000000000E+00 -0.82959073641E+03  0.82959073641E+03  0.00000000000E+00 0.  1.
    2000013    1    1    2    0    0 -0.11113031499E+04  0.20928268221E+03  0.64979778739E+03  0.16135461247E+04  0.95000000000E+03 0.  0.
   -2000013    1    1    2    0    0  0.11113031499E+04 -0.20928268221E+03  0.12205822526E+04  0.19160153881E+04  0.95000000000E+03 0.  0.
<mgrwt>
<rscale>  0 0.29932395E+04</rscale>
<asrwt>0</asrwt>
<pdfrwt beam="2">  1        3 0.12762935E+00 0.29932395E+04</pdfrwt>
<pdfrwt beam="1">  1       -3 0.41538012E+00 0.29932395E+04</pdfrwt>
<totfact> 0.94165691E-03</totfact>
</mgrwt>
</event>
<event>
 4    1  0.1308745E-008  0.3381181E+04  0.7816531E-02  0.8142541E-01
          2   -1    0    0  501    0  0.00000000000E+00  0.00000000000E+00  0.26765452172E+04  0.26765452172E+04  0.00000000000E+00 0.  1.
         -2   -1    0    0    0  501 -0.00000000000E+00 -0.00000000000E+00 -0.10678302532E+04  0.10678302532E+04  0.00000000000E+00 0. -1.
    2000013    1    1    2    0    0  0.63438251143E+03  0.62460476148E+03  0.19986350399E+04  0.23852912404E+04  0.95000000000E+03 0.  0.
   -2000013    1    1    2    0    0 -0.63438251143E+03 -0.62460476148E+03 -0.38992007587E+03  0.13590842301E+04  0.95000000000E+03 0.  0.
<mgrwt>
<rscale>  0 0.33811808E+04</rscale>
<asrwt>0</asrwt>
<pdfrwt beam="1">  1        2 0.41177618E+00 0.33811808E+04</pdfrwt>
<pdfrwt beam="2">  1       -2 0.16428158E+00 0.33811808E+04</pdfrwt>
<totfact> 0.53296518E-01</totfact>
</mgrwt>
</event>
<event>
 4    1  0.1308745E-008  0.2795888E+04  0.7816531E-02  0.8304546E-01
          2   -1    0    0  501    0  0.00000000000E+00  0.00000000000E+00  0.16631571830E+04  0.16631571830E+04  0.00000000000E+00 0.  1.
         -2   -1    0    0    0  501 -0.00000000000E+00 -0.00000000000E+00 -0.11750228489E+04  0.11750228489E+04  0.00000000000E+00 0. -1.
    2000013    1    1    2    0    0 -0.31604083493E+03 -0.90177487132E+03  0.62208144997E+03  0.14841041265E+04  0.95000000000E+03 0.  0.
   -2000013    1    1    2    0    0  0.31604083493E+03  0.90177487132E+03 -0.13394711585E+03  0.13540759055E+04  0.95000000000E+03 0.  0.
<mgrwt>
<rscale>  0 0.27958882E+04</rscale>
<asrwt>0</asrwt>
<pdfrwt beam="1">  1        2 0.25587034E+00 0.27958882E+04</pdfrwt>
<pdfrwt beam="2">  1       -2 0.18077274E+00 0.27958882E+04</pdfrwt>
<totfact> 0.16032268E+00</totfact>
</mgrwt>
</event>
<event>
 4    1  0.1308745E-008  0.3130033E+04  0.7816531E-02  0.8207544E-01
         -1   -1    0    0    0  501 -0.00000000000E+00  0.00000000000E+00  0.12073870019E+04  0.12073870019E+04  0.00000000000E+00 0. -1.
          1   -1    0    0  501    0  0.00000000000E+00 -0.00000000000E+00 -0.20285760516E+04  0.20285760516E+04  0.00000000000E+00 0.  1.
    2000013    1    1    2    0    0  0.54008069666E+03  0.11061422850E+04 -0.59419541928E+03  0.16645738523E+04  0.95000000000E+03 0.  0.
   -2000013    1    1    2    0    0 -0.54008069666E+03 -0.11061422850E+04 -0.22699363045E+03  0.15713892012E+04  0.95000000000E+03 0.  0.
<mgrwt>
<rscale>  0 0.31300328E+04</rscale>
<asrwt>0</asrwt>
<pdfrwt beam="2">  1        1 0.31208862E+00 0.31300328E+04</pdfrwt>
<pdfrwt beam="1">  1       -1 0.18575185E+00 0.31300328E+04</pdfrwt>
<totfact> 0.45412488E-01</totfact>
</mgrwt>
</event>
<event>
 4    1  0.1308745E-008  0.2551974E+04  0.7816531E-02  0.8384700E-01
         -2   -1    0    0    0  501 -0.00000000000E+00  0.00000000000E+00  0.59447347270E+03  0.59447347270E+03  0.00000000000E+00 0. -1.
          2   -1    0    0  501    0  0.00000000000E+00 -0.00000000000E+00 -0.27387989410E+04  0.27387989410E+04  0.00000000000E+00 0.  1.
    2000013    1    1    2    0    0  0.27352765384E+03 -0.80670599825E+03 -0.10815245426E+04  0.16726587462E+04  0.95000000000E+03 0.  0.
   -2000013    1    1    2    0    0 -0.27352765384E+03  0.80670599825E+03 -0.10628009257E+04  0.16606136675E+04  0.95000000000E+03 0.  0.
<mgrwt>
<rscale>  0 0.25519744E+04</rscale>
<asrwt>0</asrwt>
<pdfrwt beam="2">  1        2 0.42135367E+00 0.25519744E+04</pdfrwt>
<pdfrwt beam="1">  1       -2 0.91457459E-01 0.25519744E+04</pdfrwt>
<totfact> 0.22760388E+00</totfact>
</mgrwt>
</event>
<event>
 4    1  0.1308745E-008  0.2015681E+04  0.7816531E-02  0.8599324E-01
          2   -1    0    0  501    0  0.00000000000E+00  0.00000000000E+00  0.12687843828E+04  0.12687843828E+04  0.00000000000E+00 0.  1.
         -2   -1    0    0    0  501 -0.00000000000E+00 -0.00000000000E+00 -0.80056339449E+03  0.80056339449E+03  0.00000000000E+00 0. -1.
    2000013    1    1    2    0    0  0.25403558895E+02 -0.27394280024E+03  0.35166799584E+02  0.98965989229E+03  0.95000000000E+03 0.  0.
   -2000013    1    1    2    0    0 -0.25403558895E+02  0.27394280024E+03  0.43305418869E+03  0.10796878850E+04  0.95000000000E+03 0.  0.
<mgrwt>
<rscale>  0 0.20156809E+04</rscale>
<asrwt>0</asrwt>
<pdfrwt beam="1">  1        2 0.19519760E+00 0.20156809E+04</pdfrwt>
<pdfrwt beam="2">  1       -2 0.12316360E+00 0.20156809E+04</pdfrwt>
<totfact> 0.79626814E+00</totfact>
</mgrwt>
</event>
<event>
 4    1  0.1308745E-008  0.2758165E+04  0.7816531E-02  0.8316375E-01
          2   -1    0    0  501    0  0.00000000000E+00  0.00000000000E+00  0.19483156524E+04  0.19483156524E+04  0.00000000000E+00 0.  1.
         -2   -1    0    0    0  501 -0.00000000000E+00 -0.00000000000E+00 -0.97616067304E+03  0.97616067304E+03  0.00000000000E+00 0. -1.
    2000013    1    1    2    0    0  0.57078300989E+03 -0.81948037541E+03  0.43833125527E+03  0.14463663503E+04  0.95000000000E+03 0.  0.
   -2000013    1    1    2    0    0 -0.57078300989E+03  0.81948037541E+03  0.53382372408E+03  0.14781099751E+04  0.95000000000E+03 0.  0.
<mgrwt>
<rscale>  0 0.27581654E+04</rscale>
<asrwt>0</asrwt>
<pdfrwt beam="1">  1        2 0.29974087E+00 0.27581654E+04</pdfrwt>
<pdfrwt beam="2">  1       -2 0.15017857E+00 0.27581654E+04</pdfrwt>
<totfact> 0.18617425E+00</totfact>
</mgrwt>
</event>
<event>
 4    1  0.1308745E-008  0.2905039E+04  0.7816531E-02  0.8271380E-01
          2   -1    0    0  501    0  0.00000000000E+00  0.00000000000E+00  0.21481165052E+04  0.21481165052E+04  0.00000000000E+00 0.  1.
         -2   -1    0    0    0  501 -0.00000000000E+00 -0.00000000000E+00 -0.98216870762E+03  0.98216870762E+03  0.00000000000E+00 0. -1.
    2000013    1    1    2    0    0 -0.93068608936E+03 -0.20046204363E+03  0.11740997868E+04  0.17853212420E+04  0.95000000000E+03 0.  0.
   -2000013    1    1    2    0    0  0.93068608936E+03  0.20046204363E+03 -0.81519892170E+01  0.13449639708E+04  0.95000000000E+03 0.  0.
<mgrwt>
<rscale>  0 0.29050389E+04</rscale>
<asrwt>0</asrwt>
<pdfrwt beam="1">  1        2 0.33047946E+00 0.29050389E+04</pdfrwt>
<pdfrwt beam="2">  1       -2 0.15110288E+00 0.29050389E+04</pdfrwt>
<totfact> 0.13999229E+00</totfact>
</mgrwt>
</event>
<event>
 4    1  0.1308745E-008  0.2391369E+04  0.7816531E-02  0.8442742E-01
         -2   -1    0    0    0  501 -0.00000000000E+00  0.00000000000E+00  0.97048041366E+03  0.97048041366E+03  0.00000000000E+00 0. -1.
          2   -1    0    0  501    0  0.00000000000E+00 -0.00000000000E+00 -0.14731486421E+04  0.14731486421E+04  0.00000000000E+00 0.  1.
    2000013    1    1    2    0    0  0.70283450689E+02 -0.60248092709E+03  0.15643390317E+03  0.11379343553E+04  0.95000000000E+03 0.  0.
   -2000013    1    1    2    0    0 -0.70283450689E+02  0.60248092709E+03 -0.65910213166E+03  0.13056947005E+04  0.95000000000E+03 0.  0.
<mgrwt>
<rscale>  0 0.23913694E+04</rscale>
<asrwt>0</asrwt>
<pdfrwt beam="2">  1        2 0.22663825E+00 0.23913694E+04</pdfrwt>
<pdfrwt beam="1">  1       -2 0.14930468E+00 0.23913694E+04</pdfrwt>
<totfact> 0.35889345E+00</totfact>
</mgrwt>
</event>
<event>
 4    1  0.1308745E-008  0.2227893E+04  0.7816531E-02  0.8506907E-01
         -2   -1    0    0    0  501 -0.00000000000E+00  0.00000000000E+00  0.10606086749E+04  0.10606086749E+04  0.00000000000E+00 0. -1.
          2   -1    0    0  501    0  0.00000000000E+00 -0.00000000000E+00 -0.11699667462E+04  0.11699667462E+04  0.00000000000E+00 0.  1.
    2000013    1    1    2    0    0 -0.51435611578E+03 -0.10476574992E+03 -0.30565753962E+03  0.11275923943E+04  0.95000000000E+03 0.  0.
   -2000013    1    1    2    0    0  0.51435611578E+03  0.10476574992E+03  0.19629946831E+03  0.11029830268E+04  0.95000000000E+03 0.  0.
<mgrwt>
<rscale>  0 0.22278931E+04</rscale>
<asrwt>0</asrwt>
<pdfrwt beam="2">  1        2 0.17999488E+00 0.22278931E+04</pdfrwt>
<pdfrwt beam="1">  1       -2 0.16317057E+00 0.22278931E+04</pdfrwt>
<totfact> 0.42987313E+00</totfact>
</mgrwt>
</event>
<event>
 4    1  0.1308745E-008  0.2199071E+04  0.7816531E-02  0.8518815E-01
          1   -1    0    0  501    0  0.00000000000E+00  0.00000000000E+00  0.28363162723E+04  0.28363162723E+04  0.00000000000E+00 0. -1.
         -1   -1    0    0    0  501 -0.00000000000E+00 -0.00000000000E+00 -0.42624949906E+03  0.42624949906E+03  0.00000000000E+00 0.  1.
    2000013    1    1    2    0    0  0.12683443401E+03 -0.53887945775E+03  0.12041599132E+04  0.16306376484E+04  0.95000000000E+03 0.  0.
   -2000013    1    1    2    0    0 -0.12683443401E+03  0.53887945775E+03  0.12059068600E+04  0.16319281230E+04  0.95000000000E+03 0.  0.
<mgrwt>
<rscale>  0 0.21990711E+04</rscale>
<asrwt>0</asrwt>
<pdfrwt beam="1">  1        1 0.43635634E+00 0.21990711E+04</pdfrwt>
<pdfrwt beam="2">  1       -1 0.65576848E-01 0.21990711E+04</pdfrwt>
<totfact> 0.16881590E+00</totfact>
</mgrwt>
</event>
<event>
 4    1  0.1308745E-008  0.2173138E+04  0.7816531E-02  0.8529693E-01
          2   -1    0    0  501    0  0.00000000000E+00  0.00000000000E+00  0.19949204948E+04  0.19949204948E+04  0.00000000000E+00 0.  1.
         -2   -1    0    0    0  501 -0.00000000000E+00 -0.00000000000E+00 -0.59181914552E+03  0.59181914552E+03  0.00000000000E+00 0. -1.
    2000013    1    1    2    0    0 -0.45385558131E+03  0.16712921777E+03  0.45125656937E+03  0.11576050948E+04  0.95000000000E+03 0.  0.
   -2000013    1    1    2    0    0  0.45385558131E+03 -0.16712921777E+03  0.95184477990E+03  0.14291345455E+04  0.95000000000E+03 0.  0.
<mgrwt>
<rscale>  0 0.21731380E+04</rscale>
<asrwt>0</asrwt>
<pdfrwt beam="1">  1        2 0.30691084E+00 0.21731380E+04</pdfrwt>
<pdfrwt beam="2">  1       -2 0.91049100E-01 0.21731380E+04</pdfrwt>
<totfact> 0.63375883E+00</totfact>
</mgrwt>
</event>
<event>
 4    1  0.1308745E-008  0.2037126E+04  0.7816531E-02  0.8589457E-01
          2   -1    0    0  501    0  0.00000000000E+00  0.00000000000E+00  0.26320186509E+04  0.26320186509E+04  0.00000000000E+00 0.  1.
         -2   -1    0    0    0  501 -0.00000000000E+00 -0.00000000000E+00 -0.39417292049E+03  0.39417292049E+03  0.00000000000E+00 0. -1.
    2000013    1    1    2    0    0  0.55485549515E+01  0.33616202462E+03  0.89891143705E+03  0.13503990021E+04  0.95000000000E+03 0.  0.
   -2000013    1    1    2    0    0 -0.55485549515E+01 -0.33616202462E+03  0.13389342933E+04  0.16757925692E+04  0.95000000000E+03 0.  0.
<mgrwt>
<rscale>  0 0.20371259E+04</rscale>
<asrwt>0</asrwt>
<pdfrwt beam="1">  1        2 0.40492594E+00 0.20371259E+04</pdfrwt>
<pdfrwt beam="2">  1       -2 0.60641989E-01 0.20371259E+04</pdfrwt>
<totfact> 0.68399251E+00</totfact>
</mgrwt>
</event>
<event>
 4    1  0.1308745E-008  0.2191339E+04  0.7816531E-02  0.8522041E-01
         -2   -1    0    0    0  501 -0.00000000000E+00  0.00000000000E+00  0.34169450516E+03  0.34169450516E+03  0.00000000000E+00 0. -1.
          2   -1    0    0  501    0  0.00000000000E+00 -0.00000000000E+00 -0.35133493443E+04  0.35133493443E+04  0.00000000000E+00 0.  1.
    2000013    1    1    2    0    0 -0.43482507624E+03  0.29063840013E+03 -0.13107550262E+04  0.17012119989E+04  0.95000000000E+03 0.  0.
   -2000013    1    1    2    0    0  0.43482507624E+03 -0.29063840013E+03 -0.18608998129E+04  0.21538318505E+04  0.95000000000E+03 0.  0.
<mgrwt>
<rscale>  0 0.21913395E+04</rscale>
<asrwt>0</asrwt>
<pdfrwt beam="2">  1        2 0.54051528E+00 0.21913395E+04</pdfrwt>
<pdfrwt beam="1">  1       -2 0.52568386E-01 0.21913395E+04</pdfrwt>
<totfact> 0.24940125E+00</totfact>
</mgrwt>
</event>
<event>
 4    1  0.1308745E-008  0.2008240E+04  0.7816531E-02  0.8602778E-01
          2   -1    0    0  501    0  0.00000000000E+00  0.00000000000E+00  0.62790187719E+03  0.62790187719E+03  0.00000000000E+00 0.  1.
         -2   -1    0    0    0  501 -0.00000000000E+00 -0.00000000000E+00 -0.16057558049E+04  0.16057558049E+04  0.00000000000E+00 0. -1.
    2000013    1    1    2    0    0 -0.31516272801E+03  0.44396250604E+02 -0.56319397560E+03  0.11493415621E+04  0.95000000000E+03 0.  0.
   -2000013    1    1    2    0    0  0.31516272801E+03 -0.44396250604E+02 -0.41465995209E+03  0.10843161200E+04  0.95000000000E+03 0.  0.
<mgrwt>
<rscale>  0 0.20082401E+04</rscale>
<asrwt>0</asrwt>
<pdfrwt beam="1">  1        2 0.96600290E-01 0.20082401E+04</pdfrwt>
<pdfrwt beam="2">  1       -2 0.24703935E+00 0.20082401E+04</pdfrwt>
<totfact> 0.29189165E+00</totfact>
</mgrwt>
</event>
<event>
 4    1  0.1308745E-008  0.2162865E+04  0.7816531E-02  0.8534046E-01
         -2   -1    0    0    0  501 -0.00000000000E+00  0.00000000000E+00  0.97810423386E+03  0.97810423386E+03  0.00000000000E+00 0. -1.
          2   -1    0    0  501    0  0.00000000000E+00 -0.00000000000E+00 -0.11956762565E+04  0.11956762565E+04  0.00000000000E+00 0.  1.
    2000013    1    1    2    0    0 -0.30453162039E+03 -0.41741555039E+03 -0.10420678247E+03  0.10864319137E+04  0.95000000000E+03 0.  0.
   -2000013    1    1    2    0    0  0.30453162039E+03  0.41741555039E+03 -0.11336524014E+03  0.10873485767E+04  0.95000000000E+03 0.  0.
<mgrwt>
<rscale>  0 0.21628648E+04</rscale>
<asrwt>0</asrwt>
<pdfrwt beam="2">  1        2 0.18395019E+00 0.21628648E+04</pdfrwt>
<pdfrwt beam="1">  1       -2 0.15047758E+00 0.21628648E+04</pdfrwt>
<totfact> 0.51905475E+00</totfact>
</mgrwt>
</event>
<event>
 4    1  0.1308745E-008  0.1989711E+04  0.7816531E-02  0.8611446E-01
          2   -1    0    0  501    0  0.00000000000E+00  0.00000000000E+00  0.98177961276E+03  0.98177961276E+03  0.00000000000E+00 0.  1.
         -2   -1    0    0    0  501 -0.00000000000E+00 -0.00000000000E+00 -0.10081057247E+04  0.10081057247E+04  0.00000000000E+00 0. -1.
    2000013    1    1    2    0    0 -0.18632616007E+03 -0.11741153275E+03  0.18366560834E+03  0.99233863254E+03  0.95000000000E+03 0.  0.
   -2000013    1    1    2    0    0  0.18632616007E+03  0.11741153275E+03 -0.20999172030E+03  0.99754670494E+03  0.95000000000E+03 0.  0.
<mgrwt>
<rscale>  0 0.19897112E+04</rscale>
<asrwt>0</asrwt>
<pdfrwt beam="1">  1        2 0.15104302E+00 0.19897112E+04</pdfrwt>
<pdfrwt beam="2">  1       -2 0.15509319E+00 0.19897112E+04</pdfrwt>
<totfact> 0.65947234E+00</totfact>
</mgrwt>
</event>
<event>
 4    1  0.1308745E-008  0.2493868E+04  0.7816531E-02  0.8405174E-01
         -2   -1    0    0    0  501 -0.00000000000E+00  0.00000000000E+00  0.15707438852E+04  0.15707438852E+04  0.00000000000E+00 0. -1.
          2   -1    0    0  501    0  0.00000000000E+00 -0.00000000000E+00 -0.98987736608E+03  0.98987736608E+03  0.00000000000E+00 0.  1.
    2000013    1    1    2    0    0  0.44053494239E+03  0.33674311591E+03  0.89341476356E+03  0.14170945280E+04  0.95000000000E+03 0.  0.
   -2000013    1    1    2    0    0 -0.44053494239E+03 -0.33674311591E+03 -0.31254824449E+03  0.11435267232E+04  0.95000000000E+03 0.  0.
<mgrwt>
<rscale>  0 0.24938675E+04</rscale>
<asrwt>0</asrwt>
<pdfrwt beam="2">  1        2 0.15228883E+00 0.24938675E+04</pdfrwt>
<pdfrwt beam="1">  1       -2 0.24165291E+00 0.24938675E+04</pdfrwt>
<totfact> 0.16505818E+00</totfact>
</mgrwt>
</event>
<event>
 4    1  0.1308745E-008  0.2512249E+04  0.7816531E-02  0.8398635E-01
         -2   -1    0    0    0  501 -0.00000000000E+00  0.00000000000E+00  0.16672820844E+04  0.16672820844E+04  0.00000000000E+00 0. -1.
          2   -1    0    0  501    0  0.00000000000E+00 -0.00000000000E+00 -0.94635975479E+03  0.94635975479E+03  0.00000000000E+00 0.  1.
    2000013    1    1    2    0    0  0.71679130031E+03 -0.33575720119E+03  0.59034528380E+03  0.13702299882E+04  0.95000000000E+03 0.  0.
   -2000013    1    1    2    0    0 -0.71679130031E+03  0.33575720119E+03  0.13057704580E+03  0.12434118510E+04  0.95000000000E+03 0.  0.
<mgrwt>
<rscale>  0 0.25122489E+04</rscale>
<asrwt>0</asrwt>
<pdfrwt beam="2">  1        2 0.14559381E+00 0.25122489E+04</pdfrwt>
<pdfrwt beam="1">  1       -2 0.25650494E+00 0.25122489E+04</pdfrwt>
<totfact> 0.14255648E+00</totfact>
</mgrwt>
</event>
<event>
 4    1  0.1308745E-008  0.2261991E+04  0.7816531E-02  0.8493060E-01
         -2   -1    0    0    0  501 -0.00000000000E+00  0.00000000000E+00  0.66090261452E+03  0.66090261452E+03  0.00000000000E+00 0. -1.
          2   -1    0    0  501    0  0.00000000000E+00 -0.00000000000E+00 -0.19354595722E+04  0.19354595722E+04  0.00000000000E+00 0.  1.
    2000013    1    1    2    0    0  0.60617853971E+03  0.65712734221E+02 -0.71745945227E+03  0.13375420184E+04  0.95000000000E+03 0.  0.
   -2000013    1    1    2    0    0 -0.60617853971E+03 -0.65712734221E+02 -0.55709750536E+03  0.12588201682E+04  0.95000000000E+03 0.  0.
<mgrwt>
<rscale>  0 0.22619905E+04</rscale>
<asrwt>0</asrwt>
<pdfrwt beam="2">  1        2 0.29776301E+00 0.22619905E+04</pdfrwt>
<pdfrwt beam="1">  1       -2 0.10167732E+00 0.22619905E+04</pdfrwt>
<totfact> 0.52393289E+00</totfact>
</mgrwt>
</event>
<event>
 4    1  0.1308745E-008  0.2254873E+04  0.7816531E-02  0.8495930E-01
          2   -1    0    0  501    0  0.00000000000E+00  0.00000000000E+00  0.12921265394E+04  0.12921265394E+04  0.00000000000E+00 0.  1.
         -2   -1    0    0    0  501 -0.00000000000E+00 -0.00000000000E+00 -0.98373688410E+03  0.98373688410E+03  0.00000000000E+00 0. -1.
    2000013    1    1    2    0    0 -0.59822648390E+03  0.36373535488E+02  0.25212681642E+03  0.11512019335E+04  0.95000000000E+03 0.  0.
   -2000013    1    1    2    0    0  0.59822648390E+03 -0.36373535488E+02  0.56262838907E+02  0.11246614900E+04  0.95000000000E+03 0.  0.
<mgrwt>
<rscale>  0 0.22548725E+04</rscale>
<asrwt>0</asrwt>
<pdfrwt beam="1">  1        2 0.19878870E+00 0.22548725E+04</pdfrwt>
<pdfrwt beam="2">  1       -2 0.15134414E+00 0.22548725E+04</pdfrwt>
<totfact> 0.44489586E+00</totfact>
</mgrwt>
</event>
<event>
 4    1  0.1308745E-008  0.2467036E+04  0.7816531E-02  0.8414824E-01
          2   -1    0    0  501    0  0.00000000000E+00  0.00000000000E+00  0.12546757044E+04  0.12546757044E+04  0.00000000000E+00 0.  1.
         -2   -1    0    0    0  501 -0.00000000000E+00 -0.00000000000E+00 -0.12127170052E+04  0.12127170052E+04  0.00000000000E+00 0. -1.
    2000013    1    1    2    0    0 -0.65158003663E+03  0.14155645316E+03  0.43873796113E+03  0.12408004562E+04  0.95000000000E+03 0.  0.
   -2000013    1    1    2    0    0  0.65158003663E+03 -0.14155645316E+03 -0.39677926189E+03  0.12265922535E+04  0.95000000000E+03 0.  0.
<mgrwt>
<rscale>  0 0.24670359E+04</rscale>
<asrwt>0</asrwt>
<pdfrwt beam="1">  1        2 0.19302703E+00 0.24670359E+04</pdfrwt>
<pdfrwt beam="2">  1       -2 0.18657185E+00 0.24670359E+04</pdfrwt>
<totfact> 0.25696437E+00</totfact>
</mgrwt>
</event>
<event>
 4    1  0.1308745E-008  0.2528412E+04  0.7816531E-02  0.8392933E-01
         -2   -1    0    0    0  501 -0.00000000000E+00  0.00000000000E+00  0.99496222265E+03  0.99496222265E+03  0.00000000000E+00 0. -1.
          2   -1    0    0  501    0  0.00000000000E+00 -0.00000000000E+00 -0.16063091638E+04  0.16063091638E+04  0.00000000000E+00 0.  1.
    2000013    1    1    2    0    0  0.77239208644E+03 -0.18352989499E+03 -0.42481089139E+02  0.12387806103E+04  0.95000000000E+03 0.  0.
   -2000013    1    1    2    0    0 -0.77239208644E+03  0.18352989499E+03 -0.56886585203E+03  0.13624907762E+04  0.95000000000E+03 0.  0.
<mgrwt>
<rscale>  0 0.25284121E+04</rscale>
<asrwt>0</asrwt>
<pdfrwt beam="2">  1        2 0.24712448E+00 0.25284121E+04</pdfrwt>
<pdfrwt beam="1">  1       -2 0.15307111E+00 0.25284121E+04</pdfrwt>
<totfact> 0.27945771E+00</totfact>
</mgrwt>
</event>
<event>
 4    1  0.1308745E-008  0.2250902E+04  0.7816531E-02  0.8497535E-01
         -2   -1    0    0    0  501 -0.00000000000E+00  0.00000000000E+00  0.93621657248E+03  0.93621657248E+03  0.00000000000E+00 0.  1.
          2   -1    0    0  501    0  0.00000000000E+00 -0.00000000000E+00 -0.13529345138E+04  0.13529345138E+04  0.00000000000E+00 0. -1.
    2000013    1    1    2    0    0  0.13926407994E+03 -0.47474154726E+03  0.14300536125E+03  0.10806130454E+04  0.95000000000E+03 0.  0.
   -2000013    1    1    2    0    0 -0.13926407994E+03  0.47474154726E+03 -0.55972330254E+03  0.12085380408E+04  0.95000000000E+03 0.  0.
<mgrwt>
<rscale>  0 0.22509018E+04</rscale>
<asrwt>0</asrwt>
<pdfrwt beam="2">  1        2 0.20814377E+00 0.22509018E+04</pdfrwt>
<pdfrwt beam="1">  1       -2 0.14403332E+00 0.22509018E+04</pdfrwt>
<totfact> 0.46759419E+00</totfact>
</mgrwt>
</event>
<event>
 4    1  0.1308745E-008  0.2516229E+04  0.7816531E-02  0.8397227E-01
         -2   -1    0    0    0  501 -0.00000000000E+00  0.00000000000E+00  0.63212857363E+03  0.63212857363E+03  0.00000000000E+00 0. -1.
          2   -1    0    0  501    0  0.00000000000E+00 -0.00000000000E+00 -0.25040035824E+04  0.25040035824E+04  0.00000000000E+00 0.  1.
    2000013    1    1    2    0    0 -0.50660465831E+03 -0.42859142162E+03 -0.32533039865E+03  0.12036107156E+04  0.95000000000E+03 0.  0.
   -2000013    1    1    2    0    0  0.50660465831E+03  0.42859142162E+03 -0.15465446101E+04  0.19325214404E+04  0.95000000000E+03 0.  0.
<mgrwt>
<rscale>  0 0.25162291E+04</rscale>
<asrwt>0</asrwt>
<pdfrwt beam="2">  1        2 0.38523132E+00 0.25162291E+04</pdfrwt>
<pdfrwt beam="1">  1       -2 0.97250550E-01 0.25162291E+04</pdfrwt>
<totfact> 0.27202640E+00</totfact>
</mgrwt>
</event>
<event>
 4    1  0.1308745E-008  0.2228035E+04  0.7816531E-02  0.8506849E-01
          1   -1    0    0  501    0  0.00000000000E+00  0.00000000000E+00  0.97187832628E+03  0.97187832628E+03  0.00000000000E+00 0.  1.
         -1   -1    0    0    0  501 -0.00000000000E+00 -0.00000000000E+00 -0.12769453451E+04  0.12769453451E+04  0.00000000000E+00 0. -1.
    2000013    1    1    2    0    0  0.53580246308E+03 -0.20964126583E+03 -0.23995436056E+03  0.11362710218E+04  0.95000000000E+03 0.  0.
   -2000013    1    1    2    0    0 -0.53580246308E+03  0.20964126583E+03 -0.65112658206E+02  0.11125526496E+04  0.95000000000E+03 0.  0.
<mgrwt>
<rscale>  0 0.22280355E+04</rscale>
<asrwt>0</asrwt>
<pdfrwt beam="1">  1        1 0.14951974E+00 0.22280355E+04</pdfrwt>
<pdfrwt beam="2">  1       -1 0.19645313E+00 0.22280355E+04</pdfrwt>
<totfact> 0.23063745E+00</totfact>
</mgrwt>
</event>
<event>
 4    1  0.1308745E-008  0.2852640E+04  0.7816531E-02  0.8287109E-01
         -2   -1    0    0    0  501 -0.00000000000E+00  0.00000000000E+00  0.81984470539E+03  0.81984470539E+03  0.00000000000E+00 0. -1.
          2   -1    0    0  501    0  0.00000000000E+00 -0.00000000000E+00 -0.24814324832E+04  0.24814324832E+04  0.00000000000E+00 0.  1.
    2000013    1    1    2    0    0  0.60241823191E+03 -0.51071455447E+03 -0.58358269313E+01  0.12354234655E+04  0.95000000000E+03 0.  0.
   -2000013    1    1    2    0    0 -0.60241823191E+03  0.51071455447E+03 -0.16557519509E+04  0.20658537231E+04  0.95000000000E+03 0.  0.
<mgrwt>
<rscale>  0 0.28526404E+04</rscale>
<asrwt>0</asrwt>
<pdfrwt beam="2">  1        2 0.38175884E+00 0.28526404E+04</pdfrwt>
<pdfrwt beam="1">  1       -2 0.12612996E+00 0.28526404E+04</pdfrwt>
<totfact> 0.14489556E+00</totfact>
</mgrwt>
</event>
<event>
 4    1  0.1308745E-008  0.2055727E+04  0.7816531E-02  0.8581001E-01
         -2   -1    0    0    0  501 -0.00000000000E+00  0.00000000000E+00  0.41864821039E+03  0.41864821039E+03  0.00000000000E+00 0. -1.
          2   -1    0    0  501    0  0.00000000000E+00 -0.00000000000E+00 -0.25236061603E+04  0.25236061603E+04  0.00000000000E+00 0.  1.
    2000013    1    1    2    0    0 -0.42429795424E+02  0.36830844694E+03 -0.12366144507E+04  0.16028620338E+04  0.95000000000E+03 0.  0.
   -2000013    1    1    2    0    0  0.42429795424E+02 -0.36830844694E+03 -0.86834349926E+03  0.13393923370E+04  0.95000000000E+03 0.  0.
<mgrwt>
<rscale>  0 0.20557268E+04</rscale>
<asrwt>0</asrwt>
<pdfrwt beam="2">  1        2 0.38824711E+00 0.20557268E+04</pdfrwt>
<pdfrwt beam="1">  1       -2 0.64407416E-01 0.20557268E+04</pdfrwt>
<totfact> 0.69490309E+00</totfact>
</mgrwt>
</event>
<event>
 4    1  0.1308745E-008  0.2253723E+04  0.7816531E-02  0.8496394E-01
         -2   -1    0    0    0  501 -0.00000000000E+00  0.00000000000E+00  0.55735540132E+03  0.55735540132E+03  0.00000000000E+00 0. -1.
          2   -1    0    0  501    0  0.00000000000E+00 -0.00000000000E+00 -0.22782892739E+04  0.22782892739E+04  0.00000000000E+00 0.  1.
    2000013    1    1    2    0    0  0.15490906703E+03  0.33251948251E+03 -0.14674783712E+04  0.17862135357E+04  0.95000000000E+03 0.  0.
   -2000013    1    1    2    0    0 -0.15490906703E+03 -0.33251948251E+03 -0.25345550136E+03  0.10494311395E+04  0.95000000000E+03 0.  0.
<mgrwt>
<rscale>  0 0.22537230E+04</rscale>
<asrwt>0</asrwt>
<pdfrwt beam="2">  1        2 0.35050604E+00 0.22537230E+04</pdfrwt>
<pdfrwt beam="1">  1       -2 0.85746984E-01 0.22537230E+04</pdfrwt>
<totfact> 0.50124473E+00</totfact>
</mgrwt>
</event>
<event>
 4    1  0.1308745E-008  0.2876258E+04  0.7816531E-02  0.8279977E-01
          2   -1    0    0  501    0  0.00000000000E+00  0.00000000000E+00  0.23883181042E+04  0.23883181042E+04  0.00000000000E+00 0.  1.
         -2   -1    0    0    0  501 -0.00000000000E+00 -0.00000000000E+00 -0.86597125504E+03  0.86597125504E+03  0.00000000000E+00 0. -1.
    2000013    1    1    2    0    0 -0.54011590225E+03 -0.90641332700E+03  0.50216570027E+03  0.15059816393E+04  0.95000000000E+03 0.  0.
   -2000013    1    1    2    0    0  0.54011590225E+03  0.90641332700E+03  0.10201811489E+04  0.17483077200E+04  0.95000000000E+03 0.  0.
<mgrwt>
<rscale>  0 0.28762579E+04</rscale>
<asrwt>0</asrwt>
<pdfrwt beam="1">  1        2 0.36743355E+00 0.28762579E+04</pdfrwt>
<pdfrwt beam="2">  1       -2 0.13322635E+00 0.28762579E+04</pdfrwt>
<totfact> 0.14244128E+00</totfact>
</mgrwt>
</event>
<event>
 4    1  0.1308745E-008  0.2752526E+04  0.7816531E-02  0.8318160E-01
          2   -1    0    0  501    0  0.00000000000E+00  0.00000000000E+00  0.16772331113E+04  0.16772331113E+04  0.00000000000E+00 0. -1.
         -2   -1    0    0    0  501 -0.00000000000E+00 -0.00000000000E+00 -0.11293004890E+04  0.11293004890E+04  0.00000000000E+00 0.  1.
    2000013    1    1    2    0    0  0.44467321378E+03 -0.80871922057E+03  0.65525430652E+03  0.14777074308E+04  0.95000000000E+03 0.  0.
   -2000013    1    1    2    0    0 -0.44467321378E+03  0.80871922057E+03 -0.10732168427E+03  0.13288261695E+04  0.95000000000E+03 0.  0.
<mgrwt>
<rscale>  0 0.27525262E+04</rscale>
<asrwt>0</asrwt>
<pdfrwt beam="1">  1        2 0.25803586E+00 0.27525262E+04</pdfrwt>
<pdfrwt beam="2">  1       -2 0.17373854E+00 0.27525262E+04</pdfrwt>
<totfact> 0.17691388E+00</totfact>
</mgrwt>
</event>
<event>
 4    1  0.1308745E-008  0.2533659E+04  0.7816531E-02  0.8391092E-01
          2   -1    0    0  501    0  0.00000000000E+00  0.00000000000E+00  0.18204350072E+04  0.18204350072E+04  0.00000000000E+00 0.  1.
         -2   -1    0    0    0  501 -0.00000000000E+00 -0.00000000000E+00 -0.88157884537E+03  0.88157884537E+03  0.00000000000E+00 0. -1.
    2000013    1    1    2    0    0 -0.34408791735E+03  0.75592060931E+03  0.58887270030E+03  0.13925097916E+04  0.95000000000E+03 0.  0.
   -2000013    1    1    2    0    0  0.34408791735E+03 -0.75592060931E+03  0.34998346154E+03  0.13095040610E+04  0.95000000000E+03 0.  0.
<mgrwt>
<rscale>  0 0.25336590E+04</rscale>
<asrwt>0</asrwt>
<pdfrwt beam="1">  1        2 0.28006692E+00 0.25336590E+04</pdfrwt>
<pdfrwt beam="2">  1       -2 0.13562752E+00 0.25336590E+04</pdfrwt>
<totfact> 0.29151814E+00</totfact>
</mgrwt>
</event>
<event>
 4    1  0.1308745E-008  0.2276480E+04  0.7816531E-02  0.8487253E-01
         -2   -1    0    0    0  501 -0.00000000000E+00  0.00000000000E+00  0.50730746370E+03  0.50730746370E+03  0.00000000000E+00 0. -1.
          2   -1    0    0  501    0  0.00000000000E+00 -0.00000000000E+00 -0.25538564755E+04  0.25538564755E+04  0.00000000000E+00 0.  1.
    2000013    1    1    2    0    0  0.58640201253E+03 -0.14984594307E+03 -0.80326500885E+03  0.13834940554E+04  0.95000000000E+03 0.  0.
   -2000013    1    1    2    0    0 -0.58640201253E+03  0.14984594307E+03 -0.12432840030E+04  0.16776698838E+04  0.95000000000E+03 0.  0.
<mgrwt>
<rscale>  0 0.22764801E+04</rscale>
<asrwt>0</asrwt>
<pdfrwt beam="2">  1        2 0.39290100E+00 0.22764801E+04</pdfrwt>
<pdfrwt beam="1">  1       -2 0.78047302E-01 0.22764801E+04</pdfrwt>
<totfact> 0.42987480E+00</totfact>
</mgrwt>
</event>
<event>
 4    1  0.1308745E-008  0.3910743E+04  0.7816531E-02  0.8022799E-01
          2   -1    0    0  501    0  0.00000000000E+00  0.00000000000E+00  0.16534799736E+04  0.16534799736E+04  0.00000000000E+00 0.  1.
         -2   -1    0    0    0  501 -0.00000000000E+00 -0.00000000000E+00 -0.23123823414E+04  0.23123823414E+04  0.00000000000E+00 0. -1.
    2000013    1    1    2    0    0 -0.87768625911E+03 -0.84357732999E+03  0.88704867706E+03  0.17808175753E+04  0.95000000000E+03 0.  0.
   -2000013    1    1    2    0    0  0.87768625911E+03  0.84357732999E+03 -0.15459510449E+04  0.21850447397E+04  0.95000000000E+03 0.  0.
<mgrwt>
<rscale>  0 0.39107431E+04</rscale>
<asrwt>0</asrwt>
<pdfrwt beam="1">  1        2 0.25438154E+00 0.39107431E+04</pdfrwt>
<pdfrwt beam="2">  1       -2 0.35575113E+00 0.39107431E+04</pdfrwt>
<totfact> 0.11831961E-01</totfact>
</mgrwt>
</event>
<event>
 4    1  0.1308745E-008  0.2550114E+04  0.7816531E-02  0.8385347E-01
          2   -1    0    0  501    0  0.00000000000E+00  0.00000000000E+00  0.25031970150E+04  0.25031970150E+04  0.00000000000E+00 0.  1.
         -2   -1    0    0    0  501 -0.00000000000E+00 -0.00000000000E+00 -0.64947739499E+03  0.64947739499E+03  0.00000000000E+00 0. -1.
    2000013    1    1    2    0    0  0.65251986636E+03  0.27220639917E+03  0.34253706449E+03  0.12327652414E+04  0.95000000000E+03 0.  0.
   -2000013    1    1    2    0    0 -0.65251986636E+03 -0.27220639917E+03  0.15111825555E+04  0.19199091687E+04  0.95000000000E+03 0.  0.
<mgrwt>
<rscale>  0 0.25501136E+04</rscale>
<asrwt>0</asrwt>
<pdfrwt beam="1">  1        2 0.38510723E+00 0.25501136E+04</pdfrwt>
<pdfrwt beam="2">  1       -2 0.99919600E-01 0.25501136E+04</pdfrwt>
<totfact> 0.25474798E+00</totfact>
</mgrwt>
</event>
<event>
 4    1  0.1308745E-008  0.2578554E+04  0.7816531E-02  0.8375523E-01
          2   -1    0    0  501    0  0.00000000000E+00  0.00000000000E+00  0.10861832496E+04  0.10861832496E+04  0.00000000000E+00 0.  1.
         -2   -1    0    0    0  501 -0.00000000000E+00 -0.00000000000E+00 -0.15303450541E+04  0.15303450541E+04  0.00000000000E+00 0. -1.
    2000013    1    1    2    0    0  0.84290606765E+03  0.12503580828E+03 -0.36049114961E+02  0.12766848205E+04  0.95000000000E+03 0.  0.
   -2000013    1    1    2    0    0 -0.84290606765E+03 -0.12503580828E+03 -0.40811268954E+03  0.13398434832E+04  0.95000000000E+03 0.  0.
<mgrwt>
<rscale>  0 0.25785540E+04</rscale>
<asrwt>0</asrwt>
<pdfrwt beam="1">  1        2 0.16710512E+00 0.25785540E+04</pdfrwt>
<pdfrwt beam="2">  1       -2 0.23543770E+00 0.25785540E+04</pdfrwt>
<totfact> 0.15566949E+00</totfact>
</mgrwt>
</event>
<event>
 4    1  0.1308745E-008  0.2550906E+04  0.7816531E-02  0.8385071E-01
          2   -1    0    0  501    0  0.00000000000E+00  0.00000000000E+00  0.15567053496E+04  0.15567053496E+04  0.00000000000E+00 0.  1.
         -2   -1    0    0    0  501 -0.00000000000E+00 -0.00000000000E+00 -0.10450148773E+04  0.10450148773E+04  0.00000000000E+00 0. -1.
    2000013    1    1    2    0    0  0.41446392040E+03  0.51780909724E+03  0.79973492597E+03  0.14078290217E+04  0.95000000000E+03 0.  0.
   -2000013    1    1    2    0    0 -0.41446392040E+03 -0.51780909724E+03 -0.28804445363E+03  0.11938912052E+04  0.95000000000E+03 0.  0.
<mgrwt>
<rscale>  0 0.25509059E+04</rscale>
<asrwt>0</asrwt>
<pdfrwt beam="1">  1        2 0.23949313E+00 0.25509059E+04</pdfrwt>
<pdfrwt beam="2">  1       -2 0.16077152E+00 0.25509059E+04</pdfrwt>
<totfact> 0.26044016E+00</totfact>
</mgrwt>
</event>
<event>
 4    1  0.1308745E-008  0.2091458E+04  0.7816531E-02  0.8565016E-01
          2   -1    0    0  501    0  0.00000000000E+00  0.00000000000E+00  0.25965509454E+03  0.25965509454E+03  0.00000000000E+00 0.  1.
         -2   -1    0    0    0  501 -0.00000000000E+00 -0.00000000000E+00 -0.42115450391E+04  0.42115450391E+04  0.00000000000E+00 0. -1.
    2000013    1    1    2    0    0  0.10053885615E+03  0.40544989273E+03 -0.17009068054E+04  0.19925063708E+04  0.95000000000E+03 0.  0.
   -2000013    1    1    2    0    0 -0.10053885615E+03 -0.40544989273E+03 -0.22509831392E+04  0.24786937628E+04  0.95000000000E+03 0.  0.
<mgrwt>
<rscale>  0 0.20914580E+04</rscale>
<asrwt>0</asrwt>
<pdfrwt beam="1">  1        2 0.39946940E-01 0.20914580E+04</pdfrwt>
<pdfrwt beam="2">  1       -2 0.64792996E+00 0.20914580E+04</pdfrwt>
<totfact> 0.39859174E-02</totfact>
</mgrwt>
</event>
<event>
 4    1  0.1308745E-008  0.2637039E+04  0.7816531E-02  0.8355728E-01
         -2   -1    0    0    0  501 -0.00000000000E+00  0.00000000000E+00  0.85182726678E+03  0.85182726678E+03  0.00000000000E+00 0. -1.
          2   -1    0    0  501    0  0.00000000000E+00 -0.00000000000E+00 -0.20408994746E+04  0.20408994746E+04  0.00000000000E+00 0.  1.
    2000013    1    1    2    0    0  0.59139827784E+03  0.56188090488E+03 -0.10475311570E+04  0.16325696308E+04  0.95000000000E+03 0.  0.
   -2000013    1    1    2    0    0 -0.59139827784E+03 -0.56188090488E+03 -0.14154105073E+03  0.12601571106E+04  0.95000000000E+03 0.  0.
<mgrwt>
<rscale>  0 0.26370391E+04</rscale>
<asrwt>0</asrwt>
<pdfrwt beam="2">  1        2 0.31398453E+00 0.26370391E+04</pdfrwt>
<pdfrwt beam="1">  1       -2 0.13105035E+00 0.26370391E+04</pdfrwt>
<totfact> 0.23790437E+00</totfact>
</mgrwt>
</event>
<event>
 4    1  0.1308745E-008  0.2545687E+04  0.7816531E-02  0.8386888E-01
         -2   -1    0    0    0  501 -0.00000000000E+00  0.00000000000E+00  0.52628329412E+03  0.52628329412E+03  0.00000000000E+00 0. -1.
          2   -1    0    0  501    0  0.00000000000E+00 -0.00000000000E+00 -0.30784390733E+04  0.30784390733E+04  0.00000000000E+00 0.  1.
    2000013    1    1    2    0    0  0.39473102132E+03  0.59200987034E+03 -0.62510864458E+03  0.13414727292E+04  0.95000000000E+03 0.  0.
   -2000013    1    1    2    0    0 -0.39473102132E+03 -0.59200987034E+03 -0.19270471346E+04  0.22632496382E+04  0.95000000000E+03 0.  0.
<mgrwt>
<rscale>  0 0.25456874E+04</rscale>
<asrwt>0</asrwt>
<pdfrwt beam="2">  1        2 0.47360601E+00 0.25456874E+04</pdfrwt>
<pdfrwt beam="1">  1       -2 0.80966660E-01 0.25456874E+04</pdfrwt>
<totfact> 0.18571055E+00</totfact>
</mgrwt>
</event>
<event>
 4    1  0.1308745E-008  0.2614146E+04  0.7816531E-02  0.8363412E-01
         -2   -1    0    0    0  501 -0.00000000000E+00  0.00000000000E+00  0.77228833937E+03  0.77228833937E+03  0.00000000000E+00 0. -1.
          2   -1    0    0  501    0  0.00000000000E+00 -0.00000000000E+00 -0.22121785489E+04  0.22121785489E+04  0.00000000000E+00 0.  1.
    2000013    1    1    2    0    0 -0.60731896474E+03 -0.54212497561E+03 -0.11519755377E+04  0.17006714714E+04  0.95000000000E+03 0.  0.
   -2000013    1    1    2    0    0  0.60731896474E+03  0.54212497561E+03 -0.28791467179E+03  0.12837954169E+04  0.95000000000E+03 0.  0.
<mgrwt>
<rscale>  0 0.26141459E+04</rscale>
<asrwt>0</asrwt>
<pdfrwt beam="2">  1        2 0.34033516E+00 0.26141459E+04</pdfrwt>
<pdfrwt beam="1">  1       -2 0.11881359E+00 0.26141459E+04</pdfrwt>
<totfact> 0.24440423E+00</totfact>
</mgrwt>
</event>
<event>
 4    1  0.1308745E-008  0.2430848E+04  0.7816531E-02  0.8428044E-01
         -2   -1    0    0    0  501 -0.00000000000E+00  0.00000000000E+00  0.78756808079E+03  0.78756808079E+03  0.00000000000E+00 0. -1.
          2   -1    0    0  501    0  0.00000000000E+00 -0.00000000000E+00 -0.18757176904E+04  0.18757176904E+04  0.00000000000E+00 0.  1.
    2000013    1    1    2    0    0 -0.55932009076E+02 -0.61535641290E+03 -0.10253545014E+04  0.15282813086E+04  0.95000000000E+03 0.  0.
   -2000013    1    1    2    0    0  0.55932009076E+02  0.61535641290E+03 -0.62795108192E+02  0.11350044626E+04  0.95000000000E+03 0.  0.
<mgrwt>
<rscale>  0 0.24308479E+04</rscale>
<asrwt>0</asrwt>
<pdfrwt beam="2">  1        2 0.28857195E+00 0.24308479E+04</pdfrwt>
<pdfrwt beam="1">  1       -2 0.12116432E+00 0.24308479E+04</pdfrwt>
<totfact> 0.36422345E+00</totfact>
</mgrwt>
</event>
<event>
 4    1  0.1308745E-008  0.4849312E+04  0.7816531E-02  0.7852182E-01
          2   -1    0    0  501    0  0.00000000000E+00  0.00000000000E+00  0.26628296693E+04  0.26628296693E+04  0.00000000000E+00 0.  1.
         -2   -1    0    0    0  501 -0.00000000000E+00 -0.00000000000E+00 -0.22077853128E+04  0.22077853128E+04  0.00000000000E+00 0. -1.
    2000013    1    1    2    0    0 -0.16440955692E+04 -0.14744781026E+04  0.54405791095E+03  0.24648803066E+04  0.95000000000E+03 0.  0.
   -2000013    1    1    2    0    0  0.16440955692E+04  0.14744781026E+04 -0.89013554438E+02  0.24057346754E+04  0.95000000000E+03 0.  0.
<mgrwt>
<rscale>  0 0.48493118E+04</rscale>
<asrwt>0</asrwt>
<pdfrwt beam="1">  1        2 0.40966611E+00 0.48493118E+04</pdfrwt>
<pdfrwt beam="2">  1       -2 0.33965928E+00 0.48493118E+04</pdfrwt>
<totfact> 0.37197470E-02</totfact>
</mgrwt>
</event>
<event>
 4    1  0.1308745E-008  0.2379113E+04  0.7816531E-02  0.8447365E-01
          2   -1    0    0  501    0  0.00000000000E+00  0.00000000000E+00  0.11752157027E+04  0.11752157027E+04  0.00000000000E+00 0.  1.
         -2   -1    0    0    0  501 -0.00000000000E+00 -0.00000000000E+00 -0.12040718654E+04  0.12040718654E+04  0.00000000000E+00 0. -1.
    2000013    1    1    2    0    0 -0.70571867479E+03  0.54388387240E+02  0.93037809019E+02  0.11883404304E+04  0.95000000000E+03 0.  0.
   -2000013    1    1    2    0    0  0.70571867479E+03 -0.54388387240E+02 -0.12189397174E+03  0.11909471378E+04  0.95000000000E+03 0.  0.
<mgrwt>
<rscale>  0 0.23791126E+04</rscale>
<asrwt>0</asrwt>
<pdfrwt beam="1">  1        2 0.18080242E+00 0.23791126E+04</pdfrwt>
<pdfrwt beam="2">  1       -2 0.18524183E+00 0.23791126E+04</pdfrwt>
<totfact> 0.29470751E+00</totfact>
</mgrwt>
</event>
<event>
 4    1  0.1308745E-008  0.2419250E+04  0.7816531E-02  0.8432332E-01
          2   -1    0    0  501    0  0.00000000000E+00  0.00000000000E+00  0.13917448840E+04  0.13917448840E+04  0.00000000000E+00 0.  1.
         -2   -1    0    0    0  501 -0.00000000000E+00 -0.00000000000E+00 -0.10513364043E+04  0.10513364043E+04  0.00000000000E+00 0. -1.
    2000013    1    1    2    0    0  0.68095460785E+03  0.13393447348E+03  0.45414019380E+03  0.12611030635E+04  0.95000000000E+03 0.  0.
   -2000013    1    1    2    0    0 -0.68095460785E+03 -0.13393447348E+03 -0.11373171410E+03  0.11819782248E+04  0.95000000000E+03 0.  0.
<mgrwt>
<rscale>  0 0.24192495E+04</rscale>
<asrwt>0</asrwt>
<pdfrwt beam="1">  1        2 0.21411460E+00 0.24192495E+04</pdfrwt>
<pdfrwt beam="2">  1       -2 0.16174406E+00 0.24192495E+04</pdfrwt>
<totfact> 0.32123468E+00</totfact>
</mgrwt>
</event>
<event>
 4    1  0.1308745E-008  0.2247931E+04  0.7816531E-02  0.8498739E-01
          2   -1    0    0  501    0  0.00000000000E+00  0.00000000000E+00  0.21492865487E+04  0.21492865487E+04  0.00000000000E+00 0.  1.
         -2   -1    0    0    0  501 -0.00000000000E+00 -0.00000000000E+00 -0.58777558500E+03  0.58777558500E+03  0.00000000000E+00 0. -1.
    2000013    1    1    2    0    0  0.33546554611E+03 -0.16647836814E+03  0.13525648958E+04  0.16947518925E+04  0.95000000000E+03 0.  0.
   -2000013    1    1    2    0    0 -0.33546554611E+03  0.16647836814E+03  0.20894606791E+03  0.10423102412E+04  0.95000000000E+03 0.  0.
<mgrwt>
<rscale>  0 0.22479307E+04</rscale>
<asrwt>0</asrwt>
<pdfrwt beam="1">  1        2 0.33065947E+00 0.22479307E+04</pdfrwt>
<pdfrwt beam="2">  1       -2 0.90427014E-01 0.22479307E+04</pdfrwt>
<totfact> 0.52471739E+00</totfact>
</mgrwt>
</event>
<event>
 4    1  0.1308745E-008  0.3590682E+04  0.7816531E-02  0.8092629E-01
         -2   -1    0    0    0  501 -0.00000000000E+00  0.00000000000E+00  0.15888143752E+04  0.15888143752E+04  0.00000000000E+00 0. -1.
          2   -1    0    0  501    0  0.00000000000E+00 -0.00000000000E+00 -0.20287136649E+04  0.20287136649E+04  0.00000000000E+00 0.  1.
    2000013    1    1    2    0    0 -0.97274291147E+03  0.11683203179E+04 -0.31839560714E+03  0.18207352635E+04  0.95000000000E+03 0.  0.
   -2000013    1    1    2    0    0  0.97274291147E+03 -0.11683203179E+04 -0.12150368253E+03  0.17967927766E+04  0.95000000000E+03 0.  0.
<mgrwt>
<rscale>  0 0.35906821E+04</rscale>
<asrwt>0</asrwt>
<pdfrwt beam="2">  1        2 0.31210979E+00 0.35906821E+04</pdfrwt>
<pdfrwt beam="1">  1       -2 0.24443298E+00 0.35906821E+04</pdfrwt>
<totfact> 0.36531115E-01</totfact>
</mgrwt>
</event>
<event>
 4    1  0.1308745E-008  0.2939207E+04  0.7816531E-02  0.8261307E-01
         -2   -1    0    0    0  501 -0.00000000000E+00  0.00000000000E+00  0.17227750249E+04  0.17227750249E+04  0.00000000000E+00 0. -1.
          2   -1    0    0  501    0  0.00000000000E+00 -0.00000000000E+00 -0.12536372150E+04  0.12536372150E+04  0.00000000000E+00 0.  1.
    2000013    1    1    2    0    0 -0.36119628637E+03  0.87937022402E+03  0.83663666425E+03  0.15831031729E+04  0.95000000000E+03 0.  0.
   -2000013    1    1    2    0    0  0.36119628637E+03 -0.87937022402E+03 -0.36749885431E+03  0.13933090670E+04  0.95000000000E+03 0.  0.
<mgrwt>
<rscale>  0 0.29392073E+04</rscale>
<asrwt>0</asrwt>
<pdfrwt beam="2">  1        2 0.19286726E+00 0.29392073E+04</pdfrwt>
<pdfrwt beam="1">  1       -2 0.26504231E+00 0.29392073E+04</pdfrwt>
<totfact> 0.78688470E-01</totfact>
</mgrwt>
</event>
<event>
 4    1  0.1308745E-008  0.2435916E+04  0.7816531E-02  0.8426178E-01
         -2   -1    0    0    0  501 -0.00000000000E+00  0.00000000000E+00  0.10820895169E+04  0.10820895169E+04  0.00000000000E+00 0. -1.
          2   -1    0    0  501    0  0.00000000000E+00 -0.00000000000E+00 -0.13708859702E+04  0.13708859702E+04  0.00000000000E+00 0.  1.
    2000013    1    1    2    0    0 -0.19081110241E+02  0.74157803236E+03  0.31810888826E+02  0.12057420949E+04  0.95000000000E+03 0.  0.
   -2000013    1    1    2    0    0  0.19081110241E+02 -0.74157803236E+03 -0.32060734214E+03  0.12472333922E+04  0.95000000000E+03 0.  0.
<mgrwt>
<rscale>  0 0.24359157E+04</rscale>
<asrwt>0</asrwt>
<pdfrwt beam="2">  1        2 0.21090553E+00 0.24359157E+04</pdfrwt>
<pdfrwt beam="1">  1       -2 0.16647531E+00 0.24359157E+04</pdfrwt>
<totfact> 0.30462800E+00</totfact>
</mgrwt>
</event>
<event>
 4    1  0.1308745E-008  0.2715075E+04  0.7816531E-02  0.8330130E-01
         -2   -1    0    0    0  501 -0.00000000000E+00  0.00000000000E+00  0.16622889198E+04  0.16622889198E+04  0.00000000000E+00 0. -1.
          2   -1    0    0  501    0  0.00000000000E+00 -0.00000000000E+00 -0.11086566035E+04  0.11086566035E+04  0.00000000000E+00 0.  1.
    2000013    1    1    2    0    0 -0.14981370124E+03 -0.95196028913E+03  0.16625853438E+03  0.13633834521E+04  0.95000000000E+03 0.  0.
   -2000013    1    1    2    0    0  0.14981370124E+03  0.95196028913E+03  0.38737378191E+03  0.14075620711E+04  0.95000000000E+03 0.  0.
<mgrwt>
<rscale>  0 0.27150746E+04</rscale>
<asrwt>0</asrwt>
<pdfrwt beam="2">  1        2 0.17056255E+00 0.27150746E+04</pdfrwt>
<pdfrwt beam="1">  1       -2 0.25573676E+00 0.27150746E+04</pdfrwt>
<totfact> 0.11172054E+00</totfact>
</mgrwt>
</event>
<event>
 4    1  0.1308745E-008  0.2515985E+04  0.7816531E-02  0.8397313E-01
          2   -1    0    0  501    0  0.00000000000E+00  0.00000000000E+00  0.27568852459E+04  0.27568852459E+04  0.00000000000E+00 0.  1.
         -2   -1    0    0    0  501 -0.00000000000E+00 -0.00000000000E+00 -0.57403386916E+03  0.57403386916E+03  0.00000000000E+00 0. -1.
    2000013    1    1    2    0    0  0.35038494190E+03 -0.27478927937E+03  0.17251268131E+03  0.10632682544E+04  0.95000000000E+03 0.  0.
   -2000013    1    1    2    0    0 -0.35038494190E+03  0.27478927937E+03  0.20103386954E+04  0.22676508606E+04  0.95000000000E+03 0.  0.
<mgrwt>
<rscale>  0 0.25159853E+04</rscale>
<asrwt>0</asrwt>
<pdfrwt beam="1">  1        2 0.42413619E+00 0.25159853E+04</pdfrwt>
<pdfrwt beam="2">  1       -2 0.88312904E-01 0.25159853E+04</pdfrwt>
<totfact> 0.24138620E+00</totfact>
</mgrwt>
</event>
<event>
 4    1  0.1308745E-008  0.2090909E+04  0.7816531E-02  0.8565259E-01
          2   -1    0    0  501    0  0.00000000000E+00  0.00000000000E+00  0.10602324548E+04  0.10602324548E+04  0.00000000000E+00 0.  1.
         -2   -1    0    0    0  501 -0.00000000000E+00 -0.00000000000E+00 -0.10308827276E+04  0.10308827276E+04  0.00000000000E+00 0. -1.
    2000013    1    1    2    0    0  0.42555775441E+03 -0.40677172491E+02  0.10255439261E+03  0.10467910193E+04  0.95000000000E+03 0.  0.
   -2000013    1    1    2    0    0 -0.42555775441E+03  0.40677172491E+02 -0.73204665435E+02  0.10443241632E+04  0.95000000000E+03 0.  0.
<mgrwt>
<rscale>  0 0.20909092E+04</rscale>
<asrwt>0</asrwt>
<pdfrwt beam="1">  1        2 0.16311269E+00 0.20909092E+04</pdfrwt>
<pdfrwt beam="2">  1       -2 0.15859734E+00 0.20909092E+04</pdfrwt>
<totfact> 0.54874251E+00</totfact>
</mgrwt>
</event>
<event>
 4    1  0.1308745E-008  0.2427584E+04  0.7816531E-02  0.8429248E-01
          2   -1    0    0  501    0  0.00000000000E+00  0.00000000000E+00  0.42952655559E+04  0.42952655559E+04  0.00000000000E+00 0. -1.
         -2   -1    0    0    0  501 -0.00000000000E+00 -0.00000000000E+00 -0.34300354791E+03  0.34300354791E+03  0.00000000000E+00 0.  1.
    2000013    1    1    2    0    0 -0.56810617688E+03  0.13048208747E+03  0.10577826023E+04  0.15366112837E+04  0.95000000000E+03 0.  0.
   -2000013    1    1    2    0    0  0.56810617688E+03 -0.13048208747E+03  0.28944794057E+04  0.31016578201E+04  0.95000000000E+03 0.  0.
<mgrwt>
<rscale>  0 0.24275843E+04</rscale>
<asrwt>0</asrwt>
<pdfrwt beam="1">  1        2 0.66081005E+00 0.24275843E+04</pdfrwt>
<pdfrwt beam="2">  1       -2 0.52769779E-01 0.24275843E+04</pdfrwt>
<totfact> 0.58564532E-01</totfact>
</mgrwt>
</event>
<event>
 4    1  0.1308745E-008  0.2084632E+04  0.7816531E-02  0.8568043E-01
         -2   -1    0    0    0  501 -0.00000000000E+00  0.00000000000E+00  0.57117327328E+03  0.57117327328E+03  0.00000000000E+00 0. -1.
          2   -1    0    0  501    0  0.00000000000E+00 -0.00000000000E+00 -0.19020894999E+04  0.19020894999E+04  0.00000000000E+00 0.  1.
    2000013    1    1    2    0    0 -0.36281468201E+03 -0.10489730742E+03 -0.90652394958E+03  0.13663541304E+04  0.95000000000E+03 0.  0.
   -2000013    1    1    2    0    0  0.36281468201E+03  0.10489730742E+03 -0.42439227705E+03  0.11069086428E+04  0.95000000000E+03 0.  0.
<mgrwt>
<rscale>  0 0.20846320E+04</rscale>
<asrwt>0</asrwt>
<pdfrwt beam="2">  1        2 0.29262916E+00 0.20846320E+04</pdfrwt>
<pdfrwt beam="1">  1       -2 0.87872811E-01 0.20846320E+04</pdfrwt>
<totfact> 0.78025129E+00</totfact>
</mgrwt>
</event>
<event>
 4    1  0.1308745E-008  0.2149347E+04  0.7816531E-02  0.8539812E-01
         -2   -1    0    0    0  501 -0.00000000000E+00  0.00000000000E+00  0.19236293515E+04  0.19236293515E+04  0.00000000000E+00 0.  1.
          2   -1    0    0  501    0  0.00000000000E+00 -0.00000000000E+00 -0.60038737544E+03  0.60038737544E+03  0.00000000000E+00 0. -1.
    2000013    1    1    2    0    0 -0.98083048092E+02  0.37429455437E+03  0.28527799339E+03  0.10647066409E+04  0.95000000000E+03 0.  0.
   -2000013    1    1    2    0    0  0.98083048092E+02 -0.37429455437E+03  0.10379639827E+04  0.14593100860E+04  0.95000000000E+03 0.  0.
<mgrwt>
<rscale>  0 0.21493467E+04</rscale>
<asrwt>0</asrwt>
<pdfrwt beam="2">  1        2 0.92367289E-01 0.21493467E+04</pdfrwt>
<pdfrwt beam="1">  1       -2 0.29594297E+00 0.21493467E+04</pdfrwt>
<totfact> 0.15316494E+00</totfact>
</mgrwt>
</event>
<event>
 4    1  0.1308745E-008  0.2189766E+04  0.7816531E-02  0.8522700E-01
          2   -1    0    0  501    0  0.00000000000E+00  0.00000000000E+00  0.20256459637E+04  0.20256459637E+04  0.00000000000E+00 0.  1.
         -2   -1    0    0    0  501 -0.00000000000E+00 -0.00000000000E+00 -0.59179603870E+03  0.59179603870E+03  0.00000000000E+00 0. -1.
    2000013    1    1    2    0    0  0.37240698755E+03 -0.36024667550E+03  0.91623895953E+03  0.14179063659E+04  0.95000000000E+03 0.  0.
   -2000013    1    1    2    0    0 -0.37240698755E+03  0.36024667550E+03  0.51761096547E+03  0.11995356365E+04  0.95000000000E+03 0.  0.
<mgrwt>
<rscale>  0 0.21897664E+04</rscale>
<asrwt>0</asrwt>
<pdfrwt beam="1">  1        2 0.31163784E+00 0.21897664E+04</pdfrwt>
<pdfrwt beam="2">  1       -2 0.91045545E-01 0.21897664E+04</pdfrwt>
<totfact> 0.60849632E+00</totfact>
</mgrwt>
</event>
<event>
 4    1  0.1308745E-008  0.2490964E+04  0.7816531E-02  0.8406212E-01
          2   -1    0    0  501    0  0.00000000000E+00  0.00000000000E+00  0.25384013932E+04  0.25384013932E+04  0.00000000000E+00 0.  1.
         -2   -1    0    0    0  501 -0.00000000000E+00 -0.00000000000E+00 -0.61110332728E+03  0.61110332728E+03  0.00000000000E+00 0. -1.
    2000013    1    1    2    0    0  0.64385618686E+03  0.29946597147E+03  0.48302993472E+03  0.12806438128E+04  0.95000000000E+03 0.  0.
   -2000013    1    1    2    0    0 -0.64385618686E+03 -0.29946597147E+03  0.14442681312E+04  0.18688609077E+04  0.95000000000E+03 0.  0.
<mgrwt>
<rscale>  0 0.24909641E+04</rscale>
<asrwt>0</asrwt>
<pdfrwt beam="1">  1        2 0.39052329E+00 0.24909641E+04</pdfrwt>
<pdfrwt beam="2">  1       -2 0.94015898E-01 0.24909641E+04</pdfrwt>
<totfact> 0.28179341E+00</totfact>
</mgrwt>
</event>
<event>
 4    1  0.1308745E-008  0.4096884E+04  0.7816531E-02  0.7985282E-01
          2   -1    0    0  501    0  0.00000000000E+00  0.00000000000E+00  0.33224801795E+04  0.33224801795E+04  0.00000000000E+00 0.  1.
         -2   -1    0    0    0  501 -0.00000000000E+00 -0.00000000000E+00 -0.12629462161E+04  0.12629462161E+04  0.00000000000E+00 0. -1.
    2000013    1    1    2    0    0  0.53199334071E+03  0.17230219482E+04  0.12585763677E+04  0.23954824194E+04  0.95000000000E+03 0.  0.
   -2000013    1    1    2    0    0 -0.53199334071E+03 -0.17230219482E+04  0.80095759572E+03  0.21899439761E+04  0.95000000000E+03 0.  0.
<mgrwt>
<rscale>  0 0.40968836E+04</rscale>
<asrwt>0</asrwt>
<pdfrwt beam="1">  1        2 0.51115080E+00 0.40968836E+04</pdfrwt>
<pdfrwt beam="2">  1       -2 0.19429942E+00 0.40968836E+04</pdfrwt>
<totfact> 0.12201126E-01</totfact>
</mgrwt>
</event>
<event>
 4    1  0.1308745E-008  0.2554921E+04  0.7816531E-02  0.8383677E-01
         -2   -1    0    0    0  501 -0.00000000000E+00  0.00000000000E+00  0.90033499551E+03  0.90033499551E+03  0.00000000000E+00 0. -1.
          2   -1    0    0  501    0  0.00000000000E+00 -0.00000000000E+00 -0.18125535091E+04  0.18125535091E+04  0.00000000000E+00 0.  1.
    2000013    1    1    2    0    0 -0.69295306265E+03  0.39651303516E+03 -0.77817578934E+03  0.14647402818E+04  0.95000000000E+03 0.  0.
   -2000013    1    1    2    0    0  0.69295306265E+03 -0.39651303516E+03 -0.13404272423E+03  0.12481482228E+04  0.95000000000E+03 0.  0.
<mgrwt>
<rscale>  0 0.25549210E+04</rscale>
<asrwt>0</asrwt>
<pdfrwt beam="2">  1        2 0.27885438E+00 0.25549210E+04</pdfrwt>
<pdfrwt beam="1">  1       -2 0.13851308E+00 0.25549210E+04</pdfrwt>
<totfact> 0.27842463E+00</totfact>
</mgrwt>
</event>
<event>
 4    1  0.1308745E-008  0.3314974E+04  0.7816531E-02  0.8159096E-01
         -1   -1    0    0    0  501 -0.00000000000E+00  0.00000000000E+00  0.19724458331E+04  0.19724458331E+04  0.00000000000E+00 0. -1.
          1   -1    0    0  501    0  0.00000000000E+00 -0.00000000000E+00 -0.13928207057E+04  0.13928207057E+04  0.00000000000E+00 0.  1.
    2000013    1    1    2    0    0 -0.89266322997E+03 -0.34734872793E+03 -0.68774235558E+03  0.15142616447E+04  0.95000000000E+03 0.  0.
   -2000013    1    1    2    0    0  0.89266322997E+03  0.34734872793E+03  0.12673674830E+04  0.18510048941E+04  0.95000000000E+03 0.  0.
<mgrwt>
<rscale>  0 0.33149741E+04</rscale>
<asrwt>0</asrwt>
<pdfrwt beam="2">  1        1 0.21428011E+00 0.33149741E+04</pdfrwt>
<pdfrwt beam="1">  1       -1 0.30345320E+00 0.33149741E+04</pdfrwt>
<totfact> 0.20196290E-01</totfact>
</mgrwt>
</event>
<event>
 4    1  0.1308745E-008  0.2654439E+04  0.7816531E-02  0.8349941E-01
          2   -1    0    0  501    0  0.00000000000E+00  0.00000000000E+00  0.22986953931E+04  0.22986953931E+04  0.00000000000E+00 0.  1.
         -2   -1    0    0    0  501 -0.00000000000E+00 -0.00000000000E+00 -0.76630908445E+03  0.76630908445E+03  0.00000000000E+00 0. -1.
    2000013    1    1    2    0    0  0.11332006485E+03 -0.85359803720E+03  0.37032417150E+03  0.13345827206E+04  0.95000000000E+03 0.  0.
   -2000013    1    1    2    0    0 -0.11332006485E+03  0.85359803720E+03  0.11620621371E+04  0.17304217569E+04  0.95000000000E+03 0.  0.
<mgrwt>
<rscale>  0 0.26544387E+04</rscale>
<asrwt>0</asrwt>
<pdfrwt beam="1">  1        2 0.35364544E+00 0.26544387E+04</pdfrwt>
<pdfrwt beam="2">  1       -2 0.11789371E+00 0.26544387E+04</pdfrwt>
<totfact> 0.22184553E+00</totfact>
</mgrwt>
</event>
<event>
 4    1  0.1308745E-008  0.2142117E+04  0.7816531E-02  0.8542914E-01
          4   -1    0    0  501    0  0.00000000000E+00  0.00000000000E+00  0.10534325354E+04  0.10534325354E+04  0.00000000000E+00 0.  1.
         -4   -1    0    0    0  501 -0.00000000000E+00 -0.00000000000E+00 -0.10889795080E+04  0.10889795080E+04  0.00000000000E+00 0. -1.
    2000013    1    1    2    0    0  0.38887784392E+03 -0.19004482862E+03  0.22168259529E+03  0.10672329584E+04  0.95000000000E+03 0.  0.
   -2000013    1    1    2    0    0 -0.38887784392E+03  0.19004482862E+03 -0.25722956787E+03  0.10751790851E+04  0.95000000000E+03 0.  0.
<mgrwt>
<rscale>  0 0.21421171E+04</rscale>
<asrwt>0</asrwt>
<pdfrwt beam="1">  1        4 0.16206654E+00 0.21421171E+04</pdfrwt>
<pdfrwt beam="2">  1       -4 0.16753531E+00 0.21421171E+04</pdfrwt>
<totfact> 0.97704900E-02</totfact>
</mgrwt>
</event>
<event>
 4    1  0.1308745E-008  0.2563948E+04  0.7816531E-02  0.8380551E-01
         -2   -1    0    0    0  501 -0.00000000000E+00  0.00000000000E+00  0.13983982166E+04  0.13983982166E+04  0.00000000000E+00 0. -1.
          2   -1    0    0  501    0  0.00000000000E+00 -0.00000000000E+00 -0.11752427984E+04  0.11752427984E+04  0.00000000000E+00 0.  1.
    2000013    1    1    2    0    0  0.13635108369E+03  0.82671310742E+03 -0.86427380387E+02  0.12696518704E+04  0.95000000000E+03 0.  0.
   -2000013    1    1    2    0    0 -0.13635108369E+03 -0.82671310742E+03  0.30958279851E+03  0.13039891446E+04  0.95000000000E+03 0.  0.
<mgrwt>
<rscale>  0 0.25639481E+04</rscale>
<asrwt>0</asrwt>
<pdfrwt beam="2">  1        2 0.18080658E+00 0.25639481E+04</pdfrwt>
<pdfrwt beam="1">  1       -2 0.21513819E+00 0.25639481E+04</pdfrwt>
<totfact> 0.18455469E+00</totfact>
</mgrwt>
</event>
<event>
 4    1  0.1308745E-008  0.2606638E+04  0.7816531E-02  0.8365950E-01
         -1   -1    0    0    0  501 -0.00000000000E+00  0.00000000000E+00  0.11500955682E+04  0.11500955682E+04  0.00000000000E+00 0. -1.
          1   -1    0    0  501    0  0.00000000000E+00 -0.00000000000E+00 -0.14769553761E+04  0.14769553761E+04  0.00000000000E+00 0.  1.
    2000013    1    1    2    0    0  0.79444025191E+03 -0.22852394104E+03  0.17502939241E+03  0.12714140921E+04  0.95000000000E+03 0.  0.
   -2000013    1    1    2    0    0 -0.79444025191E+03  0.22852394104E+03 -0.50188920033E+03  0.13556368521E+04  0.95000000000E+03 0.  0.
<mgrwt>
<rscale>  0 0.26066376E+04</rscale>
<asrwt>0</asrwt>
<pdfrwt beam="2">  1        1 0.22722390E+00 0.26066376E+04</pdfrwt>
<pdfrwt beam="1">  1       -1 0.17693778E+00 0.26066376E+04</pdfrwt>
<totfact> 0.13083402E+00</totfact>
</mgrwt>
</event>
<event>
 4    1  0.1308745E-008  0.2667941E+04  0.7816531E-02  0.8345482E-01
          2   -1    0    0  501    0  0.00000000000E+00  0.00000000000E+00  0.29852346601E+04  0.29852346601E+04  0.00000000000E+00 0.  1.
         -2   -1    0    0    0  501 -0.00000000000E+00 -0.00000000000E+00 -0.59609311839E+03  0.59609311839E+03  0.00000000000E+00 0. -1.
    2000013    1    1    2    0    0 -0.57376297041E+03 -0.69947015834E+03  0.86985541096E+03  0.15740428471E+04  0.95000000000E+03 0.  0.
   -2000013    1    1    2    0    0  0.57376297041E+03  0.69947015834E+03  0.15192861308E+04  0.20072849314E+04  0.95000000000E+03 0.  0.
<mgrwt>
<rscale>  0 0.26679414E+04</rscale>
<asrwt>0</asrwt>
<pdfrwt beam="1">  1        2 0.45926686E+00 0.26679414E+04</pdfrwt>
<pdfrwt beam="2">  1       -2 0.91706635E-01 0.26679414E+04</pdfrwt>
<totfact> 0.15826562E+00</totfact>
</mgrwt>
</event>
<event>
 4    1  0.1308745E-008  0.2623484E+04  0.7816531E-02  0.8360268E-01
          2   -1    0    0  501    0  0.00000000000E+00  0.00000000000E+00  0.81230554351E+03  0.81230554351E+03  0.00000000000E+00 0.  1.
         -2   -1    0    0    0  501 -0.00000000000E+00 -0.00000000000E+00 -0.21182511866E+04  0.21182511866E+04  0.00000000000E+00 0. -1.
    2000013    1    1    2    0    0  0.76034291781E+03 -0.10730247448E+03 -0.11896795232E+03  0.12273094750E+04  0.95000000000E+03 0.  0.
   -2000013    1    1    2    0    0 -0.76034291781E+03  0.10730247448E+03 -0.11869776907E+04  0.17032472551E+04  0.95000000000E+03 0.  0.
<mgrwt>
<rscale>  0 0.26234841E+04</rscale>
<asrwt>0</asrwt>
<pdfrwt beam="1">  1        2 0.12497009E+00 0.26234841E+04</pdfrwt>
<pdfrwt beam="2">  1       -2 0.32588479E+00 0.26234841E+04</pdfrwt>
<totfact> 0.65614122E-01</totfact>
</mgrwt>
</event>
<event>
 4    1  0.1308745E-008  0.2721391E+04  0.7816531E-02  0.8328098E-01
         -2   -1    0    0    0  501 -0.00000000000E+00  0.00000000000E+00  0.10786871277E+04  0.10786871277E+04  0.00000000000E+00 0. -1.
          2   -1    0    0  501    0  0.00000000000E+00 -0.00000000000E+00 -0.17164310864E+04  0.17164310864E+04  0.00000000000E+00 0.  1.
    2000013    1    1    2    0    0 -0.75353797382E+03  0.12905565024E+02 -0.95285146870E+03  0.15422100872E+04  0.95000000000E+03 0.  0.
   -2000013    1    1    2    0    0  0.75353797382E+03 -0.12905565024E+02  0.31510750997E+03  0.12529081269E+04  0.95000000000E+03 0.  0.
<mgrwt>
<rscale>  0 0.27213909E+04</rscale>
<asrwt>0</asrwt>
<pdfrwt beam="2">  1        2 0.26406632E+00 0.27213909E+04</pdfrwt>
<pdfrwt beam="1">  1       -2 0.16595187E+00 0.27213909E+04</pdfrwt>
<totfact> 0.19166233E+00</totfact>
</mgrwt>
</event>
<event>
 4    1  0.1308745E-008  0.2318256E+04  0.7816531E-02  0.8470758E-01
          4   -1    0    0  501    0  0.00000000000E+00  0.00000000000E+00  0.13205528035E+04  0.13205528035E+04  0.00000000000E+00 0.  1.
         -4   -1    0    0    0  501 -0.00000000000E+00 -0.00000000000E+00 -0.10174360999E+04  0.10174360999E+04  0.00000000000E+00 0. -1.
    2000013    1    1    2    0    0  0.51351857023E+03 -0.35430048043E+03  0.38119793666E+03  0.11987668745E+04  0.95000000000E+03 0.  0.
   -2000013    1    1    2    0    0 -0.51351857023E+03  0.35430048043E+03 -0.78081233079E+02  0.11392220290E+04  0.95000000000E+03 0.  0.
<mgrwt>
<rscale>  0 0.23182563E+04</rscale>
<asrwt>0</asrwt>
<pdfrwt beam="1">  1        4 0.20316197E+00 0.23182563E+04</pdfrwt>
<pdfrwt beam="2">  1       -4 0.15652863E+00 0.23182563E+04</pdfrwt>
<totfact> 0.60230610E-02</totfact>
</mgrwt>
</event>
<event>
 4    1  0.1308745E-008  0.2357189E+04  0.7816531E-02  0.8455708E-01
          2   -1    0    0  501    0  0.00000000000E+00  0.00000000000E+00  0.17862959738E+04  0.17862959738E+04  0.00000000000E+00 0.  1.
         -2   -1    0    0    0  501 -0.00000000000E+00 -0.00000000000E+00 -0.77763410894E+03  0.77763410894E+03  0.00000000000E+00 0. -1.
    2000013    1    1    2    0    0 -0.55120075359E+03  0.22875144322E+03  0.11149681408E+03  0.11274222958E+04  0.95000000000E+03 0.  0.
   -2000013    1    1    2    0    0  0.55120075359E+03 -0.22875144322E+03  0.89716505076E+03  0.14365077869E+04  0.95000000000E+03 0.  0.
<mgrwt>
<rscale>  0 0.23571887E+04</rscale>
<asrwt>0</asrwt>
<pdfrwt beam="1">  1        2 0.27481477E+00 0.23571887E+04</pdfrwt>
<pdfrwt beam="2">  1       -2 0.11963602E+00 0.23571887E+04</pdfrwt>
<totfact> 0.42400134E+00</totfact>
</mgrwt>
</event>
<event>
 4    1  0.1308745E-008  0.1976050E+04  0.7816531E-02  0.8617901E-01
          2   -1    0    0  501    0  0.00000000000E+00  0.00000000000E+00  0.28288799400E+04  0.28288799400E+04  0.00000000000E+00 0.  1.
         -2   -1    0    0    0  501 -0.00000000000E+00 -0.00000000000E+00 -0.34508125083E+03  0.34508125083E+03  0.00000000000E+00 0. -1.
    2000013    1    1    2    0    0  0.26579496885E+03 -0.49981177203E+02  0.12042869950E+04  0.15575468692E+04  0.95000000000E+03 0.  0.
   -2000013    1    1    2    0    0 -0.26579496885E+03  0.49981177203E+02  0.12795116942E+04  0.16164143216E+04  0.95000000000E+03 0.  0.
<mgrwt>
<rscale>  0 0.19760500E+04</rscale>
<asrwt>0</asrwt>
<pdfrwt beam="1">  1        2 0.43521228E+00 0.19760500E+04</pdfrwt>
<pdfrwt beam="2">  1       -2 0.53089425E-01 0.19760500E+04</pdfrwt>
<totfact> 0.69285582E+00</totfact>
</mgrwt>
</event>
<event>
 4    1  0.1308745E-008  0.2053569E+04  0.7816531E-02  0.8581977E-01
         -2   -1    0    0    0  501 -0.00000000000E+00  0.00000000000E+00  0.48634894366E+03  0.48634894366E+03  0.00000000000E+00 0. -1.
          2   -1    0    0  501    0  0.00000000000E+00 -0.00000000000E+00 -0.21677577715E+04  0.21677577715E+04  0.00000000000E+00 0.  1.
    2000013    1    1    2    0    0  0.33255899148E+03 -0.15372041471E+03 -0.10119765750E+04  0.14355563510E+04  0.95000000000E+03 0.  0.
   -2000013    1    1    2    0    0 -0.33255899148E+03  0.15372041471E+03 -0.66943225285E+03  0.12185503641E+04  0.95000000000E+03 0.  0.
<mgrwt>
<rscale>  0 0.20535693E+04</rscale>
<asrwt>0</asrwt>
<pdfrwt beam="2">  1        2 0.33350119E+00 0.20535693E+04</pdfrwt>
<pdfrwt beam="1">  1       -2 0.74822915E-01 0.20535693E+04</pdfrwt>
<totfact> 0.79941500E+00</totfact>
</mgrwt>
</event>
<event>
 4    1  0.1308745E-008  0.2175837E+04  0.7816531E-02  0.8528553E-01
         -2   -1    0    0    0  501 -0.00000000000E+00  0.00000000000E+00  0.97897681616E+03  0.97897681616E+03  0.00000000000E+00 0. -1.
          2   -1    0    0  501    0  0.00000000000E+00 -0.00000000000E+00 -0.12089832877E+04  0.12089832877E+04  0.00000000000E+00 0.  1.
    2000013    1    1    2    0    0  0.41780905039E+03  0.26874210175E+03 -0.30118312172E+03  0.11135519712E+04  0.95000000000E+03 0.  0.
   -2000013    1    1    2    0    0 -0.41780905039E+03 -0.26874210175E+03  0.71176650214E+02  0.10744081326E+04  0.95000000000E+03 0.  0.
<mgrwt>
<rscale>  0 0.21758370E+04</rscale>
<asrwt>0</asrwt>
<pdfrwt beam="2">  1        2 0.18599743E+00 0.21758370E+04</pdfrwt>
<pdfrwt beam="1">  1       -2 0.15061182E+00 0.21758370E+04</pdfrwt>
<totfact> 0.50788636E+00</totfact>
</mgrwt>
</event>
<event>
 4    1  0.1308745E-008  0.3043317E+04  0.7816531E-02  0.8231468E-01
         -2   -1    0    0    0  501 -0.00000000000E+00  0.00000000000E+00  0.19520506828E+04  0.19520506828E+04  0.00000000000E+00 0. -1.
          2   -1    0    0  501    0  0.00000000000E+00 -0.00000000000E+00 -0.11861603968E+04  0.11861603968E+04  0.00000000000E+00 0.  1.
    2000013    1    1    2    0    0  0.22571481405E+03  0.88655154229E+03 -0.39968278290E+03  0.13781027325E+04  0.95000000000E+03 0.  0.
   -2000013    1    1    2    0    0 -0.22571481405E+03 -0.88655154229E+03  0.11655730689E+04  0.17601083471E+04  0.95000000000E+03 0.  0.
<mgrwt>
<rscale>  0 0.30433174E+04</rscale>
<asrwt>0</asrwt>
<pdfrwt beam="2">  1        2 0.18248622E+00 0.30433174E+04</pdfrwt>
<pdfrwt beam="1">  1       -2 0.30031549E+00 0.30433174E+04</pdfrwt>
<totfact> 0.52104399E-01</totfact>
</mgrwt>
</event>
<event>
 4    1  0.1308745E-008  0.3811403E+04  0.7816531E-02  0.8043712E-01
          2   -1    0    0  501    0  0.00000000000E+00  0.00000000000E+00  0.19569147824E+04  0.19569147824E+04  0.00000000000E+00 0.  1.
         -2   -1    0    0    0  501 -0.00000000000E+00 -0.00000000000E+00 -0.18558287313E+04  0.18558287313E+04  0.00000000000E+00 0. -1.
    2000013    1    1    2    0    0 -0.96130929878E+03 -0.12003392183E+04  0.65430216950E+03  0.19223790302E+04  0.95000000000E+03 0.  0.
   -2000013    1    1    2    0    0  0.96130929878E+03  0.12003392183E+04 -0.55321611836E+03  0.18903644835E+04  0.95000000000E+03 0.  0.
<mgrwt>
<rscale>  0 0.38114032E+04</rscale>
<asrwt>0</asrwt>
<pdfrwt beam="1">  1        2 0.30106381E+00 0.38114032E+04</pdfrwt>
<pdfrwt beam="2">  1       -2 0.28551211E+00 0.38114032E+04</pdfrwt>
<totfact> 0.22043456E-01</totfact>
</mgrwt>
</event>
<event>
 4    1  0.1308745E-008  0.2499096E+04  0.7816531E-02  0.8403308E-01
         -2   -1    0    0    0  501 -0.00000000000E+00  0.00000000000E+00  0.91376801831E+03  0.91376801831E+03  0.00000000000E+00 0. -1.
          2   -1    0    0  501    0  0.00000000000E+00 -0.00000000000E+00 -0.17087161701E+04  0.17087161701E+04  0.00000000000E+00 0.  1.
    2000013    1    1    2    0    0  0.60824882994E+03 -0.51420579473E+03 -0.23323477561E+03  0.12614565783E+04  0.95000000000E+03 0.  0.
   -2000013    1    1    2    0    0 -0.60824882994E+03  0.51420579473E+03 -0.56171337621E+03  0.13610276101E+04  0.95000000000E+03 0.  0.
<mgrwt>
<rscale>  0 0.24990960E+04</rscale>
<asrwt>0</asrwt>
<pdfrwt beam="2">  1        2 0.26287941E+00 0.24990960E+04</pdfrwt>
<pdfrwt beam="1">  1       -2 0.14057970E+00 0.24990960E+04</pdfrwt>
<totfact> 0.30739861E+00</totfact>
</mgrwt>
</event>
<event>
 4    1  0.1308745E-008  0.4927144E+04  0.7816531E-02  0.7839845E-01
         -2   -1    0    0    0  501 -0.00000000000E+00  0.00000000000E+00  0.19242935297E+04  0.19242935297E+04  0.00000000000E+00 0. -1.
          2   -1    0    0  501    0  0.00000000000E+00 -0.00000000000E+00 -0.31539825326E+04  0.31539825326E+04  0.00000000000E+00 0.  1.
    2000013    1    1    2    0    0  0.19058661671E+04  0.12208608559E+04 -0.39899016077E+03  0.24868695633E+04  0.95000000000E+03 0.  0.
   -2000013    1    1    2    0    0 -0.19058661671E+04 -0.12208608559E+04 -0.83069884210E+03  0.25914064989E+04  0.95000000000E+03 0.  0.
<mgrwt>
<rscale>  0 0.49271445E+04</rscale>
<asrwt>0</asrwt>
<pdfrwt beam="2">  1        2 0.48522807E+00 0.49271445E+04</pdfrwt>
<pdfrwt beam="1">  1       -2 0.29604516E+00 0.49271445E+04</pdfrwt>
<totfact> 0.34155728E-02</totfact>
</mgrwt>
</event>
<event>
 4    1  0.1308745E-008  0.3326661E+04  0.7816531E-02  0.8156144E-01
         -2   -1    0    0    0  501 -0.00000000000E+00  0.00000000000E+00  0.12727541200E+04  0.12727541200E+04  0.00000000000E+00 0. -1.
          2   -1    0    0  501    0  0.00000000000E+00 -0.00000000000E+00 -0.21737653384E+04  0.21737653384E+04  0.00000000000E+00 0.  1.
    2000013    1    1    2    0    0 -0.13199289713E+04  0.34342289958E+03 -0.38484214667E+03  0.17060935658E+04  0.95000000000E+03 0.  0.
   -2000013    1    1    2    0    0  0.13199289713E+04 -0.34342289958E+03 -0.51616907167E+03  0.17404258927E+04  0.95000000000E+03 0.  0.
<mgrwt>
<rscale>  0 0.33266613E+04</rscale>
<asrwt>0</asrwt>
<pdfrwt beam="2">  1        2 0.33442543E+00 0.33266613E+04</pdfrwt>
<pdfrwt beam="1">  1       -2 0.19580833E+00 0.33266613E+04</pdfrwt>
<totfact> 0.63114007E-01</totfact>
</mgrwt>
</event>
<event>
 4    1  0.1308745E-008  0.3578438E+04  0.7816531E-02  0.8095449E-01
         -2   -1    0    0    0  501 -0.00000000000E+00  0.00000000000E+00  0.15634277153E+04  0.15634277153E+04  0.00000000000E+00 0. -1.
          2   -1    0    0  501    0  0.00000000000E+00 -0.00000000000E+00 -0.20476191656E+04  0.20476191656E+04  0.00000000000E+00 0.  1.
    2000013    1    1    2    0    0  0.14799223313E+04  0.26817722309E+03 -0.48736939429E+02  0.17795967012E+04  0.95000000000E+03 0.  0.
   -2000013    1    1    2    0    0 -0.14799223313E+04 -0.26817722309E+03 -0.43545451097E+03  0.18314501797E+04  0.95000000000E+03 0.  0.
<mgrwt>
<rscale>  0 0.35784380E+04</rscale>
<asrwt>0</asrwt>
<pdfrwt beam="2">  1        2 0.31501833E+00 0.35784380E+04</pdfrwt>
<pdfrwt beam="1">  1       -2 0.24052734E+00 0.35784380E+04</pdfrwt>
<totfact> 0.37731189E-01</totfact>
</mgrwt>
</event>
<event>
 4    1  0.1308745E-008  0.2000403E+04  0.7816531E-02  0.8606432E-01
          2   -1    0    0  501    0  0.00000000000E+00  0.00000000000E+00  0.15646474583E+04  0.15646474583E+04  0.00000000000E+00 0.  1.
         -2   -1    0    0    0  501 -0.00000000000E+00 -0.00000000000E+00 -0.63937909649E+03  0.63937909649E+03  0.00000000000E+00 0. -1.
    2000013    1    1    2    0    0  0.25333721955E+03  0.18256104108E+03  0.44074766566E+03  0.10928251394E+04  0.95000000000E+03 0.  0.
   -2000013    1    1    2    0    0 -0.25333721955E+03 -0.18256104108E+03  0.48452069613E+03  0.11112014154E+04  0.95000000000E+03 0.  0.
<mgrwt>
<rscale>  0 0.20004028E+04</rscale>
<asrwt>0</asrwt>
<pdfrwt beam="1">  1        2 0.24071499E+00 0.20004028E+04</pdfrwt>
<pdfrwt beam="2">  1       -2 0.98366016E-01 0.20004028E+04</pdfrwt>
<totfact> 0.93140536E+00</totfact>
</mgrwt>
</event>
<event>
 4    1  0.1308745E-008  0.2819108E+04  0.7816531E-02  0.8297361E-01
         -2   -1    0    0    0  501 -0.00000000000E+00  0.00000000000E+00  0.90411216191E+03  0.90411216191E+03  0.00000000000E+00 0. -1.
          2   -1    0    0  501    0  0.00000000000E+00 -0.00000000000E+00 -0.21975616240E+04  0.21975616240E+04  0.00000000000E+00 0.  1.
    2000013    1    1    2    0    0  0.17749538151E+03  0.72377046460E+03  0.15349594233E+03  0.12171315871E+04  0.95000000000E+03 0.  0.
   -2000013    1    1    2    0    0 -0.17749538151E+03 -0.72377046460E+03 -0.14469454044E+04  0.18845421989E+04  0.95000000000E+03 0.  0.
<mgrwt>
<rscale>  0 0.28191078E+04</rscale>
<asrwt>0</asrwt>
<pdfrwt beam="2">  1        2 0.33808640E+00 0.28191078E+04</pdfrwt>
<pdfrwt beam="1">  1       -2 0.13909418E+00 0.28191078E+04</pdfrwt>
<totfact> 0.16438343E+00</totfact>
</mgrwt>
</event>
<event>
 4    1  0.1308745E-008  0.2097054E+04  0.7816531E-02  0.8562542E-01
         -2   -1    0    0    0  501 -0.00000000000E+00  0.00000000000E+00  0.52445012583E+03  0.52445012583E+03  0.00000000000E+00 0. -1.
          2   -1    0    0  501    0  0.00000000000E+00 -0.00000000000E+00 -0.20963071623E+04  0.20963071623E+04  0.00000000000E+00 0.  1.
    2000013    1    1    2    0    0 -0.38495374132E+03 -0.18476876713E+03 -0.93682918858E+03  0.14008846522E+04  0.95000000000E+03 0.  0.
   -2000013    1    1    2    0    0  0.38495374132E+03  0.18476876713E+03 -0.63502784790E+03  0.12198726359E+04  0.95000000000E+03 0.  0.
<mgrwt>
<rscale>  0 0.20970537E+04</rscale>
<asrwt>0</asrwt>
<pdfrwt beam="2">  1        2 0.32250880E+00 0.20970537E+04</pdfrwt>
<pdfrwt beam="1">  1       -2 0.80684633E-01 0.20970537E+04</pdfrwt>
<totfact> 0.73787518E+00</totfact>
</mgrwt>
</event>
<event>
 4    1  0.1308745E-008  0.2019232E+04  0.7816531E-02  0.8597682E-01
          2   -1    0    0  501    0  0.00000000000E+00  0.00000000000E+00  0.35886330599E+04  0.35886330599E+04  0.00000000000E+00 0. -1.
         -2   -1    0    0    0  501 -0.00000000000E+00 -0.00000000000E+00 -0.28404253482E+03  0.28404253482E+03  0.00000000000E+00 0.  1.
    2000013    1    1    2    0    0 -0.18276763619E+03  0.28346377355E+03  0.17585388947E+04  0.20269964884E+04  0.95000000000E+03 0.  0.
   -2000013    1    1    2    0    0  0.18276763619E+03 -0.28346377355E+03  0.15460516303E+04  0.18456791063E+04  0.95000000000E+03 0.  0.
<mgrwt>
<rscale>  0 0.20192320E+04</rscale>
<asrwt>0</asrwt>
<pdfrwt beam="1">  1        2 0.55209736E+00 0.20192320E+04</pdfrwt>
<pdfrwt beam="2">  1       -2 0.43698854E-01 0.20192320E+04</pdfrwt>
<totfact> 0.32605634E+00</totfact>
</mgrwt>
</event>
<event>
 4    1  0.1308745E-008  0.3281944E+04  0.7816531E-02  0.8167505E-01
          2   -1    0    0  501    0  0.00000000000E+00  0.00000000000E+00  0.48956768736E+04  0.48956768736E+04  0.00000000000E+00 0.  1.
         -2   -1    0    0    0  501 -0.00000000000E+00 -0.00000000000E+00 -0.55003420023E+03  0.55003420023E+03  0.00000000000E+00 0. -1.
    2000013    1    1    2    0    0  0.22822656163E+03  0.13175560102E+04  0.20941401620E+04  0.26600684618E+04  0.95000000000E+03 0.  0.
   -2000013    1    1    2    0    0 -0.22822656163E+03 -0.13175560102E+04  0.22515025114E+04  0.27856426121E+04  0.95000000000E+03 0.  0.
<mgrwt>
<rscale>  0 0.32819444E+04</rscale>
<asrwt>0</asrwt>
<pdfrwt beam="1">  1        2 0.75318103E+00 0.32819444E+04</pdfrwt>
<pdfrwt beam="2">  1       -2 0.84620649E-01 0.32819444E+04</pdfrwt>
<totfact> 0.46720775E-02</totfact>
</mgrwt>
</event>
<event>
 4    1  0.1308745E-008  0.2550651E+04  0.7816531E-02  0.8385160E-01
         -2   -1    0    0    0  501 -0.00000000000E+00  0.00000000000E+00  0.10056500320E+04  0.10056500320E+04  0.00000000000E+00 0. -1.
          2   -1    0    0  501    0  0.00000000000E+00 -0.00000000000E+00 -0.16173175171E+04  0.16173175171E+04  0.00000000000E+00 0.  1.
    2000013    1    1    2    0    0  0.68124683740E+03 -0.50957501122E+03 -0.32006322927E+03  0.13148020445E+04  0.95000000000E+03 0.  0.
   -2000013    1    1    2    0    0 -0.68124683740E+03  0.50957501122E+03 -0.29160425580E+03  0.13081655046E+04  0.95000000000E+03 0.  0.
<mgrwt>
<rscale>  0 0.25506512E+04</rscale>
<asrwt>0</asrwt>
<pdfrwt beam="2">  1        2 0.24881808E+00 0.25506512E+04</pdfrwt>
<pdfrwt beam="1">  1       -2 0.15471539E+00 0.25506512E+04</pdfrwt>
<totfact> 0.26726820E+00</totfact>
</mgrwt>
</event>
<event>
 4    1  0.1308745E-008  0.3787419E+04  0.7816531E-02  0.8048860E-01
         -2   -1    0    0    0  501 -0.00000000000E+00  0.00000000000E+00  0.10309753389E+04  0.10309753389E+04  0.00000000000E+00 0. -1.
          2   -1    0    0  501    0  0.00000000000E+00 -0.00000000000E+00 -0.34783921353E+04  0.34783921353E+04  0.00000000000E+00 0.  1.
    2000013    1    1    2    0    0 -0.11760033682E+03  0.14687067396E+04 -0.20762330089E+04  0.27173834535E+04  0.95000000000E+03 0.  0.
   -2000013    1    1    2    0    0  0.11760033682E+03 -0.14687067396E+04 -0.37118378744E+03  0.17919840207E+04  0.95000000000E+03 0.  0.
<mgrwt>
<rscale>  0 0.37874194E+04</rscale>
<asrwt>0</asrwt>
<pdfrwt beam="2">  1        2 0.53513724E+00 0.37874194E+04</pdfrwt>
<pdfrwt beam="1">  1       -2 0.15861159E+00 0.37874194E+04</pdfrwt>
<totfact> 0.17396779E-01</totfact>
</mgrwt>
</event>
<event>
 4    1  0.1308745E-008  0.3375517E+04  0.7816531E-02  0.8143942E-01
         -2   -1    0    0    0  501 -0.00000000000E+00  0.00000000000E+00  0.77633063480E+03  0.77633063480E+03  0.00000000000E+00 0. -1.
          2   -1    0    0  501    0  0.00000000000E+00 -0.00000000000E+00 -0.36692207863E+04  0.36692207863E+04  0.00000000000E+00 0.  1.
    2000013    1    1    2    0    0  0.81176302058E+03  0.11332925435E+04 -0.13777927774E+04  0.21781010372E+04  0.95000000000E+03 0.  0.
   -2000013    1    1    2    0    0 -0.81176302058E+03 -0.11332925435E+04 -0.15150973741E+04  0.22674503840E+04  0.95000000000E+03 0.  0.
<mgrwt>
<rscale>  0 0.33755169E+04</rscale>
<asrwt>0</asrwt>
<pdfrwt beam="2">  1        2 0.56449549E+00 0.33755169E+04</pdfrwt>
<pdfrwt beam="1">  1       -2 0.11943549E+00 0.33755169E+04</pdfrwt>
<totfact> 0.27377372E-01</totfact>
</mgrwt>
</event>
<event>
 4    1  0.1308745E-008  0.2210303E+04  0.7816531E-02  0.8514152E-01
         -1   -1    0    0    0  501 -0.00000000000E+00  0.00000000000E+00  0.11726892015E+04  0.11726892015E+04  0.00000000000E+00 0. -1.
          1   -1    0    0  501    0  0.00000000000E+00 -0.00000000000E+00 -0.10415033767E+04  0.10415033767E+04  0.00000000000E+00 0.  1.
    2000013    1    1    2    0    0 -0.44310501436E+03  0.31474614804E+03  0.21900473419E+03  0.11161855872E+04  0.95000000000E+03 0.  0.
   -2000013    1    1    2    0    0  0.44310501436E+03 -0.31474614804E+03 -0.87818909396E+02  0.10980069910E+04  0.95000000000E+03 0.  0.
<mgrwt>
<rscale>  0 0.22103029E+04</rscale>
<asrwt>0</asrwt>
<pdfrwt beam="2">  1        1 0.16023129E+00 0.22103029E+04</pdfrwt>
<pdfrwt beam="1">  1       -1 0.18041372E+00 0.22103029E+04</pdfrwt>
<totfact> 0.26451313E+00</totfact>
</mgrwt>
</event>
<event>
 4    1  0.1308745E-008  0.3094877E+04  0.7816531E-02  0.8217145E-01
         -2   -1    0    0    0  501 -0.00000000000E+00  0.00000000000E+00  0.24071333576E+04  0.24071333576E+04  0.00000000000E+00 0. -1.
          2   -1    0    0  501    0  0.00000000000E+00 -0.00000000000E+00 -0.99477879151E+03  0.99477879151E+03  0.00000000000E+00 0.  1.
    2000013    1    1    2    0    0 -0.83836032714E+03 -0.80508826055E+03  0.11190026852E+04  0.18723466973E+04  0.95000000000E+03 0.  0.
   -2000013    1    1    2    0    0  0.83836032714E+03  0.80508826055E+03  0.29335188093E+03  0.15295654518E+04  0.95000000000E+03 0.  0.
<mgrwt>
<rscale>  0 0.30948765E+04</rscale>
<asrwt>0</asrwt>
<pdfrwt beam="2">  1        2 0.15304289E+00 0.30948765E+04</pdfrwt>
<pdfrwt beam="1">  1       -2 0.37032821E+00 0.30948765E+04</pdfrwt>
<totfact> 0.24898617E-01</totfact>
</mgrwt>
</event>
<event>
 4    1  0.1308745E-008  0.3710350E+04  0.7816531E-02  0.8065672E-01
         -1   -1    0    0    0  501 -0.00000000000E+00  0.00000000000E+00  0.93161361497E+03  0.93161361497E+03  0.00000000000E+00 0. -1.
          1   -1    0    0  501    0  0.00000000000E+00 -0.00000000000E+00 -0.36943159174E+04  0.36943159174E+04  0.00000000000E+00 0.  1.
    2000013    1    1    2    0    0  0.12390898131E+04  0.57203005078E+03 -0.24068951017E+04  0.29254411589E+04  0.95000000000E+03 0.  0.
   -2000013    1    1    2    0    0 -0.12390898131E+04 -0.57203005078E+03 -0.35580720072E+03  0.17004883734E+04  0.95000000000E+03 0.  0.
<mgrwt>
<rscale>  0 0.37103504E+04</rscale>
<asrwt>0</asrwt>
<pdfrwt beam="2">  1        1 0.56835629E+00 0.37103504E+04</pdfrwt>
<pdfrwt beam="1">  1       -1 0.14332517E+00 0.37103504E+04</pdfrwt>
<totfact> 0.54973417E-02</totfact>
</mgrwt>
</event>
<event>
 4    1  0.1308745E-008  0.2294227E+04  0.7816531E-02  0.8480201E-01
          2   -1    0    0  501    0  0.00000000000E+00  0.00000000000E+00  0.12608017516E+04  0.12608017516E+04  0.00000000000E+00 0.  1.
         -2   -1    0    0    0  501 -0.00000000000E+00 -0.00000000000E+00 -0.10436763614E+04  0.10436763614E+04  0.00000000000E+00 0. -1.
    2000013    1    1    2    0    0 -0.56819411548E+03 -0.20302540055E+03 -0.11447705522E+03  0.11312244969E+04  0.95000000000E+03 0.  0.
   -2000013    1    1    2    0    0  0.56819411548E+03  0.20302540055E+03  0.33160244544E+03  0.11732536162E+04  0.95000000000E+03 0.  0.
<mgrwt>
<rscale>  0 0.22942267E+04</rscale>
<asrwt>0</asrwt>
<pdfrwt beam="1">  1        2 0.19396950E+00 0.22942267E+04</pdfrwt>
<pdfrwt beam="2">  1       -2 0.16056559E+00 0.22942267E+04</pdfrwt>
<totfact> 0.39445622E+00</totfact>
</mgrwt>
</event>
<event>
 4    1  0.1308745E-008  0.3145361E+04  0.7816531E-02  0.8203398E-01
          2   -1    0    0  501    0  0.00000000000E+00  0.00000000000E+00  0.97202588246E+03  0.97202588246E+03  0.00000000000E+00 0.  1.
         -2   -1    0    0    0  501 -0.00000000000E+00 -0.00000000000E+00 -0.25445049181E+04  0.25445049181E+04  0.00000000000E+00 0. -1.
    2000013    1    1    2    0    0  0.42299761821E+03 -0.11720468447E+04 -0.93708262179E+03  0.18257175661E+04  0.95000000000E+03 0.  0.
   -2000013    1    1    2    0    0 -0.42299761821E+03  0.11720468447E+04 -0.63539641387E+03  0.16908132345E+04  0.95000000000E+03 0.  0.
<mgrwt>
<rscale>  0 0.31453614E+04</rscale>
<asrwt>0</asrwt>
<pdfrwt beam="1">  1        2 0.14954244E+00 0.31453614E+04</pdfrwt>
<pdfrwt beam="2">  1       -2 0.39146230E+00 0.31453614E+04</pdfrwt>
<totfact> 0.18730260E-01</totfact>
</mgrwt>
</event>
<event>
 4    1  0.1308745E-008  0.3157532E+04  0.7816531E-02  0.8200124E-01
         -2   -1    0    0    0  501 -0.00000000000E+00  0.00000000000E+00  0.74414818401E+03  0.74414818401E+03  0.00000000000E+00 0. -1.
          2   -1    0    0  501    0  0.00000000000E+00 -0.00000000000E+00 -0.33494699768E+04  0.33494699768E+04  0.00000000000E+00 0.  1.
    2000013    1    1    2    0    0 -0.86940342899E+03 -0.91331093647E+03 -0.13004870149E+04  0.20454255462E+04  0.95000000000E+03 0.  0.
   -2000013    1    1    2    0    0  0.86940342899E+03  0.91331093647E+03 -0.13048347779E+04  0.20481926146E+04  0.95000000000E+03 0.  0.
<mgrwt>
<rscale>  0 0.31575319E+04</rscale>
<asrwt>0</asrwt>
<pdfrwt beam="2">  1        2 0.51530307E+00 0.31575319E+04</pdfrwt>
<pdfrwt beam="1">  1       -2 0.11448434E+00 0.31575319E+04</pdfrwt>
<totfact> 0.51924583E-01</totfact>
</mgrwt>
</event>
<event>
 4    1  0.1308745E-008  0.2323092E+04  0.7816531E-02  0.8468872E-01
          2   -1    0    0  501    0  0.00000000000E+00  0.00000000000E+00  0.14351962431E+04  0.14351962431E+04  0.00000000000E+00 0.  1.
         -2   -1    0    0    0  501 -0.00000000000E+00 -0.00000000000E+00 -0.94007281962E+03  0.94007281962E+03  0.00000000000E+00 0. -1.
    2000013    1    1    2    0    0  0.56641232188E+03  0.29019251247E+03  0.45623972339E+03  0.12311333388E+04  0.95000000000E+03 0.  0.
   -2000013    1    1    2    0    0 -0.56641232188E+03 -0.29019251247E+03  0.38883700103E+02  0.11441357239E+04  0.95000000000E+03 0.  0.
<mgrwt>
<rscale>  0 0.23230919E+04</rscale>
<asrwt>0</asrwt>
<pdfrwt beam="1">  1        2 0.22079942E+00 0.23230919E+04</pdfrwt>
<pdfrwt beam="2">  1       -2 0.14462659E+00 0.23230919E+04</pdfrwt>
<totfact> 0.41251319E+00</totfact>
</mgrwt>
</event>
<event>
 4    1  0.1308745E-008  0.2255124E+04  0.7816531E-02  0.8495828E-01
          2   -1    0    0  501    0  0.00000000000E+00  0.00000000000E+00  0.16760811326E+04  0.16760811326E+04  0.00000000000E+00 0.  1.
         -2   -1    0    0    0  501 -0.00000000000E+00 -0.00000000000E+00 -0.75855311546E+03  0.75855311546E+03  0.00000000000E+00 0. -1.
    2000013    1    1    2    0    0  0.20106794210E+03  0.23670741400E+03  0.10222679198E+04  0.14296819286E+04  0.95000000000E+03 0.  0.
   -2000013    1    1    2    0    0 -0.20106794210E+03 -0.23670741400E+03 -0.10473990264E+03  0.10049523195E+04  0.95000000000E+03 0.  0.
<mgrwt>
<rscale>  0 0.22551244E+04</rscale>
<asrwt>0</asrwt>
<pdfrwt beam="1">  1        2 0.25785863E+00 0.22551244E+04</pdfrwt>
<pdfrwt beam="2">  1       -2 0.11670048E+00 0.22551244E+04</pdfrwt>
<totfact> 0.52348731E+00</totfact>
</mgrwt>
</event>
<event>
 4    1  0.1308745E-008  0.3224516E+04  0.7816531E-02  0.8182372E-01
         -2   -1    0    0    0  501 -0.00000000000E+00  0.00000000000E+00  0.68438715434E+03  0.68438715434E+03  0.00000000000E+00 0. -1.
          2   -1    0    0  501    0  0.00000000000E+00 -0.00000000000E+00 -0.37981082276E+04  0.37981082276E+04  0.00000000000E+00 0.  1.
    2000013    1    1    2    0    0  0.10664743907E+04 -0.20621813317E+03 -0.55733621273E+03  0.15469380073E+04  0.95000000000E+03 0.  0.
   -2000013    1    1    2    0    0 -0.10664743907E+04  0.20621813317E+03 -0.25563848606E+04  0.29355573746E+04  0.95000000000E+03 0.  0.
<mgrwt>
<rscale>  0 0.32245164E+04</rscale>
<asrwt>0</asrwt>
<pdfrwt beam="2">  1        2 0.58432432E+00 0.32245164E+04</pdfrwt>
<pdfrwt beam="1">  1       -2 0.10529034E+00 0.32245164E+04</pdfrwt>
<totfact> 0.30188795E-01</totfact>
</mgrwt>
</event>
<event>
 4    1  0.1308745E-008  0.2232812E+04  0.7816531E-02  0.8504894E-01
          2   -1    0    0  501    0  0.00000000000E+00  0.00000000000E+00  0.29115804311E+04  0.29115804311E+04  0.00000000000E+00 0.  1.
         -2   -1    0    0    0  501 -0.00000000000E+00 -0.00000000000E+00 -0.42807063338E+03  0.42807063338E+03  0.00000000000E+00 0. -1.
    2000013    1    1    2    0    0 -0.43342471017E+03  0.71821311811E+02  0.18226758413E+04  0.21018236136E+04  0.95000000000E+03 0.  0.
   -2000013    1    1    2    0    0  0.43342471017E+03 -0.71821311811E+02  0.66083395643E+03  0.12378274509E+04  0.95000000000E+03 0.  0.
<mgrwt>
<rscale>  0 0.22328118E+04</rscale>
<asrwt>0</asrwt>
<pdfrwt beam="1">  1        2 0.44793544E+00 0.22328118E+04</pdfrwt>
<pdfrwt beam="2">  1       -2 0.65857022E-01 0.22328118E+04</pdfrwt>
<totfact> 0.38267356E+00</totfact>
</mgrwt>
</event>
<event>
 4    1  0.1308745E-008  0.2222046E+04  0.7816531E-02  0.8509308E-01
          2   -1    0    0  501    0  0.00000000000E+00  0.00000000000E+00  0.28550190129E+04  0.28550190129E+04  0.00000000000E+00 0.  1.
         -2   -1    0    0    0  501 -0.00000000000E+00 -0.00000000000E+00 -0.43235165544E+03  0.43235165544E+03  0.00000000000E+00 0. -1.
    2000013    1    1    2    0    0  0.30754920233E+02 -0.52380588089E+03  0.85950904516E+03  0.13844039384E+04  0.95000000000E+03 0.  0.
   -2000013    1    1    2    0    0 -0.30754920233E+02  0.52380588089E+03  0.15631583123E+04  0.19029667300E+04  0.95000000000E+03 0.  0.
<mgrwt>
<rscale>  0 0.22220461E+04</rscale>
<asrwt>0</asrwt>
<pdfrwt beam="1">  1        2 0.43923368E+00 0.22220461E+04</pdfrwt>
<pdfrwt beam="2">  1       -2 0.66515641E-01 0.22220461E+04</pdfrwt>
<totfact> 0.40603446E+00</totfact>
</mgrwt>
</event>
<event>
 4    1  0.1308745E-008  0.2608823E+04  0.7816531E-02  0.8365211E-01
         -2   -1    0    0    0  501 -0.00000000000E+00  0.00000000000E+00  0.68933277678E+03  0.68933277678E+03  0.00000000000E+00 0. -1.
          2   -1    0    0  501    0  0.00000000000E+00 -0.00000000000E+00 -0.24683125081E+04  0.24683125081E+04  0.00000000000E+00 0.  1.
    2000013    1    1    2    0    0  0.55839584919E+03  0.45918143196E+03 -0.15257532292E+04  0.19372858407E+04  0.95000000000E+03 0.  0.
   -2000013    1    1    2    0    0 -0.55839584919E+03 -0.45918143196E+03 -0.25322650211E+03  0.12203594443E+04  0.95000000000E+03 0.  0.
<mgrwt>
<rscale>  0 0.26088225E+04</rscale>
<asrwt>0</asrwt>
<pdfrwt beam="2">  1        2 0.37974038E+00 0.26088225E+04</pdfrwt>
<pdfrwt beam="1">  1       -2 0.10605120E+00 0.26088225E+04</pdfrwt>
<totfact> 0.23031177E+00</totfact>
</mgrwt>
</event>
<event>
 4    1  0.1308745E-008  0.2323632E+04  0.7816531E-02  0.8468661E-01
         -2   -1    0    0    0  501 -0.00000000000E+00  0.00000000000E+00  0.11174975273E+04  0.11174975273E+04  0.00000000000E+00 0. -1.
          2   -1    0    0  501    0  0.00000000000E+00 -0.00000000000E+00 -0.12078924375E+04  0.12078924375E+04  0.00000000000E+00 0.  1.
    2000013    1    1    2    0    0  0.33615483000E+03  0.40083557665E+03  0.37182818043E+03  0.11464839401E+04  0.95000000000E+03 0.  0.
   -2000013    1    1    2    0    0 -0.33615483000E+03 -0.40083557665E+03 -0.46222309063E+03  0.11789060246E+04  0.95000000000E+03 0.  0.
<mgrwt>
<rscale>  0 0.23236323E+04</rscale>
<asrwt>0</asrwt>
<pdfrwt beam="2">  1        2 0.18582960E+00 0.23236323E+04</pdfrwt>
<pdfrwt beam="1">  1       -2 0.17192270E+00 0.23236323E+04</pdfrwt>
<totfact> 0.35017302E+00</totfact>
</mgrwt>
</event>
<event>
 4    1  0.1308745E-008  0.3244505E+04  0.7816531E-02  0.8177161E-01
         -2   -1    0    0    0  501 -0.00000000000E+00  0.00000000000E+00  0.15863123656E+04  0.15863123656E+04  0.00000000000E+00 0. -1.
          2   -1    0    0  501    0  0.00000000000E+00 -0.00000000000E+00 -0.16590068928E+04  0.16590068928E+04  0.00000000000E+00 0.  1.
    2000013    1    1    2    0    0 -0.40880731114E+03  0.12472102519E+04 -0.11727689246E+03  0.16244724373E+04  0.95000000000E+03 0.  0.
   -2000013    1    1    2    0    0  0.40880731114E+03 -0.12472102519E+04  0.44582365300E+02  0.16208468211E+04  0.95000000000E+03 0.  0.
<mgrwt>
<rscale>  0 0.32445050E+04</rscale>
<asrwt>0</asrwt>
<pdfrwt beam="2">  1        2 0.25523183E+00 0.32445050E+04</pdfrwt>
<pdfrwt beam="1">  1       -2 0.24404806E+00 0.32445050E+04</pdfrwt>
<totfact> 0.60644476E-01</totfact>
</mgrwt>
</event>
<event>
 4    1  0.1308745E-008  0.2490420E+04  0.7816531E-02  0.8406406E-01
          2   -1    0    0  501    0  0.00000000000E+00  0.00000000000E+00  0.13460324449E+04  0.13460324449E+04  0.00000000000E+00 0.  1.
         -2   -1    0    0    0  501 -0.00000000000E+00 -0.00000000000E+00 -0.11519392968E+04  0.11519392968E+04  0.00000000000E+00 0. -1.
    2000013    1    1    2    0    0  0.72299201182E+03  0.30272195632E+03  0.28115053139E+03  0.12632908031E+04  0.95000000000E+03 0.  0.
   -2000013    1    1    2    0    0 -0.72299201182E+03 -0.30272195632E+03 -0.87057383250E+02  0.12346809385E+04  0.95000000000E+03 0.  0.
<mgrwt>
<rscale>  0 0.24904198E+04</rscale>
<asrwt>0</asrwt>
<pdfrwt beam="1">  1        2 0.20708192E+00 0.24904198E+04</pdfrwt>
<pdfrwt beam="2">  1       -2 0.17722143E+00 0.24904198E+04</pdfrwt>
<totfact> 0.26303273E+00</totfact>
</mgrwt>
</event>
<event>
 4    1  0.1308745E-008  0.3115113E+04  0.7816531E-02  0.8211602E-01
          2   -1    0    0  501    0  0.00000000000E+00  0.00000000000E+00  0.17242874895E+04  0.17242874895E+04  0.00000000000E+00 0.  1.
         -2   -1    0    0    0  501 -0.00000000000E+00 -0.00000000000E+00 -0.14069480325E+04  0.14069480325E+04  0.00000000000E+00 0. -1.
    2000013    1    1    2    0    0 -0.17536982901E+03 -0.86529164734E+03 -0.70834795407E+03  0.14777486376E+04  0.95000000000E+03 0.  0.
   -2000013    1    1    2    0    0  0.17536982901E+03  0.86529164734E+03  0.10256874110E+04  0.16534868844E+04  0.95000000000E+03 0.  0.
<mgrwt>
<rscale>  0 0.31151134E+04</rscale>
<asrwt>0</asrwt>
<pdfrwt beam="1">  1        2 0.26527500E+00 0.31151134E+04</pdfrwt>
<pdfrwt beam="2">  1       -2 0.21645354E+00 0.31151134E+04</pdfrwt>
<totfact> 0.83925444E-01</totfact>
</mgrwt>
</event>
<event>
 4    1  0.1308745E-008  0.2217726E+04  0.7816531E-02  0.8511086E-01
          2   -1    0    0  501    0  0.00000000000E+00  0.00000000000E+00  0.18209338620E+04  0.18209338620E+04  0.00000000000E+00 0.  1.
         -2   -1    0    0    0  501 -0.00000000000E+00 -0.00000000000E+00 -0.67524559179E+03  0.67524559179E+03  0.00000000000E+00 0. -1.
    2000013    1    1    2    0    0  0.40840780720E+03 -0.33043183419E+03  0.31841967039E+03  0.11313148194E+04  0.95000000000E+03 0.  0.
   -2000013    1    1    2    0    0 -0.40840780720E+03  0.33043183419E+03  0.82726859981E+03  0.13648646344E+04  0.95000000000E+03 0.  0.
<mgrwt>
<rscale>  0 0.22177264E+04</rscale>
<asrwt>0</asrwt>
<pdfrwt beam="1">  1        2 0.28014367E+00 0.22177264E+04</pdfrwt>
<pdfrwt beam="2">  1       -2 0.10388394E+00 0.22177264E+04</pdfrwt>
<totfact> 0.57828469E+00</totfact>
</mgrwt>
</event>
<event>
 4    1  0.1308745E-008  0.3020159E+04  0.7816531E-02  0.8237998E-01
          2   -1    0    0  501    0  0.00000000000E+00  0.00000000000E+00  0.33405911816E+04  0.33405911816E+04  0.00000000000E+00 0.  1.
         -2   -1    0    0    0  501 -0.00000000000E+00 -0.00000000000E+00 -0.68261586065E+03  0.68261586065E+03  0.00000000000E+00 0. -1.
    2000013    1    1    2    0    0 -0.60732179320E+03  0.27096349255E+03  0.40492194620E+02  0.11603450317E+04  0.95000000000E+03 0.  0.
   -2000013    1    1    2    0    0  0.60732179320E+03 -0.27096349255E+03  0.26174831263E+04  0.28628620105E+04  0.95000000000E+03 0.  0.
<mgrwt>
<rscale>  0 0.30201593E+04</rscale>
<asrwt>0</asrwt>
<pdfrwt beam="1">  1        2 0.51393710E+00 0.30201593E+04</pdfrwt>
<pdfrwt beam="2">  1       -2 0.10501783E+00 0.30201593E+04</pdfrwt>
<totfact> 0.65639903E-01</totfact>
</mgrwt>
</event>
<event>
 4    1  0.1308745E-008  0.2883933E+04  0.7816531E-02  0.8277674E-01
          2   -1    0    0  501    0  0.00000000000E+00  0.00000000000E+00  0.24327232184E+04  0.24327232184E+04  0.00000000000E+00 0.  1.
         -2   -1    0    0    0  501 -0.00000000000E+00 -0.00000000000E+00 -0.85470762904E+03  0.85470762904E+03  0.00000000000E+00 0. -1.
    2000013    1    1    2    0    0  0.80206402782E+03  0.66748966437E+03  0.11270027633E+04  0.18059580242E+04  0.95000000000E+03 0.  0.
   -2000013    1    1    2    0    0 -0.80206402782E+03 -0.66748966437E+03  0.45101282611E+03  0.14814728233E+04  0.95000000000E+03 0.  0.
<mgrwt>
<rscale>  0 0.28839328E+04</rscale>
<asrwt>0</asrwt>
<pdfrwt beam="1">  1        2 0.37426511E+00 0.28839328E+04</pdfrwt>
<pdfrwt beam="2">  1       -2 0.13149348E+00 0.28839328E+04</pdfrwt>
<totfact> 0.13878025E+00</totfact>
</mgrwt>
</event>
<event>
 4    1  0.1308745E-008  0.3117808E+04  0.7816531E-02  0.8210868E-01
          1   -1    0    0  501    0  0.00000000000E+00  0.00000000000E+00  0.21285703860E+04  0.21285703860E+04  0.00000000000E+00 0.  1.
         -1   -1    0    0    0  501 -0.00000000000E+00 -0.00000000000E+00 -0.11416964129E+04  0.11416964129E+04  0.00000000000E+00 0. -1.
    2000013    1    1    2    0    0  0.58169505405E+03  0.10274873995E+04  0.87679744657E+03  0.17508207374E+04  0.95000000000E+03 0.  0.
   -2000013    1    1    2    0    0 -0.58169505405E+03 -0.10274873995E+04  0.11007652653E+03  0.15194460615E+04  0.95000000000E+03 0.  0.
<mgrwt>
<rscale>  0 0.31178077E+04</rscale>
<asrwt>0</asrwt>
<pdfrwt beam="1">  1        1 0.32747237E+00 0.31178077E+04</pdfrwt>
<pdfrwt beam="2">  1       -1 0.17564560E+00 0.31178077E+04</pdfrwt>
<totfact> 0.45938941E-01</totfact>
</mgrwt>
</event>
<event>
 4    1  0.1308745E-008  0.2342772E+04  0.7816531E-02  0.8461245E-01
         -2   -1    0    0    0  501 -0.00000000000E+00  0.00000000000E+00  0.55833636228E+03  0.55833636228E+03  0.00000000000E+00 0. -1.
          2   -1    0    0  501    0  0.00000000000E+00 -0.00000000000E+00 -0.24575590730E+04  0.24575590730E+04  0.00000000000E+00 0.  1.
    2000013    1    1    2    0    0  0.50533255522E+03 -0.39306869100E+03 -0.12643619075E+04  0.17061579705E+04  0.95000000000E+03 0.  0.
   -2000013    1    1    2    0    0 -0.50533255522E+03  0.39306869100E+03 -0.63486080327E+03  0.13097374648E+04  0.95000000000E+03 0.  0.
<mgrwt>
<rscale>  0 0.23427715E+04</rscale>
<asrwt>0</asrwt>
<pdfrwt beam="2">  1        2 0.37808600E+00 0.23427715E+04</pdfrwt>
<pdfrwt beam="1">  1       -2 0.85897904E-01 0.23427715E+04</pdfrwt>
<totfact> 0.39145507E+00</totfact>
</mgrwt>
</event>
<event>
 4    1  0.1308745E-008  0.2079932E+04  0.7816531E-02  0.8570135E-01
          2   -1    0    0  501    0  0.00000000000E+00  0.00000000000E+00  0.32130366351E+04  0.32130366351E+04  0.00000000000E+00 0.  1.
         -2   -1    0    0    0  501 -0.00000000000E+00 -0.00000000000E+00 -0.33660654864E+03  0.33660654864E+03  0.00000000000E+00 0. -1.
    2000013    1    1    2    0    0 -0.33601531955E+03  0.23135976034E+03  0.12466818903E+04  0.16196139569E+04  0.95000000000E+03 0.  0.
   -2000013    1    1    2    0    0  0.33601531955E+03 -0.23135976034E+03  0.16297481961E+04  0.19300292268E+04  0.95000000000E+03 0.  0.
<mgrwt>
<rscale>  0 0.20799319E+04</rscale>
<asrwt>0</asrwt>
<pdfrwt beam="1">  1        2 0.49431331E+00 0.20799319E+04</pdfrwt>
<pdfrwt beam="2">  1       -2 0.51785625E-01 0.20799319E+04</pdfrwt>
<totfact> 0.41455355E+00</totfact>
</mgrwt>
</event>
<event>
 4    1  0.1308745E-008  0.2297874E+04  0.7816531E-02  0.8478760E-01
         -2   -1    0    0    0  501 -0.00000000000E+00  0.00000000000E+00  0.11808626918E+04  0.11808626918E+04  0.00000000000E+00 0. -1.
          2   -1    0    0  501    0  0.00000000000E+00 -0.00000000000E+00 -0.11178744071E+04  0.11178744071E+04  0.00000000000E+00 0.  1.
    2000013    1    1    2    0    0  0.43938876569E+03 -0.30995766454E+02  0.50446445603E+03  0.11623285303E+04  0.95000000000E+03 0.  0.
   -2000013    1    1    2    0    0 -0.43938876569E+03  0.30995766454E+02 -0.44147617139E+03  0.11364085686E+04  0.95000000000E+03 0.  0.
<mgrwt>
<rscale>  0 0.22978740E+04</rscale>
<asrwt>0</asrwt>
<pdfrwt beam="2">  1        2 0.17198068E+00 0.22978740E+04</pdfrwt>
<pdfrwt beam="1">  1       -2 0.18167118E+00 0.22978740E+04</pdfrwt>
<totfact> 0.34007236E+00</totfact>
</mgrwt>
</event>
<event>
 4    1  0.1308745E-008  0.2601890E+04  0.7816531E-02  0.8367560E-01
         -2   -1    0    0    0  501 -0.00000000000E+00  0.00000000000E+00  0.12393508977E+04  0.12393508977E+04  0.00000000000E+00 0. -1.
          2   -1    0    0  501    0  0.00000000000E+00 -0.00000000000E+00 -0.13655997569E+04  0.13655997569E+04  0.00000000000E+00 0.  1.
    2000013    1    1    2    0    0 -0.60930348456E+03 -0.62101616452E+03  0.11887357416E+03  0.12936547992E+04  0.95000000000E+03 0.  0.
   -2000013    1    1    2    0    0  0.60930348456E+03  0.62101616452E+03 -0.24512243338E+03  0.13112958553E+04  0.95000000000E+03 0.  0.
<mgrwt>
<rscale>  0 0.26018895E+04</rscale>
<asrwt>0</asrwt>
<pdfrwt beam="2">  1        2 0.21009227E+00 0.26018895E+04</pdfrwt>
<pdfrwt beam="1">  1       -2 0.19066937E+00 0.26018895E+04</pdfrwt>
<totfact> 0.20549246E+00</totfact>
</mgrwt>
</event>
<event>
 4    1  0.1308745E-008  0.2456842E+04  0.7816531E-02  0.8418524E-01
         -2   -1    0    0    0  501 -0.00000000000E+00  0.00000000000E+00  0.78941145619E+03  0.78941145619E+03  0.00000000000E+00 0. -1.
          2   -1    0    0  501    0  0.00000000000E+00 -0.00000000000E+00 -0.19115730149E+04  0.19115730149E+04  0.00000000000E+00 0.  1.
    2000013    1    1    2    0    0 -0.42649400560E+02 -0.56456956435E+03  0.26811127292E+02  0.11062443676E+04  0.95000000000E+03 0.  0.
   -2000013    1    1    2    0    0  0.42649400560E+02  0.56456956435E+03 -0.11489726860E+04  0.15947401034E+04  0.95000000000E+03 0.  0.
<mgrwt>
<rscale>  0 0.24568416E+04</rscale>
<asrwt>0</asrwt>
<pdfrwt beam="2">  1        2 0.29408815E+00 0.24568416E+04</pdfrwt>
<pdfrwt beam="1">  1       -2 0.12144792E+00 0.24568416E+04</pdfrwt>
<totfact> 0.34514044E+00</totfact>
</mgrwt>
</event>
<event>
 4    1  0.1308745E-008  0.2176287E+04  0.7816531E-02  0.8528363E-01
         -2   -1    0    0    0  501 -0.00000000000E+00  0.00000000000E+00  0.10162046113E+04  0.10162046113E+04  0.00000000000E+00 0. -1.
          2   -1    0    0  501    0  0.00000000000E+00 -0.00000000000E+00 -0.11651753864E+04  0.11651753864E+04  0.00000000000E+00 0.  1.
    2000013    1    1    2    0    0  0.28026639821E+02 -0.32438830555E+03  0.34547397916E+03  0.10620101391E+04  0.95000000000E+03 0.  0.
   -2000013    1    1    2    0    0 -0.28026639821E+02  0.32438830555E+03 -0.49444475422E+03  0.11193698586E+04  0.95000000000E+03 0.  0.
<mgrwt>
<rscale>  0 0.21762873E+04</rscale>
<asrwt>0</asrwt>
<pdfrwt beam="2">  1        2 0.17925775E+00 0.21762873E+04</pdfrwt>
<pdfrwt beam="1">  1       -2 0.15633917E+00 0.21762873E+04</pdfrwt>
<totfact> 0.48828869E+00</totfact>
</mgrwt>
</event>
<event>
 4    1  0.1308745E-008  0.2408895E+04  0.7816531E-02  0.8436181E-01
         -1   -1    0    0    0  501 -0.00000000000E+00  0.00000000000E+00  0.11353128611E+04  0.11353128611E+04  0.00000000000E+00 0. -1.
          1   -1    0    0  501    0  0.00000000000E+00 -0.00000000000E+00 -0.12777920698E+04  0.12777920698E+04  0.00000000000E+00 0.  1.
    2000013    1    1    2    0    0 -0.69694888431E+03 -0.44122841253E+02 -0.31765568031E+03  0.12211018400E+04  0.95000000000E+03 0.  0.
   -2000013    1    1    2    0    0  0.69694888431E+03  0.44122841253E+02  0.17517647155E+03  0.11920030909E+04  0.95000000000E+03 0.  0.
<mgrwt>
<rscale>  0 0.24088950E+04</rscale>
<asrwt>0</asrwt>
<pdfrwt beam="2">  1        1 0.19658339E+00 0.24088950E+04</pdfrwt>
<pdfrwt beam="1">  1       -1 0.17466352E+00 0.24088950E+04</pdfrwt>
<totfact> 0.19113920E+00</totfact>
</mgrwt>
</event>
<event>
 4    1  0.1308745E-008  0.2298855E+04  0.7816531E-02  0.8478373E-01
          2   -1    0    0  501    0  0.00000000000E+00  0.00000000000E+00  0.15004378346E+04  0.15004378346E+04  0.00000000000E+00 0.  1.
         -2   -1    0    0    0  501 -0.00000000000E+00 -0.00000000000E+00 -0.88053219222E+03  0.88053219222E+03  0.00000000000E+00 0. -1.
    2000013    1    1    2    0    0  0.35416434172E+03  0.52086497480E+03  0.46340412459E+03  0.12304373554E+04  0.95000000000E+03 0.  0.
   -2000013    1    1    2    0    0 -0.35416434172E+03 -0.52086497480E+03  0.15650151781E+03  0.11505326714E+04  0.95000000000E+03 0.  0.
<mgrwt>
<rscale>  0 0.22988552E+04</rscale>
<asrwt>0</asrwt>
<pdfrwt beam="1">  1        2 0.23083659E+00 0.22988552E+04</pdfrwt>
<pdfrwt beam="2">  1       -2 0.13546649E+00 0.22988552E+04</pdfrwt>
<totfact> 0.44989731E+00</totfact>
</mgrwt>
</event>
<event>
 4    1  0.1308745E-008  0.5399331E+04  0.7816531E-02  0.7769695E-01
          2   -1    0    0  501    0  0.00000000000E+00  0.00000000000E+00  0.41971116611E+04  0.41971116611E+04  0.00000000000E+00 0.  1.
         -2   -1    0    0    0  501 -0.00000000000E+00 -0.00000000000E+00 -0.17364786109E+04  0.17364786109E+04  0.00000000000E+00 0. -1.
    2000013    1    1    2    0    0 -0.24250262381E+04  0.28755608851E+03  0.19444253424E+04  0.32629328329E+04  0.95000000000E+03 0.  0.
   -2000013    1    1    2    0    0  0.24250262381E+04 -0.28755608851E+03  0.51620770775E+03  0.26706574391E+04  0.95000000000E+03 0.  0.
<mgrwt>
<rscale>  0 0.53993313E+04</rscale>
<asrwt>0</asrwt>
<pdfrwt beam="1">  1        2 0.64570948E+00 0.53993313E+04</pdfrwt>
<pdfrwt beam="2">  1       -2 0.26715056E+00 0.53993313E+04</pdfrwt>
<totfact> 0.82662990E-03</totfact>
</mgrwt>
</event>
<event>
 4    1  0.1308745E-008  0.2430358E+04  0.7816531E-02  0.8428225E-01
         -2   -1    0    0    0  501 -0.00000000000E+00  0.00000000000E+00  0.37043097254E+03  0.37043097254E+03  0.00000000000E+00 0. -1.
          2   -1    0    0  501    0  0.00000000000E+00 -0.00000000000E+00 -0.39863291008E+04  0.39863291008E+04  0.00000000000E+00 0.  1.
    2000013    1    1    2    0    0  0.24544668180E+03  0.54660903438E+03 -0.97647594867E+03  0.14882979501E+04  0.95000000000E+03 0.  0.
   -2000013    1    1    2    0    0 -0.24544668180E+03 -0.54660903438E+03 -0.26394221796E+04  0.28684621232E+04  0.95000000000E+03 0.  0.
<mgrwt>
<rscale>  0 0.24303578E+04</rscale>
<asrwt>0</asrwt>
<pdfrwt beam="2">  1        2 0.61328139E+00 0.24303578E+04</pdfrwt>
<pdfrwt beam="1">  1       -2 0.56989382E-01 0.24303578E+04</pdfrwt>
<totfact> 0.91245241E-01</totfact>
</mgrwt>
</event>
<event>
 4    1  0.1308745E-008  0.2546130E+04  0.7816531E-02  0.8386733E-01
         -2   -1    0    0    0  501 -0.00000000000E+00  0.00000000000E+00  0.82030532966E+03  0.82030532966E+03  0.00000000000E+00 0. -1.
          2   -1    0    0  501    0  0.00000000000E+00 -0.00000000000E+00 -0.19757203759E+04  0.19757203759E+04  0.00000000000E+00 0.  1.
    2000013    1    1    2    0    0  0.18762660293E+03 -0.68896945076E+03 -0.10789144693E+04  0.16051289912E+04  0.95000000000E+03 0.  0.
   -2000013    1    1    2    0    0 -0.18762660293E+03  0.68896945076E+03 -0.76500577003E+02  0.11908967145E+04  0.95000000000E+03 0.  0.
<mgrwt>
<rscale>  0 0.25461296E+04</rscale>
<asrwt>0</asrwt>
<pdfrwt beam="2">  1        2 0.30395698E+00 0.25461296E+04</pdfrwt>
<pdfrwt beam="1">  1       -2 0.12620082E+00 0.25461296E+04</pdfrwt>
<totfact> 0.28665789E+00</totfact>
</mgrwt>
</event>
<event>
 4    1  0.1308745E-008  0.2489417E+04  0.7816531E-02  0.8406765E-01
          2   -1    0    0  501    0  0.00000000000E+00  0.00000000000E+00  0.25628451713E+04  0.25628451713E+04  0.00000000000E+00 0.  1.
         -2   -1    0    0    0  501 -0.00000000000E+00 -0.00000000000E+00 -0.60452334683E+03  0.60452334683E+03  0.00000000000E+00 0. -1.
    2000013    1    1    2    0    0  0.78776056820E+03  0.15882954508E+03  0.10195202199E+04  0.16086376273E+04  0.95000000000E+03 0.  0.
   -2000013    1    1    2    0    0 -0.78776056820E+03 -0.15882954508E+03  0.93880160448E+03  0.15587308907E+04  0.95000000000E+03 0.  0.
<mgrwt>
<rscale>  0 0.24894174E+04</rscale>
<asrwt>0</asrwt>
<pdfrwt beam="1">  1        2 0.39428386E+00 0.24894174E+04</pdfrwt>
<pdfrwt beam="2">  1       -2 0.93003594E-01 0.24894174E+04</pdfrwt>
<totfact> 0.27968780E+00</totfact>
</mgrwt>
</event>
<event>
 4    1  0.1308745E-008  0.2133239E+04  0.7816531E-02  0.8546741E-01
          2   -1    0    0  501    0  0.00000000000E+00  0.00000000000E+00  0.60299755580E+03  0.60299755580E+03  0.00000000000E+00 0.  1.
         -2   -1    0    0    0  501 -0.00000000000E+00 -0.00000000000E+00 -0.18867032359E+04  0.18867032359E+04  0.00000000000E+00 0. -1.
    2000013    1    1    2    0    0  0.29489956811E+03 -0.35776769176E+03 -0.80778605361E+03  0.13304066239E+04  0.95000000000E+03 0.  0.
   -2000013    1    1    2    0    0 -0.29489956811E+03  0.35776769176E+03 -0.47591962645E+03  0.11592941678E+04  0.95000000000E+03 0.  0.
<mgrwt>
<rscale>  0 0.21332393E+04</rscale>
<asrwt>0</asrwt>
<pdfrwt beam="1">  1        2 0.92768857E-01 0.21332393E+04</pdfrwt>
<pdfrwt beam="2">  1       -2 0.29026203E+00 0.21332393E+04</pdfrwt>
<totfact> 0.16524798E+00</totfact>
</mgrwt>
</event>
<event>
 4    1  0.1308745E-008  0.2374025E+04  0.7816531E-02  0.8449293E-01
          2   -1    0    0  501    0  0.00000000000E+00  0.00000000000E+00  0.12406344481E+04  0.12406344481E+04  0.00000000000E+00 0.  1.
         -2   -1    0    0    0  501 -0.00000000000E+00 -0.00000000000E+00 -0.11357084668E+04  0.11357084668E+04  0.00000000000E+00 0. -1.
    2000013    1    1    2    0    0  0.60645148420E+03  0.17035910379E+03 -0.27906030751E+03  0.11735332471E+04  0.95000000000E+03 0.  0.
   -2000013    1    1    2    0    0 -0.60645148420E+03 -0.17035910379E+03  0.38398628884E+03  0.12028096678E+04  0.95000000000E+03 0.  0.
<mgrwt>
<rscale>  0 0.23740253E+04</rscale>
<asrwt>0</asrwt>
<pdfrwt beam="1">  1        2 0.19086684E+00 0.23740253E+04</pdfrwt>
<pdfrwt beam="2">  1       -2 0.17472438E+00 0.23740253E+04</pdfrwt>
<totfact> 0.31862238E+00</totfact>
</mgrwt>
</event>
<event>
 4    1  0.1308745E-008  0.2926536E+04  0.7816531E-02  0.8265026E-01
          2   -1    0    0  501    0  0.00000000000E+00  0.00000000000E+00  0.19539052331E+04  0.19539052331E+04  0.00000000000E+00 0. -1.
         -2   -1    0    0    0  501 -0.00000000000E+00 -0.00000000000E+00 -0.10958324095E+04  0.10958324095E+04  0.00000000000E+00 0.  1.
    2000013    1    1    2    0    0 -0.84368283340E+03  0.66069768226E+03  0.11583339050E+03  0.14367461589E+04  0.95000000000E+03 0.  0.
   -2000013    1    1    2    0    0  0.84368283340E+03 -0.66069768226E+03  0.74223943311E+03  0.16129914838E+04  0.95000000000E+03 0.  0.
<mgrwt>
<rscale>  0 0.29265356E+04</rscale>
<asrwt>0</asrwt>
<pdfrwt beam="1">  1        2 0.30060080E+00 0.29265356E+04</pdfrwt>
<pdfrwt beam="2">  1       -2 0.16858960E+00 0.29265356E+04</pdfrwt>
<totfact> 0.13315427E+00</totfact>
</mgrwt>
</event>
<event>
 4    1  0.1308745E-008  0.2450629E+04  0.7816531E-02  0.8420788E-01
          1   -1    0    0  501    0  0.00000000000E+00  0.00000000000E+00  0.17478599018E+04  0.17478599018E+04  0.00000000000E+00 0.  1.
         -1   -1    0    0    0  501 -0.00000000000E+00 -0.00000000000E+00 -0.85899075486E+03  0.85899075486E+03  0.00000000000E+00 0. -1.
    2000013    1    1    2    0    0 -0.27336162578E+03  0.72389804993E+03  0.43182428179E+03  0.12991255426E+04  0.95000000000E+03 0.  0.
   -2000013    1    1    2    0    0  0.27336162578E+03 -0.72389804993E+03  0.45704486513E+03  0.13077251140E+04  0.95000000000E+03 0.  0.
<mgrwt>
<rscale>  0 0.24506289E+04</rscale>
<asrwt>0</asrwt>
<pdfrwt beam="1">  1        1 0.26890152E+00 0.24506289E+04</pdfrwt>
<pdfrwt beam="2">  1       -1 0.13215242E+00 0.24506289E+04</pdfrwt>
<totfact> 0.19186049E+00</totfact>
</mgrwt>
</event>
<event>
 4    1  0.1308745E-008  0.2062487E+04  0.7816531E-02  0.8577951E-01
          2   -1    0    0  501    0  0.00000000000E+00  0.00000000000E+00  0.24032451221E+04  0.24032451221E+04  0.00000000000E+00 0.  1.
         -2   -1    0    0    0  501 -0.00000000000E+00 -0.00000000000E+00 -0.44251117545E+03  0.44251117545E+03  0.00000000000E+00 0. -1.
    2000013    1    1    2    0    0  0.13732171248E+03  0.18145073679E+03  0.14362784110E+04  0.17370023882E+04  0.95000000000E+03 0.  0.
   -2000013    1    1    2    0    0 -0.13732171248E+03 -0.18145073679E+03  0.52445553557E+03  0.11087539093E+04  0.95000000000E+03 0.  0.
<mgrwt>
<rscale>  0 0.20624867E+04</rscale>
<asrwt>0</asrwt>
<pdfrwt beam="1">  1        2 0.36973001E+00 0.20624867E+04</pdfrwt>
<pdfrwt beam="2">  1       -2 0.68078644E-01 0.20624867E+04</pdfrwt>
<totfact> 0.72290119E+00</totfact>
</mgrwt>
</event>
<event>
 4    1  0.1308745E-008  0.2656773E+04  0.7816531E-02  0.8349169E-01
         -2   -1    0    0    0  501 -0.00000000000E+00  0.00000000000E+00  0.73185304715E+03  0.73185304715E+03  0.00000000000E+00 0. -1.
          2   -1    0    0  501    0  0.00000000000E+00 -0.00000000000E+00 -0.24111536363E+04  0.24111536363E+04  0.00000000000E+00 0.  1.
    2000013    1    1    2    0    0 -0.68527200061E+03 -0.34659004654E+03 -0.14570760174E+04  0.19013923571E+04  0.95000000000E+03 0.  0.
   -2000013    1    1    2    0    0  0.68527200061E+03  0.34659004654E+03 -0.22222457180E+03  0.12416143264E+04  0.95000000000E+03 0.  0.
<mgrwt>
<rscale>  0 0.26567726E+04</rscale>
<asrwt>0</asrwt>
<pdfrwt beam="2">  1        2 0.37094672E+00 0.26567726E+04</pdfrwt>
<pdfrwt beam="1">  1       -2 0.11259277E+00 0.26567726E+04</pdfrwt>
<totfact> 0.21408983E+00</totfact>
</mgrwt>
</event>
<event>
 4    1  0.1308745E-008  0.3482744E+04  0.7816531E-02  0.8117892E-01
         -2   -1    0    0    0  501 -0.00000000000E+00  0.00000000000E+00  0.18055580063E+04  0.18055580063E+04  0.00000000000E+00 0. -1.
          2   -1    0    0  501    0  0.00000000000E+00 -0.00000000000E+00 -0.16794676658E+04  0.16794676658E+04  0.00000000000E+00 0.  1.
    2000013    1    1    2    0    0 -0.71891287541E+03  0.10199641968E+04  0.82031942094E+03  0.17699114773E+04  0.95000000000E+03 0.  0.
   -2000013    1    1    2    0    0  0.71891287541E+03 -0.10199641968E+04 -0.69422908042E+03  0.17151141948E+04  0.95000000000E+03 0.  0.
<mgrwt>
<rscale>  0 0.34827439E+04</rscale>
<asrwt>0</asrwt>
<pdfrwt beam="2">  1        2 0.25837964E+00 0.34827439E+04</pdfrwt>
<pdfrwt beam="1">  1       -2 0.27777815E+00 0.34827439E+04</pdfrwt>
<totfact> 0.35996452E-01</totfact>
</mgrwt>
</event>
<event>
 4    1  0.1308745E-008  0.2455321E+04  0.7816531E-02  0.8419078E-01
         -1   -1    0    0    0  501 -0.00000000000E+00  0.00000000000E+00  0.16265866263E+04  0.16265866263E+04  0.00000000000E+00 0. -1.
          1   -1    0    0  501    0  0.00000000000E+00 -0.00000000000E+00 -0.92657242283E+03  0.92657242283E+03  0.00000000000E+00 0.  1.
    2000013    1    1    2    0    0 -0.53235457491E+02 -0.74194564457E+03  0.58560300560E+03  0.13411741996E+04  0.95000000000E+03 0.  0.
   -2000013    1    1    2    0    0  0.53235457491E+02  0.74194564457E+03  0.11441119790E+03  0.12119848496E+04  0.95000000000E+03 0.  0.
<mgrwt>
<rscale>  0 0.24553210E+04</rscale>
<asrwt>0</asrwt>
<pdfrwt beam="2">  1        1 0.14254960E+00 0.24553210E+04</pdfrwt>
<pdfrwt beam="1">  1       -1 0.25024410E+00 0.24553210E+04</pdfrwt>
<totfact> 0.10723561E+00</totfact>
</mgrwt>
</event>
<event>
 4    1  0.1308745E-008  0.2380562E+04  0.7816531E-02  0.8446817E-01
          2   -1    0    0  501    0  0.00000000000E+00  0.00000000000E+00  0.12927827676E+04  0.12927827676E+04  0.00000000000E+00 0.  1.
         -2   -1    0    0    0  501 -0.00000000000E+00 -0.00000000000E+00 -0.10959065781E+04  0.10959065781E+04  0.00000000000E+00 0. -1.
    2000013    1    1    2    0    0 -0.62306537853E+03 -0.35369397240E+03  0.12951554315E+03  0.11969060815E+04  0.95000000000E+03 0.  0.
   -2000013    1    1    2    0    0  0.62306537853E+03  0.35369397240E+03  0.67360646382E+02  0.11917832642E+04  0.95000000000E+03 0.  0.
<mgrwt>
<rscale>  0 0.23805622E+04</rscale>
<asrwt>0</asrwt>
<pdfrwt beam="1">  1        2 0.19888966E+00 0.23805622E+04</pdfrwt>
<pdfrwt beam="2">  1       -2 0.16860101E+00 0.23805622E+04</pdfrwt>
<totfact> 0.32791855E+00</totfact>
</mgrwt>
</event>
<event>
 4    1  0.1308745E-008  0.2264139E+04  0.7816531E-02  0.8492196E-01
          1   -1    0    0  501    0  0.00000000000E+00  0.00000000000E+00  0.13349635517E+04  0.13349635517E+04  0.00000000000E+00 0. -1.
         -1   -1    0    0    0  501 -0.00000000000E+00 -0.00000000000E+00 -0.96001206054E+03  0.96001206054E+03  0.00000000000E+00 0.  1.
    2000013    1    1    2    0    0  0.45279243221E+03  0.33038938498E+02 -0.23408348691E+03  0.10786137571E+04  0.95000000000E+03 0.  0.
   -2000013    1    1    2    0    0 -0.45279243221E+03 -0.33038938498E+02  0.60903497802E+03  0.12163618551E+04  0.95000000000E+03 0.  0.
<mgrwt>
<rscale>  0 0.22641388E+04</rscale>
<asrwt>0</asrwt>
<pdfrwt beam="1">  1        1 0.20537901E+00 0.22641388E+04</pdfrwt>
<pdfrwt beam="2">  1       -1 0.14769416E+00 0.22641388E+04</pdfrwt>
<totfact> 0.28170123E+00</totfact>
</mgrwt>
</event>
<event>
 4    1  0.1308745E-008  0.2855441E+04  0.7816531E-02  0.8286260E-01
         -2   -1    0    0    0  501 -0.00000000000E+00  0.00000000000E+00  0.11365848864E+04  0.11365848864E+04  0.00000000000E+00 0. -1.
          2   -1    0    0  501    0  0.00000000000E+00 -0.00000000000E+00 -0.17934299257E+04  0.17934299257E+04  0.00000000000E+00 0.  1.
    2000013    1    1    2    0    0  0.90880712461E+03  0.10480089899E+03  0.23264062059E+03  0.13392293592E+04  0.95000000000E+03 0.  0.
   -2000013    1    1    2    0    0 -0.90880712461E+03 -0.10480089899E+03 -0.88948565992E+03  0.15907854530E+04  0.95000000000E+03 0.  0.
<mgrwt>
<rscale>  0 0.28554407E+04</rscale>
<asrwt>0</asrwt>
<pdfrwt beam="2">  1        2 0.27591229E+00 0.28554407E+04</pdfrwt>
<pdfrwt beam="1">  1       -2 0.17485921E+00 0.28554407E+04</pdfrwt>
<totfact> 0.14845381E+00</totfact>
</mgrwt>
</event>
<event>
 4    1  0.1308745E-008  0.3895827E+04  0.7816531E-02  0.8025898E-01
          2   -1    0    0  501    0  0.00000000000E+00  0.00000000000E+00  0.16692712109E+04  0.16692712109E+04  0.00000000000E+00 0.  1.
         -2   -1    0    0    0  501 -0.00000000000E+00 -0.00000000000E+00 -0.22730679851E+04  0.22730679851E+04  0.00000000000E+00 0. -1.
    2000013    1    1    2    0    0 -0.13035460220E+04 -0.66680834376E+03  0.57329800496E+03  0.18371271598E+04  0.95000000000E+03 0.  0.
   -2000013    1    1    2    0    0  0.13035460220E+04  0.66680834376E+03 -0.11770947792E+04  0.21052120363E+04  0.95000000000E+03 0.  0.
<mgrwt>
<rscale>  0 0.38958270E+04</rscale>
<asrwt>0</asrwt>
<pdfrwt beam="1">  1        2 0.25681095E+00 0.38958270E+04</pdfrwt>
<pdfrwt beam="2">  1       -2 0.34970277E+00 0.38958270E+04</pdfrwt>
<totfact> 0.12677067E-01</totfact>
</mgrwt>
</event>
<event>
 4    1  0.1308745E-008  0.1993273E+04  0.7816531E-02  0.8609772E-01
         -1   -1    0    0    0  501 -0.00000000000E+00  0.00000000000E+00  0.11885394025E+04  0.11885394025E+04  0.00000000000E+00 0. -1.
          1   -1    0    0  501    0  0.00000000000E+00 -0.00000000000E+00 -0.83571849913E+03  0.83571849913E+03  0.00000000000E+00 0.  1.
    2000013    1    1    2    0    0  0.51505200772E+02  0.29534869785E+03  0.14593181457E+03  0.10068166335E+04  0.95000000000E+03 0.  0.
   -2000013    1    1    2    0    0 -0.51505200772E+02 -0.29534869785E+03  0.20688908881E+03  0.10174412681E+04  0.95000000000E+03 0.  0.
<mgrwt>
<rscale>  0 0.19932731E+04</rscale>
<asrwt>0</asrwt>
<pdfrwt beam="2">  1        1 0.12857208E+00 0.19932731E+04</pdfrwt>
<pdfrwt beam="1">  1       -1 0.18285221E+00 0.19932731E+04</pdfrwt>
<totfact> 0.37951122E+00</totfact>
</mgrwt>
</event>
<event>
 4    1  0.1308745E-008  0.2673827E+04  0.7816531E-02  0.8343548E-01
          3   -1    0    0  501    0  0.00000000000E+00  0.00000000000E+00  0.21182029745E+04  0.21182029745E+04  0.00000000000E+00 0.  1.
         -3   -1    0    0    0  501 -0.00000000000E+00 -0.00000000000E+00 -0.84379885640E+03  0.84379885640E+03  0.00000000000E+00 0. -1.
    2000013    1    1    2    0    0  0.32630790375E+03  0.42140574316E+03 -0.22143363703E+03  0.11115720867E+04  0.95000000000E+03 0.  0.
   -2000013    1    1    2    0    0 -0.32630790375E+03 -0.42140574316E+03  0.14958377552E+04  0.18504297442E+04  0.95000000000E+03 0.  0.
<mgrwt>
<rscale>  0 0.26738267E+04</rscale>
<asrwt>0</asrwt>
<pdfrwt beam="1">  1        3 0.32587738E+00 0.26738267E+04</pdfrwt>
<pdfrwt beam="2">  1       -3 0.12981521E+00 0.26738267E+04</pdfrwt>
<totfact> 0.29716242E-02</totfact>
</mgrwt>
</event>
<event>
 4    1  0.1308745E-008  0.1949762E+04  0.7816531E-02  0.8630476E-01
          1   -1    0    0  501    0  0.00000000000E+00  0.00000000000E+00  0.16485382353E+04  0.16485382353E+04  0.00000000000E+00 0.  1.
         -1   -1    0    0    0  501 -0.00000000000E+00 -0.00000000000E+00 -0.57650629209E+03  0.57650629209E+03  0.00000000000E+00 0. -1.
    2000013    1    1    2    0    0 -0.76592976301E+02 -0.20499065209E+03  0.53346064050E+03  0.11112910989E+04  0.95000000000E+03 0.  0.
   -2000013    1    1    2    0    0  0.76592976301E+02  0.20499065209E+03  0.53857130274E+03  0.11137534285E+04  0.95000000000E+03 0.  0.
<mgrwt>
<rscale>  0 0.19497617E+04</rscale>
<asrwt>0</asrwt>
<pdfrwt beam="1">  1        1 0.25362127E+00 0.19497617E+04</pdfrwt>
<pdfrwt beam="2">  1       -1 0.88693276E-01 0.19497617E+04</pdfrwt>
<totfact> 0.60063930E+00</totfact>
</mgrwt>
</event>
<event>
 4    1  0.1308745E-008  0.2949265E+04  0.7816531E-02  0.8258369E-01
          2   -1    0    0  501    0  0.00000000000E+00  0.00000000000E+00  0.17587476375E+04  0.17587476375E+04  0.00000000000E+00 0.  1.
         -2   -1    0    0    0  501 -0.00000000000E+00 -0.00000000000E+00 -0.12364145827E+04  0.12364145827E+04  0.00000000000E+00 0. -1.
    2000013    1    1    2    0    0 -0.56275955276E+03 -0.76877563023E+03  0.87415481295E+03  0.16044815115E+04  0.95000000000E+03 0.  0.
   -2000013    1    1    2    0    0  0.56275955276E+03  0.76877563023E+03 -0.35182175815E+03  0.13906807086E+04  0.95000000000E+03 0.  0.
<mgrwt>
<rscale>  0 0.29492651E+04</rscale>
<asrwt>0</asrwt>
<pdfrwt beam="1">  1        2 0.27057656E+00 0.29492651E+04</pdfrwt>
<pdfrwt beam="2">  1       -2 0.19021763E+00 0.29492651E+04</pdfrwt>
<totfact> 0.12080328E+00</totfact>
</mgrwt>
</event>
<event>
 4    1  0.1308745E-008  0.2801219E+04  0.7816531E-02  0.8302890E-01
         -2   -1    0    0    0  501 -0.00000000000E+00  0.00000000000E+00  0.98173560904E+03  0.98173560904E+03  0.00000000000E+00 0. -1.
          2   -1    0    0  501    0  0.00000000000E+00 -0.00000000000E+00 -0.19982032232E+04  0.19982032232E+04  0.00000000000E+00 0.  1.
    2000013    1    1    2    0    0  0.67191246687E+03 -0.40153686273E+03  0.20261196380E+03  0.12474974241E+04  0.95000000000E+03 0.  0.
   -2000013    1    1    2    0    0 -0.67191246687E+03  0.40153686273E+03 -0.12190795780E+04  0.17324414082E+04  0.95000000000E+03 0.  0.
<mgrwt>
<rscale>  0 0.28012192E+04</rscale>
<asrwt>0</asrwt>
<pdfrwt beam="2">  1        2 0.30741588E+00 0.28012192E+04</pdfrwt>
<pdfrwt beam="1">  1       -2 0.15103625E+00 0.28012192E+04</pdfrwt>
<totfact> 0.17142177E+00</totfact>
</mgrwt>
</event>
<event>
 4    1  0.1308745E-008  0.2639150E+04  0.7816531E-02  0.8355023E-01
         -1   -1    0    0    0  501 -0.00000000000E+00  0.00000000000E+00  0.11432023566E+04  0.11432023566E+04  0.00000000000E+00 0. -1.
          1   -1    0    0  501    0  0.00000000000E+00 -0.00000000000E+00 -0.15231579745E+04  0.15231579745E+04  0.00000000000E+00 0.  1.
    2000013    1    1    2    0    0 -0.54012379678E+03  0.14312933229E+03 -0.92310267176E+03  0.14376502580E+04  0.95000000000E+03 0.  0.
   -2000013    1    1    2    0    0  0.54012379678E+03 -0.14312933229E+03  0.54314705392E+03  0.12287100731E+04  0.95000000000E+03 0.  0.
<mgrwt>
<rscale>  0 0.26391497E+04</rscale>
<asrwt>0</asrwt>
<pdfrwt beam="2">  1        1 0.23433200E+00 0.26391497E+04</pdfrwt>
<pdfrwt beam="1">  1       -1 0.17587729E+00 0.26391497E+04</pdfrwt>
<totfact> 0.12334604E+00</totfact>
</mgrwt>
</event>
<event>
 4    1  0.1308745E-008  0.2432242E+04  0.7816531E-02  0.8427530E-01
          2   -1    0    0  501    0  0.00000000000E+00  0.00000000000E+00  0.82113862942E+03  0.82113862942E+03  0.00000000000E+00 0.  1.
         -2   -1    0    0    0  501 -0.00000000000E+00 -0.00000000000E+00 -0.18010965943E+04  0.18010965943E+04  0.00000000000E+00 0. -1.
    2000013    1    1    2    0    0  0.49167757115E+02 -0.36116911571E+03  0.22807233293E+03  0.10427739868E+04  0.95000000000E+03 0.  0.
   -2000013    1    1    2    0    0 -0.49167757115E+02  0.36116911571E+03 -0.12080302978E+04  0.15794612369E+04  0.95000000000E+03 0.  0.
<mgrwt>
<rscale>  0 0.24322418E+04</rscale>
<asrwt>0</asrwt>
<pdfrwt beam="1">  1        2 0.12632902E+00 0.24322418E+04</pdfrwt>
<pdfrwt beam="2">  1       -2 0.27709178E+00 0.24322418E+04</pdfrwt>
<totfact> 0.13087221E+00</totfact>
</mgrwt>
</event>
<event>
 4    1  0.1308745E-008  0.2878060E+04  0.7816531E-02  0.8279435E-01
          2   -1    0    0  501    0  0.00000000000E+00  0.00000000000E+00  0.17495695396E+04  0.17495695396E+04  0.00000000000E+00 0.  1.
         -2   -1    0    0    0  501 -0.00000000000E+00 -0.00000000000E+00 -0.11836095746E+04  0.11836095746E+04  0.00000000000E+00 0. -1.
    2000013    1    1    2    0    0  0.10353637575E+04  0.12672496945E+03  0.57172546074E+03  0.15223032978E+04  0.95000000000E+03 0.  0.
   -2000013    1    1    2    0    0 -0.10353637575E+04 -0.12672496945E+03 -0.57654957822E+01  0.14108758163E+04  0.95000000000E+03 0.  0.
<mgrwt>
<rscale>  0 0.28780599E+04</rscale>
<asrwt>0</asrwt>
<pdfrwt beam="1">  1        2 0.26916455E+00 0.28780599E+04</pdfrwt>
<pdfrwt beam="2">  1       -2 0.18209378E+00 0.28780599E+04</pdfrwt>
<totfact> 0.13959704E+00</totfact>
</mgrwt>
</event>
<event>
 4    1  0.1308745E-008  0.2300390E+04  0.7816531E-02  0.8477767E-01
         -2   -1    0    0    0  501 -0.00000000000E+00  0.00000000000E+00  0.14901853485E+04  0.14901853485E+04  0.00000000000E+00 0. -1.
          2   -1    0    0  501    0  0.00000000000E+00 -0.00000000000E+00 -0.88777453596E+03  0.88777453596E+03  0.00000000000E+00 0.  1.
    2000013    1    1    2    0    0 -0.11437447130E+03 -0.63651506369E+03  0.34986344833E+03  0.12013065298E+04  0.95000000000E+03 0.  0.
   -2000013    1    1    2    0    0  0.11437447130E+03  0.63651506369E+03  0.25254736424E+03  0.11766533547E+04  0.95000000000E+03 0.  0.
<mgrwt>
<rscale>  0 0.23003901E+04</rscale>
<asrwt>0</asrwt>
<pdfrwt beam="2">  1        2 0.13658070E+00 0.23003901E+04</pdfrwt>
<pdfrwt beam="1">  1       -2 0.22925928E+00 0.23003901E+04</pdfrwt>
<totfact> 0.23409634E+00</totfact>
</mgrwt>
</event>
<event>
 4    1  0.1308745E-008  0.2421966E+04  0.7816531E-02  0.8431325E-01
         -2   -1    0    0    0  501 -0.00000000000E+00  0.00000000000E+00  0.98046641028E+03  0.98046641028E+03  0.00000000000E+00 0. -1.
          2   -1    0    0  501    0  0.00000000000E+00 -0.00000000000E+00 -0.14956959976E+04  0.14956959976E+04  0.00000000000E+00 0.  1.
    2000013    1    1    2    0    0 -0.48734184689E+03  0.57041814113E+03 -0.22369475973E+03  0.12310232642E+04  0.95000000000E+03 0.  0.
   -2000013    1    1    2    0    0  0.48734184689E+03 -0.57041814113E+03 -0.29153482761E+03  0.12451391437E+04  0.95000000000E+03 0.  0.
<mgrwt>
<rscale>  0 0.24219659E+04</rscale>
<asrwt>0</asrwt>
<pdfrwt beam="2">  1        2 0.23010708E+00 0.24219659E+04</pdfrwt>
<pdfrwt beam="1">  1       -2 0.15084099E+00 0.24219659E+04</pdfrwt>
<totfact> 0.33830365E+00</totfact>
</mgrwt>
</event>
<event>
 4    1  0.1308745E-008  0.2285875E+04  0.7816531E-02  0.8483511E-01
         -2   -1    0    0    0  501 -0.00000000000E+00  0.00000000000E+00  0.45384477704E+03  0.45384477704E+03  0.00000000000E+00 0.  1.
          2   -1    0    0  501    0  0.00000000000E+00 -0.00000000000E+00 -0.28783094727E+04  0.28783094727E+04  0.00000000000E+00 0. -1.
    2000013    1    1    2    0    0  0.29328062908E+03  0.55458282751E+03 -0.10647934006E+04  0.15588010219E+04  0.95000000000E+03 0.  0.
   -2000013    1    1    2    0    0 -0.29328062908E+03 -0.55458282751E+03 -0.13596712951E+04  0.17733532278E+04  0.95000000000E+03 0.  0.
<mgrwt>
<rscale>  0 0.22858746E+04</rscale>
<asrwt>0</asrwt>
<pdfrwt beam="2">  1        2 0.44281685E+00 0.22858746E+04</pdfrwt>
<pdfrwt beam="1">  1       -2 0.69822272E-01 0.22858746E+04</pdfrwt>
<totfact> 0.35169855E+00</totfact>
</mgrwt>
</event>
<event>
 4    1  0.1308745E-008  0.2217333E+04  0.7816531E-02  0.8511248E-01
         -1   -1    0    0    0  501 -0.00000000000E+00  0.00000000000E+00  0.95072297343E+03  0.95072297343E+03  0.00000000000E+00 0. -1.
          1   -1    0    0  501    0  0.00000000000E+00 -0.00000000000E+00 -0.12928493638E+04  0.12928493638E+04  0.00000000000E+00 0.  1.
    2000013    1    1    2    0    0 -0.49030883651E+02  0.56926265024E+03 -0.15757887041E+03  0.11197299196E+04  0.95000000000E+03 0.  0.
   -2000013    1    1    2    0    0  0.49030883651E+02 -0.56926265024E+03 -0.18454751997E+03  0.11238424176E+04  0.95000000000E+03 0.  0.
<mgrwt>
<rscale>  0 0.22173332E+04</rscale>
<asrwt>0</asrwt>
<pdfrwt beam="2">  1        1 0.19889990E+00 0.22173332E+04</pdfrwt>
<pdfrwt beam="1">  1       -1 0.14626507E+00 0.22173332E+04</pdfrwt>
<totfact> 0.31110113E+00</totfact>
</mgrwt>
</event>
<event>
 4    1  0.1308745E-008  0.2654664E+04  0.7816531E-02  0.8349866E-01
         -1   -1    0    0    0  501 -0.00000000000E+00  0.00000000000E+00  0.50127846175E+03  0.50127846175E+03  0.00000000000E+00 0. -1.
          1   -1    0    0  501    0  0.00000000000E+00 -0.00000000000E+00 -0.35146348443E+04  0.35146348443E+04  0.00000000000E+00 0.  1.
    2000013    1    1    2    0    0 -0.87617240635E+03  0.25089029754E+03 -0.17628994514E+04  0.22002132857E+04  0.95000000000E+03 0.  0.
   -2000013    1    1    2    0    0  0.87617240635E+03 -0.25089029754E+03 -0.12504569312E+04  0.18157000203E+04  0.95000000000E+03 0.  0.
<mgrwt>
<rscale>  0 0.26546644E+04</rscale>
<asrwt>0</asrwt>
<pdfrwt beam="2">  1        1 0.54071307E+00 0.26546644E+04</pdfrwt>
<pdfrwt beam="1">  1       -1 0.77119761E-01 0.26546644E+04</pdfrwt>
<totfact> 0.35971760E-01</totfact>
</mgrwt>
</event>
<event>
 4    1  0.1308745E-008  0.2416234E+04  0.7816531E-02  0.8433451E-01
         -2   -1    0    0    0  501 -0.00000000000E+00  0.00000000000E+00  0.46910015224E+03  0.46910015224E+03  0.00000000000E+00 0.  1.
          2   -1    0    0  501    0  0.00000000000E+00 -0.00000000000E+00 -0.31113763786E+04  0.31113763786E+04  0.00000000000E+00 0. -1.
    2000013    1    1    2    0    0 -0.56893870489E+03  0.34516846797E+03 -0.18219361381E+04  0.21598110594E+04  0.95000000000E+03 0.  0.
   -2000013    1    1    2    0    0  0.56893870489E+03 -0.34516846797E+03 -0.82034008825E+03  0.14206654714E+04  0.95000000000E+03 0.  0.
<mgrwt>
<rscale>  0 0.24162344E+04</rscale>
<asrwt>0</asrwt>
<pdfrwt beam="2">  1        2 0.47867329E+00 0.24162344E+04</pdfrwt>
<pdfrwt beam="1">  1       -2 0.72169255E-01 0.24162344E+04</pdfrwt>
<totfact> 0.23118823E+00</totfact>
</mgrwt>
</event>
<event>
 4    1  0.1308745E-008  0.2796596E+04  0.7816531E-02  0.8304326E-01
         -2   -1    0    0    0  501 -0.00000000000E+00  0.00000000000E+00  0.15047504536E+04  0.15047504536E+04  0.00000000000E+00 0. -1.
          2   -1    0    0  501    0  0.00000000000E+00 -0.00000000000E+00 -0.12993766305E+04  0.12993766305E+04  0.00000000000E+00 0.  1.
    2000013    1    1    2    0    0  0.52627463289E+03 -0.81238937043E+03 -0.23851769626E+03  0.13770737707E+04  0.95000000000E+03 0.  0.
   -2000013    1    1    2    0    0 -0.52627463289E+03  0.81238937043E+03  0.44389151936E+03  0.14270533134E+04  0.95000000000E+03 0.  0.
<mgrwt>
<rscale>  0 0.27965962E+04</rscale>
<asrwt>0</asrwt>
<pdfrwt beam="2">  1        2 0.19990410E+00 0.27965962E+04</pdfrwt>
<pdfrwt beam="1">  1       -2 0.23150007E+00 0.27965962E+04</pdfrwt>
<totfact> 0.12049560E+00</totfact>
</mgrwt>
</event>
<event>
 4    1  0.1308745E-008  0.2103725E+04  0.7816531E-02  0.8559604E-01
          1   -1    0    0  501    0  0.00000000000E+00  0.00000000000E+00  0.70524851608E+03  0.70524851608E+03  0.00000000000E+00 0.  1.
         -1   -1    0    0    0  501 -0.00000000000E+00 -0.00000000000E+00 -0.15688298139E+04  0.15688298139E+04  0.00000000000E+00 0. -1.
    2000013    1    1    2    0    0  0.12603131102E+03  0.20652664390E+03 -0.19631075882E+02  0.98052155771E+03  0.95000000000E+03 0.  0.
   -2000013    1    1    2    0    0 -0.12603131102E+03 -0.20652664390E+03 -0.84395022196E+03  0.12935567723E+04  0.95000000000E+03 0.  0.
<mgrwt>
<rscale>  0 0.21037252E+04</rscale>
<asrwt>0</asrwt>
<pdfrwt beam="1">  1        1 0.10849977E+00 0.21037252E+04</pdfrwt>
<pdfrwt beam="2">  1       -1 0.24135843E+00 0.21037252E+04</pdfrwt>
<totfact> 0.19667149E+00</totfact>
</mgrwt>
</event>
<event>
 4    1  0.1308745E-008  0.2434322E+04  0.7816531E-02  0.8426764E-01
         -1   -1    0    0    0  501 -0.00000000000E+00  0.00000000000E+00  0.86383447732E+03  0.86383447732E+03  0.00000000000E+00 0. -1.
          1   -1    0    0  501    0  0.00000000000E+00 -0.00000000000E+00 -0.17150059631E+04  0.17150059631E+04  0.00000000000E+00 0.  1.
    2000013    1    1    2    0    0 -0.67396700866E+03 -0.27332717472E+03 -0.66256686417E+03  0.13676381549E+04  0.95000000000E+03 0.  0.
   -2000013    1    1    2    0    0  0.67396700866E+03  0.27332717472E+03 -0.18860462162E+03  0.12112022855E+04  0.95000000000E+03 0.  0.
<mgrwt>
<rscale>  0 0.24343223E+04</rscale>
<asrwt>0</asrwt>
<pdfrwt beam="2">  1        1 0.26384707E+00 0.24343223E+04</pdfrwt>
<pdfrwt beam="1">  1       -1 0.13289761E+00 0.24343223E+04</pdfrwt>
<totfact> 0.19942445E+00</totfact>
</mgrwt>
</event>
<event>
 4    1  0.1308745E-008  0.2239630E+04  0.7816531E-02  0.8502112E-01
         -2   -1    0    0    0  501 -0.00000000000E+00  0.00000000000E+00  0.25955884326E+03  0.25955884326E+03  0.00000000000E+00 0. -1.
          2   -1    0    0  501    0  0.00000000000E+00 -0.00000000000E+00 -0.48312192158E+04  0.48312192158E+04  0.00000000000E+00 0.  1.
    2000013    1    1    2    0    0  0.38942415678E+03  0.11803157033E+03 -0.32658867316E+04  0.34255070821E+04  0.95000000000E+03 0.  0.
   -2000013    1    1    2    0    0 -0.38942415678E+03 -0.11803157033E+03 -0.13057736409E+04  0.16652709770E+04  0.95000000000E+03 0.  0.
<mgrwt>
<rscale>  0 0.22396300E+04</rscale>
<asrwt>0</asrwt>
<pdfrwt beam="2">  1        2 0.74326454E+00 0.22396300E+04</pdfrwt>
<pdfrwt beam="1">  1       -2 0.39932127E-01 0.22396300E+04</pdfrwt>
<totfact> 0.30080715E-01</totfact>
</mgrwt>
</event>
<event>
 4    1  0.1308745E-008  0.2524497E+04  0.7816531E-02  0.8394310E-01
          1   -1    0    0  501    0  0.00000000000E+00  0.00000000000E+00  0.11817048324E+04  0.11817048324E+04  0.00000000000E+00 0.  1.
         -1   -1    0    0    0  501 -0.00000000000E+00 -0.00000000000E+00 -0.13482818271E+04  0.13482818271E+04  0.00000000000E+00 0. -1.
    2000013    1    1    2    0    0  0.75313675855E+03 -0.14695889197E+03 -0.40329346591E+03  0.12860627950E+04  0.95000000000E+03 0.  0.
   -2000013    1    1    2    0    0 -0.75313675855E+03  0.14695889197E+03  0.23671647127E+03  0.12439238645E+04  0.95000000000E+03 0.  0.
<mgrwt>
<rscale>  0 0.25244969E+04</rscale>
<asrwt>0</asrwt>
<pdfrwt beam="1">  1        1 0.18180074E+00 0.25244969E+04</pdfrwt>
<pdfrwt beam="2">  1       -1 0.20742797E+00 0.25244969E+04</pdfrwt>
<totfact> 0.13077512E+00</totfact>
</mgrwt>
</event>
<event>
 4    1  0.1308745E-008  0.3521664E+04  0.7816531E-02  0.8108675E-01
          2   -1    0    0  501    0  0.00000000000E+00  0.00000000000E+00  0.50893297102E+04  0.50893297102E+04  0.00000000000E+00 0.  1.
         -2   -1    0    0    0  501 -0.00000000000E+00 -0.00000000000E+00 -0.60922147325E+03  0.60922147325E+03  0.00000000000E+00 0. -1.
    2000013    1    1    2    0    0  0.21945963219E+03  0.12390241279E+04  0.35087078199E+04  0.38466704934E+04  0.95000000000E+03 0.  0.
   -2000013    1    1    2    0    0 -0.21945963219E+03 -0.12390241279E+04  0.97140041706E+03  0.18518806900E+04  0.95000000000E+03 0.  0.
<mgrwt>
<rscale>  0 0.35216638E+04</rscale>
<asrwt>0</asrwt>
<pdfrwt beam="1">  1        2 0.78297377E+00 0.35216638E+04</pdfrwt>
<pdfrwt beam="2">  1       -2 0.93726384E-01 0.35216638E+04</pdfrwt>
<totfact> 0.20559413E-02</totfact>
</mgrwt>
</event>
<event>
 4    1  0.1308745E-008  0.2064208E+04  0.7816531E-02  0.8577176E-01
         -2   -1    0    0    0  501 -0.00000000000E+00  0.00000000000E+00  0.18330915244E+04  0.18330915244E+04  0.00000000000E+00 0. -1.
          2   -1    0    0  501    0  0.00000000000E+00 -0.00000000000E+00 -0.58111572329E+03  0.58111572329E+03  0.00000000000E+00 0.  1.
    2000013    1    1    2    0    0  0.59391673923E+02  0.22434372387E+03  0.24006826443E+03  0.10069708283E+04  0.95000000000E+03 0.  0.
   -2000013    1    1    2    0    0 -0.59391673923E+02 -0.22434372387E+03  0.10119075367E+04  0.14072364194E+04  0.95000000000E+03 0.  0.
<mgrwt>
<rscale>  0 0.20642077E+04</rscale>
<asrwt>0</asrwt>
<pdfrwt beam="2">  1        2 0.89402420E-01 0.20642077E+04</pdfrwt>
<pdfrwt beam="1">  1       -2 0.28201408E+00 0.20642077E+04</pdfrwt>
<totfact> 0.19512373E+00</totfact>
</mgrwt>
</event>
<event>
 4    1  0.1308745E-008  0.2601925E+04  0.7816531E-02  0.8367548E-01
         -2   -1    0    0    0  501 -0.00000000000E+00  0.00000000000E+00  0.40352501904E+03  0.40352501904E+03  0.00000000000E+00 0. -1.
          2   -1    0    0  501    0  0.00000000000E+00 -0.00000000000E+00 -0.41942954099E+04  0.41942954099E+04  0.00000000000E+00 0.  1.
    2000013    1    1    2    0    0  0.54689994761E+03 -0.68652126871E+03 -0.16480430656E+04  0.20949837591E+04  0.95000000000E+03 0.  0.
   -2000013    1    1    2    0    0 -0.54689994761E+03  0.68652126871E+03 -0.21427273253E+04  0.25028366698E+04  0.95000000000E+03 0.  0.
<mgrwt>
<rscale>  0 0.26019248E+04</rscale>
<asrwt>0</asrwt>
<pdfrwt beam="2">  1        2 0.64527619E+00 0.26019248E+04</pdfrwt>
<pdfrwt beam="1">  1       -2 0.62080774E-01 0.26019248E+04</pdfrwt>
<totfact> 0.50265550E-01</totfact>
</mgrwt>
</event>
<event>
 4    1  0.1308745E-008  0.2238777E+04  0.7816531E-02  0.8502459E-01
          2   -1    0    0  501    0  0.00000000000E+00  0.00000000000E+00  0.20458560161E+04  0.20458560161E+04  0.00000000000E+00 0.  1.
         -2   -1    0    0    0  501 -0.00000000000E+00 -0.00000000000E+00 -0.61247263661E+03  0.61247263661E+03  0.00000000000E+00 0. -1.
    2000013    1    1    2    0    0 -0.29914679127E+02  0.37155340992E+03  0.12628759922E+04  0.16236694848E+04  0.95000000000E+03 0.  0.
   -2000013    1    1    2    0    0  0.29914679127E+02 -0.37155340992E+03  0.17050738730E+03  0.10346591678E+04  0.95000000000E+03 0.  0.
<mgrwt>
<rscale>  0 0.22387772E+04</rscale>
<asrwt>0</asrwt>
<pdfrwt beam="1">  1        2 0.31474708E+00 0.22387772E+04</pdfrwt>
<pdfrwt beam="2">  1       -2 0.94226561E-01 0.22387772E+04</pdfrwt>
<totfact> 0.54521704E+00</totfact>
</mgrwt>
</event>
<event>
 4    1  0.1308745E-008  0.2900321E+04  0.7816531E-02  0.8272782E-01
          2   -1    0    0  501    0  0.00000000000E+00  0.00000000000E+00  0.21362076300E+04  0.21362076300E+04  0.00000000000E+00 0.  1.
         -2   -1    0    0    0  501 -0.00000000000E+00 -0.00000000000E+00 -0.98443863215E+03  0.98443863215E+03  0.00000000000E+00 0. -1.
    2000013    1    1    2    0    0  0.75194741852E+03 -0.99991153893E+01 -0.28147897481E+03  0.12438871797E+04  0.95000000000E+03 0.  0.
   -2000013    1    1    2    0    0 -0.75194741852E+03  0.99991153893E+01  0.14332479727E+04  0.18767590825E+04  0.95000000000E+03 0.  0.
<mgrwt>
<rscale>  0 0.29003209E+04</rscale>
<asrwt>0</asrwt>
<pdfrwt beam="1">  1        2 0.32864733E+00 0.29003209E+04</pdfrwt>
<pdfrwt beam="2">  1       -2 0.15145210E+00 0.29003209E+04</pdfrwt>
<totfact> 0.14134625E+00</totfact>
</mgrwt>
</event>
<event>
 4    1  0.1308745E-008  0.2237052E+04  0.7816531E-02  0.8503163E-01
          2   -1    0    0  501    0  0.00000000000E+00  0.00000000000E+00  0.86005441475E+03  0.86005441475E+03  0.00000000000E+00 0.  1.
         -2   -1    0    0    0  501 -0.00000000000E+00 -0.00000000000E+00 -0.14546755116E+04  0.14546755116E+04  0.00000000000E+00 0. -1.
    2000013    1    1    2    0    0  0.20411619413E+03 -0.51893078674E+03 -0.96543491879E+02  0.11057907704E+04  0.95000000000E+03 0.  0.
   -2000013    1    1    2    0    0 -0.20411619413E+03  0.51893078674E+03 -0.49807760497E+03  0.12089391559E+04  0.95000000000E+03 0.  0.
<mgrwt>
<rscale>  0 0.22370517E+04</rscale>
<asrwt>0</asrwt>
<pdfrwt beam="1">  1        2 0.13231607E+00 0.22370517E+04</pdfrwt>
<pdfrwt beam="2">  1       -2 0.22379623E+00 0.22370517E+04</pdfrwt>
<totfact> 0.26607715E+00</totfact>
</mgrwt>
</event>
<event>
 4    1  0.1308745E-008  0.2376318E+04  0.7816531E-02  0.8448423E-01
         -2   -1    0    0    0  501 -0.00000000000E+00  0.00000000000E+00  0.41514756025E+03  0.41514756025E+03  0.00000000000E+00 0. -1.
          2   -1    0    0  501    0  0.00000000000E+00 -0.00000000000E+00 -0.34005306314E+04  0.34005306314E+04  0.00000000000E+00 0.  1.
    2000013    1    1    2    0    0 -0.63299791891E+03  0.27225287481E+03 -0.17905670073E+04  0.21408965881E+04  0.95000000000E+03 0.  0.
   -2000013    1    1    2    0    0  0.63299791891E+03 -0.27225287481E+03 -0.11948160638E+04  0.16747816035E+04  0.95000000000E+03 0.  0.
<mgrwt>
<rscale>  0 0.23763182E+04</rscale>
<asrwt>0</asrwt>
<pdfrwt beam="2">  1        2 0.52315855E+00 0.23763182E+04</pdfrwt>
<pdfrwt beam="1">  1       -2 0.63868856E-01 0.23763182E+04</pdfrwt>
<totfact> 0.19491319E+00</totfact>
</mgrwt>
</event>
<event>
 4    1  0.1308745E-008  0.2683504E+04  0.7816531E-02  0.8340377E-01
         -2   -1    0    0    0  501 -0.00000000000E+00  0.00000000000E+00  0.10799093548E+04  0.10799093548E+04  0.00000000000E+00 0. -1.
          2   -1    0    0  501    0  0.00000000000E+00 -0.00000000000E+00 -0.16670830776E+04  0.16670830776E+04  0.00000000000E+00 0.  1.
    2000013    1    1    2    0    0  0.89218781900E+03 -0.12846654735E+02  0.32757194860E+02  0.13037396883E+04  0.95000000000E+03 0.  0.
   -2000013    1    1    2    0    0 -0.89218781900E+03  0.12846654735E+02 -0.61993091769E+03  0.14432527442E+04  0.95000000000E+03 0.  0.
<mgrwt>
<rscale>  0 0.26835041E+04</rscale>
<asrwt>0</asrwt>
<pdfrwt beam="2">  1        2 0.25647432E+00 0.26835041E+04</pdfrwt>
<pdfrwt beam="1">  1       -2 0.16613990E+00 0.26835041E+04</pdfrwt>
<totfact> 0.20417772E+00</totfact>
</mgrwt>
</event>
<event>
 4    1  0.1308745E-008  0.2701502E+04  0.7816531E-02  0.8334518E-01
          2   -1    0    0  501    0  0.00000000000E+00  0.00000000000E+00  0.11443629312E+04  0.11443629312E+04  0.00000000000E+00 0.  1.
         -2   -1    0    0    0  501 -0.00000000000E+00 -0.00000000000E+00 -0.15943617105E+04  0.15943617105E+04  0.00000000000E+00 0. -1.
    2000013    1    1    2    0    0 -0.61349397543E+03  0.58714922855E+03  0.22940565746E+03  0.12946992045E+04  0.95000000000E+03 0.  0.
   -2000013    1    1    2    0    0  0.61349397543E+03 -0.58714922855E+03 -0.67940443673E+03  0.14440254371E+04  0.95000000000E+03 0.  0.
<mgrwt>
<rscale>  0 0.27015021E+04</rscale>
<asrwt>0</asrwt>
<pdfrwt beam="1">  1        2 0.17605584E+00 0.27015021E+04</pdfrwt>
<pdfrwt beam="2">  1       -2 0.24528642E+00 0.27015021E+04</pdfrwt>
<totfact> 0.12332454E+00</totfact>
</mgrwt>
</event>
<event>
 4    1  0.1308745E-008  0.2984590E+04  0.7816531E-02  0.8248145E-01
         -2   -1    0    0    0  501 -0.00000000000E+00  0.00000000000E+00  0.47483605495E+03  0.47483605495E+03  0.00000000000E+00 0. -1.
          2   -1    0    0  501    0  0.00000000000E+00 -0.00000000000E+00 -0.46899234882E+04  0.46899234882E+04  0.00000000000E+00 0.  1.
    2000013    1    1    2    0    0 -0.27493621635E+03  0.11170616239E+04 -0.21630316264E+04  0.26276648210E+04  0.95000000000E+03 0.  0.
   -2000013    1    1    2    0    0  0.27493621635E+03 -0.11170616239E+04 -0.20520558068E+04  0.25370947221E+04  0.95000000000E+03 0.  0.
<mgrwt>
<rscale>  0 0.29845903E+04</rscale>
<asrwt>0</asrwt>
<pdfrwt beam="2">  1        2 0.72152667E+00 0.29845903E+04</pdfrwt>
<pdfrwt beam="1">  1       -2 0.73051703E-01 0.29845903E+04</pdfrwt>
<totfact> 0.11406813E-01</totfact>
</mgrwt>
</event>
<event>
 4    1  0.1308745E-008  0.2445241E+04  0.7816531E-02  0.8422758E-01
          2   -1    0    0  501    0  0.00000000000E+00  0.00000000000E+00  0.10380542450E+04  0.10380542450E+04  0.00000000000E+00 0.  1.
         -2   -1    0    0    0  501 -0.00000000000E+00 -0.00000000000E+00 -0.14400026639E+04  0.14400026639E+04  0.00000000000E+00 0. -1.
    2000013    1    1    2    0    0  0.25415584850E+03  0.69446091244E+03  0.15028727843E+02  0.12039921166E+04  0.95000000000E+03 0.  0.
   -2000013    1    1    2    0    0 -0.25415584850E+03 -0.69446091244E+03 -0.41697714675E+03  0.12740647924E+04  0.95000000000E+03 0.  0.
<mgrwt>
<rscale>  0 0.24452410E+04</rscale>
<asrwt>0</asrwt>
<pdfrwt beam="1">  1        2 0.15970065E+00 0.24452410E+04</pdfrwt>
<pdfrwt beam="2">  1       -2 0.22153887E+00 0.24452410E+04</pdfrwt>
<totfact> 0.20619190E+00</totfact>
</mgrwt>
</event>
<event>
 4    1  0.1308745E-008  0.2538810E+04  0.7816531E-02  0.8389288E-01
         -2   -1    0    0    0  501 -0.00000000000E+00  0.00000000000E+00  0.78421827998E+03  0.78421827998E+03  0.00000000000E+00 0. -1.
          2   -1    0    0  501    0  0.00000000000E+00 -0.00000000000E+00 -0.20547710099E+04  0.20547710099E+04  0.00000000000E+00 0.  1.
    2000013    1    1    2    0    0 -0.63915883301E+03 -0.55802570659E+01 -0.12481002632E+04  0.16937560096E+04  0.95000000000E+03 0.  0.
   -2000013    1    1    2    0    0  0.63915883301E+03  0.55802570659E+01 -0.22452466773E+02  0.11452332803E+04  0.95000000000E+03 0.  0.
<mgrwt>
<rscale>  0 0.25388099E+04</rscale>
<asrwt>0</asrwt>
<pdfrwt beam="2">  1        2 0.31611861E+00 0.25388099E+04</pdfrwt>
<pdfrwt beam="1">  1       -2 0.12064897E+00 0.25388099E+04</pdfrwt>
<totfact> 0.29007461E+00</totfact>
</mgrwt>
</event>
<event>
 4    1  0.1308745E-008  0.2278584E+04  0.7816531E-02  0.8486413E-01
         -2   -1    0    0    0  501 -0.00000000000E+00  0.00000000000E+00  0.43648746953E+03  0.43648746953E+03  0.00000000000E+00 0. -1.
          2   -1    0    0  501    0  0.00000000000E+00 -0.00000000000E+00 -0.29737091388E+04  0.29737091388E+04  0.00000000000E+00 0.  1.
    2000013    1    1    2    0    0 -0.80125677590E+02  0.61985814914E+03 -0.13727586949E+04  0.17825853931E+04  0.95000000000E+03 0.  0.
   -2000013    1    1    2    0    0  0.80125677590E+02 -0.61985814914E+03 -0.11644629743E+04  0.16276112152E+04  0.95000000000E+03 0.  0.
<mgrwt>
<rscale>  0 0.22785845E+04</rscale>
<asrwt>0</asrwt>
<pdfrwt beam="2">  1        2 0.45749370E+00 0.22785845E+04</pdfrwt>
<pdfrwt beam="1">  1       -2 0.67151920E-01 0.22785845E+04</pdfrwt>
<totfact> 0.33447047E+00</totfact>
</mgrwt>
</event>
<event>
 4    1  0.1308745E-008  0.1928344E+04  0.7816531E-02  0.8640875E-01
          2   -1    0    0  501    0  0.00000000000E+00  0.00000000000E+00  0.14738875389E+04  0.14738875389E+04  0.00000000000E+00 0.  1.
         -2   -1    0    0    0  501 -0.00000000000E+00 -0.00000000000E+00 -0.63073182864E+03  0.63073182864E+03  0.00000000000E+00 0. -1.
    2000013    1    1    2    0    0  0.57515424537E+02  0.15433484791E+03  0.42235977716E+03  0.10526229385E+04  0.95000000000E+03 0.  0.
   -2000013    1    1    2    0    0 -0.57515424537E+02 -0.15433484791E+03  0.42079593308E+03  0.10519964290E+04  0.95000000000E+03 0.  0.
<mgrwt>
<rscale>  0 0.19283441E+04</rscale>
<asrwt>0</asrwt>
<pdfrwt beam="1">  1        2 0.22675193E+00 0.19283441E+04</pdfrwt>
<pdfrwt beam="2">  1       -2 0.97035667E-01 0.19283441E+04</pdfrwt>
<totfact> 0.10884211E+01</totfact>
</mgrwt>
</event>
<event>
 4    1  0.1308745E-008  0.2299616E+04  0.7816531E-02  0.8478072E-01
         -1   -1    0    0    0  501 -0.00000000000E+00  0.00000000000E+00  0.81395226047E+03  0.81395226047E+03  0.00000000000E+00 0. -1.
          1   -1    0    0  501    0  0.00000000000E+00 -0.00000000000E+00 -0.16242460796E+04  0.16242460796E+04  0.00000000000E+00 0.  1.
    2000013    1    1    2    0    0  0.51532417528E+03  0.10976062547E+03 -0.80461765074E+03  0.13518564881E+04  0.95000000000E+03 0.  0.
   -2000013    1    1    2    0    0 -0.51532417528E+03 -0.10976062547E+03 -0.56761684361E+01  0.10863418520E+04  0.95000000000E+03 0.  0.
<mgrwt>
<rscale>  0 0.22996163E+04</rscale>
<asrwt>0</asrwt>
<pdfrwt beam="2">  1        1 0.24988401E+00 0.22996163E+04</pdfrwt>
<pdfrwt beam="1">  1       -1 0.12522342E+00 0.22996163E+04</pdfrwt>
<totfact> 0.27044167E+00</totfact>
</mgrwt>
</event>
<event>
 4    1  0.1308745E-008  0.3421806E+04  0.7816531E-02  0.8132575E-01
          2   -1    0    0  501    0  0.00000000000E+00  0.00000000000E+00  0.23853681685E+04  0.23853681685E+04  0.00000000000E+00 0.  1.
         -2   -1    0    0    0  501 -0.00000000000E+00 -0.00000000000E+00 -0.12271435811E+04  0.12271435811E+04  0.00000000000E+00 0. -1.
    2000013    1    1    2    0    0 -0.13384756631E+04  0.99955127254E+02  0.10778619253E+04  0.19661623682E+04  0.95000000000E+03 0.  0.
   -2000013    1    1    2    0    0  0.13384756631E+04 -0.99955127254E+02  0.80362662052E+02  0.16463493814E+04  0.95000000000E+03 0.  0.
<mgrwt>
<rscale>  0 0.34218061E+04</rscale>
<asrwt>0</asrwt>
<pdfrwt beam="1">  1        2 0.36697972E+00 0.34218061E+04</pdfrwt>
<pdfrwt beam="2">  1       -2 0.18879132E+00 0.34218061E+04</pdfrwt>
<totfact> 0.52930122E-01</totfact>
</mgrwt>
</event>
<event>
 4    1  0.1308745E-008  0.2421653E+04  0.7816531E-02  0.8431441E-01
         -2   -1    0    0    0  501 -0.00000000000E+00  0.00000000000E+00  0.91186773100E+03  0.91186773100E+03  0.00000000000E+00 0. -1.
          2   -1    0    0  501    0  0.00000000000E+00 -0.00000000000E+00 -0.16077994785E+04  0.16077994785E+04  0.00000000000E+00 0.  1.
    2000013    1    1    2    0    0  0.67220932335E+03 -0.14214673189E+03 -0.66274912595E+03  0.13467766971E+04  0.95000000000E+03 0.  0.
   -2000013    1    1    2    0    0 -0.67220932335E+03  0.14214673189E+03 -0.33182621526E+02  0.11728905124E+04  0.95000000000E+03 0.  0.
<mgrwt>
<rscale>  0 0.24216527E+04</rscale>
<asrwt>0</asrwt>
<pdfrwt beam="2">  1        2 0.24735377E+00 0.24216527E+04</pdfrwt>
<pdfrwt beam="1">  1       -2 0.14028734E+00 0.24216527E+04</pdfrwt>
<totfact> 0.35410137E+00</totfact>
</mgrwt>
</event>
<event>
 4    1  0.1308745E-008  0.2333075E+04  0.7816531E-02  0.8464993E-01
          2   -1    0    0  501    0  0.00000000000E+00  0.00000000000E+00  0.18470270949E+04  0.18470270949E+04  0.00000000000E+00 0.  1.
         -2   -1    0    0    0  501 -0.00000000000E+00 -0.00000000000E+00 -0.73675681291E+03  0.73675681291E+03  0.00000000000E+00 0. -1.
    2000013    1    1    2    0    0  0.89449665921E+02  0.65546085831E+03  0.71439220980E+03  0.13603258466E+04  0.95000000000E+03 0.  0.
   -2000013    1    1    2    0    0 -0.89449665921E+02 -0.65546085831E+03  0.39587807220E+03  0.12234580612E+04  0.95000000000E+03 0.  0.
<mgrwt>
<rscale>  0 0.23330750E+04</rscale>
<asrwt>0</asrwt>
<pdfrwt beam="1">  1        2 0.28415801E+00 0.23330750E+04</pdfrwt>
<pdfrwt beam="2">  1       -2 0.11334720E+00 0.23330750E+04</pdfrwt>
<totfact> 0.44879459E+00</totfact>
</mgrwt>
</event>
<event>
 4    1  0.1308745E-008  0.2267184E+04  0.7816531E-02  0.8490973E-01
         -2   -1    0    0    0  501 -0.00000000000E+00  0.00000000000E+00  0.12033643300E+04  0.12033643300E+04  0.00000000000E+00 0. -1.
          2   -1    0    0  501    0  0.00000000000E+00 -0.00000000000E+00 -0.10678655255E+04  0.10678655255E+04  0.00000000000E+00 0.  1.
    2000013    1    1    2    0    0  0.43551764183E+03  0.17526924969E+03 -0.33563067708E+03  0.11115497639E+04  0.95000000000E+03 0.  0.
   -2000013    1    1    2    0    0 -0.43551764183E+03 -0.17526924969E+03  0.47112948159E+03  0.11596800915E+04  0.95000000000E+03 0.  0.
<mgrwt>
<rscale>  0 0.22671844E+04</rscale>
<asrwt>0</asrwt>
<pdfrwt beam="2">  1        2 0.16428700E+00 0.22671844E+04</pdfrwt>
<pdfrwt beam="1">  1       -2 0.18513297E+00 0.22671844E+04</pdfrwt>
<totfact> 0.34667892E+00</totfact>
</mgrwt>
</event>
<event>
 4    1  0.1308745E-008  0.2170474E+04  0.7816531E-02  0.8530819E-01
         -2   -1    0    0    0  501 -0.00000000000E+00  0.00000000000E+00  0.95680179743E+03  0.95680179743E+03  0.00000000000E+00 0. -1.
          2   -1    0    0  501    0  0.00000000000E+00 -0.00000000000E+00 -0.12309120661E+04  0.12309120661E+04  0.00000000000E+00 0.  1.
    2000013    1    1    2    0    0 -0.45708632307E+03 -0.25441858555E+03 -0.96962888487E+02  0.10888335617E+04  0.95000000000E+03 0.  0.
   -2000013    1    1    2    0    0  0.45708632307E+03  0.25441858555E+03 -0.17714738020E+03  0.10988803018E+04  0.95000000000E+03 0.  0.
<mgrwt>
<rscale>  0 0.21704736E+04</rscale>
<asrwt>0</asrwt>
<pdfrwt beam="2">  1        2 0.18937109E+00 0.21704736E+04</pdfrwt>
<pdfrwt beam="1">  1       -2 0.14720028E+00 0.21704736E+04</pdfrwt>
<totfact> 0.52391593E+00</totfact>
</mgrwt>
</event>
<event>
 4    1  0.1308745E-008  0.2631943E+04  0.7816531E-02  0.8357431E-01
          2   -1    0    0  501    0  0.00000000000E+00  0.00000000000E+00  0.37980726644E+04  0.37980726644E+04  0.00000000000E+00 0. -1.
         -2   -1    0    0    0  501 -0.00000000000E+00 -0.00000000000E+00 -0.45596314276E+03  0.45596314276E+03  0.00000000000E+00 0.  1.
    2000013    1    1    2    0    0  0.38793255347E+03  0.47604809186E+03  0.58419275291E+03  0.12731435993E+04  0.95000000000E+03 0.  0.
   -2000013    1    1    2    0    0 -0.38793255347E+03 -0.47604809186E+03  0.27579167687E+04  0.29808922078E+04  0.95000000000E+03 0.  0.
<mgrwt>
<rscale>  0 0.26319431E+04</rscale>
<asrwt>0</asrwt>
<pdfrwt beam="1">  1        2 0.58431885E+00 0.26319431E+04</pdfrwt>
<pdfrwt beam="2">  1       -2 0.70148178E-01 0.26319431E+04</pdfrwt>
<totfact> 0.80552925E-01</totfact>
</mgrwt>
</event>
<event>
 4    1  0.1308745E-008  0.2328576E+04  0.7816531E-02  0.8466738E-01
          2   -1    0    0  501    0  0.00000000000E+00  0.00000000000E+00  0.26468312443E+04  0.26468312443E+04  0.00000000000E+00 0.  1.
         -2   -1    0    0    0  501 -0.00000000000E+00 -0.00000000000E+00 -0.51214698965E+03  0.51214698965E+03  0.00000000000E+00 0. -1.
    2000013    1    1    2    0    0  0.52751616582E+02  0.54703724290E+03  0.15945644794E+04  0.19357604080E+04  0.95000000000E+03 0.  0.
   -2000013    1    1    2    0    0 -0.52751616582E+02 -0.54703724290E+03  0.54011977525E+03  0.12232178260E+04  0.95000000000E+03 0.  0.
<mgrwt>
<rscale>  0 0.23285761E+04</rscale>
<asrwt>0</asrwt>
<pdfrwt beam="1">  1        2 0.40720480E+00 0.23285761E+04</pdfrwt>
<pdfrwt beam="2">  1       -2 0.78791846E-01 0.23285761E+04</pdfrwt>
<totfact> 0.36950538E+00</totfact>
</mgrwt>
</event>
<event>
 4    1  0.1308745E-008  0.2103678E+04  0.7816531E-02  0.8559625E-01
         -2   -1    0    0    0  501 -0.00000000000E+00  0.00000000000E+00  0.42619265405E+03  0.42619265405E+03  0.00000000000E+00 0. -1.
          2   -1    0    0  501    0  0.00000000000E+00 -0.00000000000E+00 -0.25959278532E+04  0.25959278532E+04  0.00000000000E+00 0.  1.
    2000013    1    1    2    0    0 -0.44823880524E+03 -0.47073934225E+02 -0.10460159132E+04  0.14831666368E+04  0.95000000000E+03 0.  0.
   -2000013    1    1    2    0    0  0.44823880524E+03  0.47073934225E+02 -0.11237192860E+04  0.15389538705E+04  0.95000000000E+03 0.  0.
<mgrwt>
<rscale>  0 0.21036781E+04</rscale>
<asrwt>0</asrwt>
<pdfrwt beam="2">  1        2 0.39937351E+00 0.21036781E+04</pdfrwt>
<pdfrwt beam="1">  1       -2 0.65568101E-01 0.21036781E+04</pdfrwt>
<totfact> 0.60432537E+00</totfact>
</mgrwt>
</event>
<event>
 4    1  0.1308745E-008  0.2248500E+04  0.7816531E-02  0.8498508E-01
         -2   -1    0    0    0  501 -0.00000000000E+00  0.00000000000E+00  0.85870063278E+03  0.85870063278E+03  0.00000000000E+00 0. -1.
          2   -1    0    0  501    0  0.00000000000E+00 -0.00000000000E+00 -0.14719189236E+04  0.14719189236E+04  0.00000000000E+00 0.  1.
    2000013    1    1    2    0    0  0.56343660059E+03 -0.58614408694E+02 -0.97906875746E+02  0.11103973199E+04  0.95000000000E+03 0.  0.
   -2000013    1    1    2    0    0 -0.56343660059E+03  0.58614408694E+02 -0.51531141506E+03  0.12202222364E+04  0.95000000000E+03 0.  0.
<mgrwt>
<rscale>  0 0.22484997E+04</rscale>
<asrwt>0</asrwt>
<pdfrwt beam="2">  1        2 0.22644906E+00 0.22484997E+04</pdfrwt>
<pdfrwt beam="1">  1       -2 0.13210779E+00 0.22484997E+04</pdfrwt>
<totfact> 0.49988364E+00</totfact>
</mgrwt>
</event>
<event>
 4    1  0.1308745E-008  0.3594852E+04  0.7816531E-02  0.8091672E-01
          2   -1    0    0  501    0  0.00000000000E+00  0.00000000000E+00  0.18554943396E+04  0.18554943396E+04  0.00000000000E+00 0.  1.
         -2   -1    0    0    0  501 -0.00000000000E+00 -0.00000000000E+00 -0.17411753855E+04  0.17411753855E+04  0.00000000000E+00 0. -1.
    2000013    1    1    2    0    0 -0.11207588677E+03  0.15091170926E+04 -0.13850438217E+03  0.17921157517E+04  0.95000000000E+03 0.  0.
   -2000013    1    1    2    0    0  0.11207588677E+03 -0.15091170926E+04  0.25282333630E+03  0.18045539734E+04  0.95000000000E+03 0.  0.
<mgrwt>
<rscale>  0 0.35948525E+04</rscale>
<asrwt>0</asrwt>
<pdfrwt beam="1">  1        2 0.28546067E+00 0.35948525E+04</pdfrwt>
<pdfrwt beam="2">  1       -2 0.26787314E+00 0.35948525E+04</pdfrwt>
<totfact> 0.32731089E-01</totfact>
</mgrwt>
</event>
<event>
 4    1  0.1308745E-008  0.2108503E+04  0.7816531E-02  0.8557507E-01
          2   -1    0    0  501    0  0.00000000000E+00  0.00000000000E+00  0.97857138910E+03  0.97857138910E+03  0.00000000000E+00 0.  1.
         -2   -1    0    0    0  501 -0.00000000000E+00 -0.00000000000E+00 -0.11357843076E+04  0.11357843076E+04  0.00000000000E+00 0. -1.
    2000013    1    1    2    0    0 -0.35486921418E+03 -0.27766139506E+03 -0.15574865731E+03  0.10629137565E+04  0.95000000000E+03 0.  0.
   -2000013    1    1    2    0    0  0.35486921418E+03  0.27766139506E+03 -0.14642611428E+01  0.10514419402E+04  0.95000000000E+03 0.  0.
<mgrwt>
<rscale>  0 0.21085028E+04</rscale>
<asrwt>0</asrwt>
<pdfrwt beam="1">  1        2 0.15054945E+00 0.21085028E+04</pdfrwt>
<pdfrwt beam="2">  1       -2 0.17473605E+00 0.21085028E+04</pdfrwt>
<totfact> 0.47244580E+00</totfact>
</mgrwt>
</event>
<event>
 4    1  0.1308745E-008  0.2384336E+04  0.7816531E-02  0.8445391E-01
          2   -1    0    0  501    0  0.00000000000E+00  0.00000000000E+00  0.10325739201E+04  0.10325739201E+04  0.00000000000E+00 0.  1.
         -2   -1    0    0    0  501 -0.00000000000E+00 -0.00000000000E+00 -0.13764283749E+04  0.13764283749E+04  0.00000000000E+00 0. -1.
    2000013    1    1    2    0    0 -0.27481876330E+03  0.38425262901E+03 -0.72123238817E+03  0.12829074765E+04  0.95000000000E+03 0.  0.
   -2000013    1    1    2    0    0  0.27481876330E+03 -0.38425262901E+03  0.37737793337E+03  0.11260948185E+04  0.95000000000E+03 0.  0.
<mgrwt>
<rscale>  0 0.23843356E+04</rscale>
<asrwt>0</asrwt>
<pdfrwt beam="1">  1        2 0.15885753E+00 0.23843356E+04</pdfrwt>
<pdfrwt beam="2">  1       -2 0.21175821E+00 0.23843356E+04</pdfrwt>
<totfact> 0.24113447E+00</totfact>
</mgrwt>
</event>
<event>
 4    1  0.1308745E-008  0.2101200E+04  0.7816531E-02  0.8560715E-01
          2   -1    0    0  501    0  0.00000000000E+00  0.00000000000E+00  0.18108149983E+04  0.18108149983E+04  0.00000000000E+00 0.  1.
         -2   -1    0    0    0  501 -0.00000000000E+00 -0.00000000000E+00 -0.60953801124E+03  0.60953801124E+03  0.00000000000E+00 0. -1.
    2000013    1    1    2    0    0  0.44502124056E+03 -0.43189881245E+02  0.64298207136E+03  0.12311925984E+04  0.95000000000E+03 0.  0.
   -2000013    1    1    2    0    0 -0.44502124056E+03  0.43189881245E+02  0.55829491568E+03  0.11891604111E+04  0.95000000000E+03 0.  0.
<mgrwt>
<rscale>  0 0.21012002E+04</rscale>
<asrwt>0</asrwt>
<pdfrwt beam="1">  1        2 0.27858692E+00 0.21012002E+04</pdfrwt>
<pdfrwt beam="2">  1       -2 0.93775079E-01 0.21012002E+04</pdfrwt>
<totfact> 0.75334771E+00</totfact>
</mgrwt>
</event>
<event>
 4    1  0.1308745E-008  0.1997742E+04  0.7816531E-02  0.8607677E-01
          1   -1    0    0  501    0  0.00000000000E+00  0.00000000000E+00  0.11444804371E+04  0.11444804371E+04  0.00000000000E+00 0. -1.
         -1   -1    0    0    0  501 -0.00000000000E+00 -0.00000000000E+00 -0.87178698658E+03  0.87178698658E+03  0.00000000000E+00 0.  1.
    2000013    1    1    2    0    0 -0.20848288428E+03 -0.21908840480E+03  0.74308764571E+02  0.99974328437E+03  0.95000000000E+03 0.  0.
   -2000013    1    1    2    0    0  0.20848288428E+03  0.21908840480E+03  0.19838468595E+03  0.10165241393E+04  0.95000000000E+03 0.  0.
<mgrwt>
<rscale>  0 0.19977419E+04</rscale>
<asrwt>0</asrwt>
<pdfrwt beam="1">  1        1 0.17607391E+00 0.19977419E+04</pdfrwt>
<pdfrwt beam="2">  1       -1 0.13412107E+00 0.19977419E+04</pdfrwt>
<totfact> 0.51040724E+00</totfact>
</mgrwt>
</event>
<event>
 4    1  0.1308745E-008  0.2475320E+04  0.7816531E-02  0.8411831E-01
         -2   -1    0    0    0  501 -0.00000000000E+00  0.00000000000E+00  0.11411456160E+04  0.11411456160E+04  0.00000000000E+00 0.  1.
          2   -1    0    0  501    0  0.00000000000E+00 -0.00000000000E+00 -0.13423369604E+04  0.13423369604E+04  0.00000000000E+00 0. -1.
    2000013    1    1    2    0    0 -0.25478169089E+03  0.43777448333E+03  0.51194343663E+03  0.11921184046E+04  0.95000000000E+03 0.  0.
   -2000013    1    1    2    0    0  0.25478169089E+03 -0.43777448333E+03 -0.71313478105E+03  0.12913641718E+04  0.95000000000E+03 0.  0.
<mgrwt>
<rscale>  0 0.24753197E+04</rscale>
<asrwt>0</asrwt>
<pdfrwt beam="2">  1        2 0.20651338E+00 0.24753197E+04</pdfrwt>
<pdfrwt beam="1">  1       -2 0.17556086E+00 0.24753197E+04</pdfrwt>
<totfact> 0.27183374E+00</totfact>
</mgrwt>
</event>
<event>
 4    1  0.1308745E-008  0.2200803E+04  0.7816531E-02  0.8518094E-01
         -2   -1    0    0    0  501 -0.00000000000E+00  0.00000000000E+00  0.73038146569E+03  0.73038146569E+03  0.00000000000E+00 0. -1.
          2   -1    0    0  501    0  0.00000000000E+00 -0.00000000000E+00 -0.16578776715E+04  0.16578776715E+04  0.00000000000E+00 0.  1.
    2000013    1    1    2    0    0 -0.52507420640E+02  0.21756003018E+03 -0.10152630272E+04  0.14083140311E+04  0.95000000000E+03 0.  0.
   -2000013    1    1    2    0    0  0.52507420640E+02 -0.21756003018E+03  0.87766821366E+02  0.97994510606E+03  0.95000000000E+03 0.  0.
<mgrwt>
<rscale>  0 0.22008027E+04</rscale>
<asrwt>0</asrwt>
<pdfrwt beam="2">  1        2 0.25505810E+00 0.22008027E+04</pdfrwt>
<pdfrwt beam="1">  1       -2 0.11236638E+00 0.22008027E+04</pdfrwt>
<totfact> 0.59035817E+00</totfact>
</mgrwt>
</event>
<event>
 4    1  0.1308745E-008  0.2324768E+04  0.7816531E-02  0.8468219E-01
          2   -1    0    0  501    0  0.00000000000E+00  0.00000000000E+00  0.13554919189E+04  0.13554919189E+04  0.00000000000E+00 0.  1.
         -2   -1    0    0    0  501 -0.00000000000E+00 -0.00000000000E+00 -0.99678709313E+03  0.99678709313E+03  0.00000000000E+00 0. -1.
    2000013    1    1    2    0    0  0.53896430511E+03  0.37575378161E+02  0.57994456804E+03  0.12372267913E+04  0.95000000000E+03 0.  0.
   -2000013    1    1    2    0    0 -0.53896430511E+03 -0.37575378161E+02 -0.22123974229E+03  0.11150522207E+04  0.95000000000E+03 0.  0.
<mgrwt>
<rscale>  0 0.23247682E+04</rscale>
<asrwt>0</asrwt>
<pdfrwt beam="1">  1        2 0.20853722E+00 0.23247682E+04</pdfrwt>
<pdfrwt beam="2">  1       -2 0.15335186E+00 0.23247682E+04</pdfrwt>
<totfact> 0.39237869E+00</totfact>
</mgrwt>
</event>
<event>
 4    1  0.1308745E-008  0.2917232E+04  0.7816531E-02  0.8267769E-01
         -2   -1    0    0    0  501 -0.00000000000E+00  0.00000000000E+00  0.20612284530E+04  0.20612284530E+04  0.00000000000E+00 0. -1.
          2   -1    0    0  501    0  0.00000000000E+00 -0.00000000000E+00 -0.10321810720E+04  0.10321810720E+04  0.00000000000E+00 0.  1.
    2000013    1    1    2    0    0  0.10682935911E+04  0.28946829945E+03  0.51003721098E+03  0.15452122993E+04  0.95000000000E+03 0.  0.
   -2000013    1    1    2    0    0 -0.10682935911E+04 -0.28946829945E+03  0.51901016994E+03  0.15481972257E+04  0.95000000000E+03 0.  0.
<mgrwt>
<rscale>  0 0.29172322E+04</rscale>
<asrwt>0</asrwt>
<pdfrwt beam="2">  1        2 0.15879709E+00 0.29172322E+04</pdfrwt>
<pdfrwt beam="1">  1       -2 0.31711207E+00 0.29172322E+04</pdfrwt>
<totfact> 0.51649110E-01</totfact>
</mgrwt>
</event>
<event>
 4    1  0.1308745E-008  0.3452870E+04  0.7816531E-02  0.8125051E-01
          2   -1    0    0  501    0  0.00000000000E+00  0.00000000000E+00  0.28741699839E+04  0.28741699839E+04  0.00000000000E+00 0.  1.
         -2   -1    0    0    0  501 -0.00000000000E+00 -0.00000000000E+00 -0.10370220021E+04  0.10370220021E+04  0.00000000000E+00 0. -1.
    2000013    1    1    2    0    0  0.94769009374E+03 -0.97067301807E+03  0.36625031905E+03  0.16961609352E+04  0.95000000000E+03 0.  0.
   -2000013    1    1    2    0    0 -0.94769009374E+03  0.97067301807E+03  0.14708976628E+04  0.22150310508E+04  0.95000000000E+03 0.  0.
<mgrwt>
<rscale>  0 0.34528698E+04</rscale>
<asrwt>0</asrwt>
<pdfrwt beam="1">  1        2 0.44217999E+00 0.34528698E+04</pdfrwt>
<pdfrwt beam="2">  1       -2 0.15954185E+00 0.34528698E+04</pdfrwt>
<totfact> 0.43614538E-01</totfact>
</mgrwt>
</event>
<event>
 4    1  0.1308745E-008  0.4126378E+04  0.7816531E-02  0.7979526E-01
          2   -1    0    0  501    0  0.00000000000E+00  0.00000000000E+00  0.21641782651E+04  0.21641782651E+04  0.00000000000E+00 0.  1.
         -2   -1    0    0    0  501 -0.00000000000E+00 -0.00000000000E+00 -0.19669118980E+04  0.19669118980E+04  0.00000000000E+00 0. -1.
    2000013    1    1    2    0    0 -0.17210336578E+04  0.40057635127E+03 -0.38340368795E+03  0.20425270261E+04  0.95000000000E+03 0.  0.
   -2000013    1    1    2    0    0  0.17210336578E+04 -0.40057635127E+03  0.58067005501E+03  0.20885631370E+04  0.95000000000E+03 0.  0.
<mgrwt>
<rscale>  0 0.41263776E+04</rscale>
<asrwt>0</asrwt>
<pdfrwt beam="1">  1        2 0.33295050E+00 0.41263776E+04</pdfrwt>
<pdfrwt beam="2">  1       -2 0.30260183E+00 0.41263776E+04</pdfrwt>
<totfact> 0.12941260E-01</totfact>
</mgrwt>
</event>
<event>
 4    1  0.1308745E-008  0.2501393E+04  0.7816531E-02  0.8402489E-01
         -2   -1    0    0    0  501 -0.00000000000E+00  0.00000000000E+00  0.17981353881E+04  0.17981353881E+04  0.00000000000E+00 0. -1.
          2   -1    0    0  501    0  0.00000000000E+00 -0.00000000000E+00 -0.86992437799E+03  0.86992437799E+03  0.00000000000E+00 0.  1.
    2000013    1    1    2    0    0  0.24186303912E+03  0.76957282305E+03  0.57598345186E+03  0.13729519280E+04  0.95000000000E+03 0.  0.
   -2000013    1    1    2    0    0 -0.24186303912E+03 -0.76957282305E+03  0.35222755829E+03  0.12951078382E+04  0.95000000000E+03 0.  0.
<mgrwt>
<rscale>  0 0.25013931E+04</rscale>
<asrwt>0</asrwt>
<pdfrwt beam="2">  1        2 0.13383452E+00 0.25013931E+04</pdfrwt>
<pdfrwt beam="1">  1       -2 0.27663621E+00 0.25013931E+04</pdfrwt>
<totfact> 0.12104398E+00</totfact>
</mgrwt>
</event>
<event>
 4    1  0.1308745E-008  0.2597632E+04  0.7816531E-02  0.8369006E-01
          2   -1    0    0  501    0  0.00000000000E+00  0.00000000000E+00  0.20673390595E+04  0.20673390595E+04  0.00000000000E+00 0.  1.
         -2   -1    0    0    0  501 -0.00000000000E+00 -0.00000000000E+00 -0.81598773555E+03  0.81598773555E+03  0.00000000000E+00 0. -1.
    2000013    1    1    2    0    0  0.63349408160E+03  0.57282866378E+03  0.36541871595E+03  0.13287130117E+04  0.95000000000E+03 0.  0.
   -2000013    1    1    2    0    0 -0.63349408160E+03 -0.57282866378E+03  0.88593260797E+03  0.15546137833E+04  0.95000000000E+03 0.  0.
<mgrwt>
<rscale>  0 0.25976322E+04</rscale>
<asrwt>0</asrwt>
<pdfrwt beam="1">  1        2 0.31805216E+00 0.25976322E+04</pdfrwt>
<pdfrwt beam="2">  1       -2 0.12553658E+00 0.25976322E+04</pdfrwt>
<totfact> 0.25717193E+00</totfact>
</mgrwt>
</event>
<event>
 4    1  0.1308745E-008  0.2542954E+04  0.7816531E-02  0.8387841E-01
         -2   -1    0    0    0  501 -0.00000000000E+00  0.00000000000E+00  0.10921664913E+04  0.10921664913E+04  0.00000000000E+00 0. -1.
          2   -1    0    0  501    0  0.00000000000E+00 -0.00000000000E+00 -0.14802263311E+04  0.14802263311E+04  0.00000000000E+00 0.  1.
    2000013    1    1    2    0    0 -0.63160914006E+03  0.54408837321E+03 -0.33416646195E+03  0.13073367921E+04  0.95000000000E+03 0.  0.
   -2000013    1    1    2    0    0  0.63160914006E+03 -0.54408837321E+03 -0.53893377896E+02  0.12650560303E+04  0.95000000000E+03 0.  0.
<mgrwt>
<rscale>  0 0.25429539E+04</rscale>
<asrwt>0</asrwt>
<pdfrwt beam="2">  1        2 0.22772713E+00 0.25429539E+04</pdfrwt>
<pdfrwt beam="1">  1       -2 0.16802561E+00 0.25429539E+04</pdfrwt>
<totfact> 0.25490539E+00</totfact>
</mgrwt>
</event>
<event>
 4    1  0.1308745E-008  0.2064357E+04  0.7816531E-02  0.8577109E-01
         -2   -1    0    0    0  501 -0.00000000000E+00  0.00000000000E+00  0.36364283869E+03  0.36364283869E+03  0.00000000000E+00 0. -1.
          2   -1    0    0  501    0  0.00000000000E+00 -0.00000000000E+00 -0.29297778977E+04  0.29297778977E+04  0.00000000000E+00 0.  1.
    2000013    1    1    2    0    0 -0.38492746020E+03 -0.86044213762E+02 -0.14195628449E+04  0.17530634407E+04  0.95000000000E+03 0.  0.
   -2000013    1    1    2    0    0  0.38492746020E+03  0.86044213762E+02 -0.11465722141E+04  0.15403572957E+04  0.95000000000E+03 0.  0.
<mgrwt>
<rscale>  0 0.20643573E+04</rscale>
<asrwt>0</asrwt>
<pdfrwt beam="2">  1        2 0.45073506E+00 0.20643573E+04</pdfrwt>
<pdfrwt beam="1">  1       -2 0.55945052E-01 0.20643573E+04</pdfrwt>
<totfact> 0.53494338E+00</totfact>
</mgrwt>
</event>
<event>
 4    1  0.1308745E-008  0.2138550E+04  0.7816531E-02  0.8544449E-01
         -2   -1    0    0    0  501 -0.00000000000E+00  0.00000000000E+00  0.76411722520E+03  0.76411722520E+03  0.00000000000E+00 0. -1.
          2   -1    0    0  501    0  0.00000000000E+00 -0.00000000000E+00 -0.14963012214E+04  0.14963012214E+04  0.00000000000E+00 0.  1.
    2000013    1    1    2    0    0  0.48576813576E+03  0.34298678565E+02 -0.43040729896E+03  0.11510419298E+04  0.95000000000E+03 0.  0.
   -2000013    1    1    2    0    0 -0.48576813576E+03 -0.34298678565E+02 -0.30177669721E+03  0.11093765168E+04  0.95000000000E+03 0.  0.
<mgrwt>
<rscale>  0 0.21385505E+04</rscale>
<asrwt>0</asrwt>
<pdfrwt beam="2">  1        2 0.23020019E+00 0.21385505E+04</pdfrwt>
<pdfrwt beam="1">  1       -2 0.11755650E+00 0.21385505E+04</pdfrwt>
<totfact> 0.65480546E+00</totfact>
</mgrwt>
</event>
<event>
 4    1  0.1308745E-008  0.3422865E+04  0.7816531E-02  0.8132317E-01
          1   -1    0    0  501    0  0.00000000000E+00  0.00000000000E+00  0.14522747287E+04  0.14522747287E+04  0.00000000000E+00 0.  1.
         -1   -1    0    0    0  501 -0.00000000000E+00 -0.00000000000E+00 -0.20168369067E+04  0.20168369067E+04  0.00000000000E+00 0. -1.
    2000013    1    1    2    0    0 -0.11062690883E+04  0.87851807159E+03 -0.10419137714E+03  0.17055735519E+04  0.95000000000E+03 0.  0.
   -2000013    1    1    2    0    0  0.11062690883E+04 -0.87851807159E+03 -0.46037080081E+03  0.17635380835E+04  0.95000000000E+03 0.  0.
<mgrwt>
<rscale>  0 0.34228650E+04</rscale>
<asrwt>0</asrwt>
<pdfrwt beam="1">  1        1 0.22342688E+00 0.34228650E+04</pdfrwt>
<pdfrwt beam="2">  1       -1 0.31028260E+00 0.34228650E+04</pdfrwt>
<totfact> 0.16415980E-01</totfact>
</mgrwt>
</event>
<event>
 4    1  0.1308745E-008  0.2156127E+04  0.7816531E-02  0.8536914E-01
         -1   -1    0    0    0  501 -0.00000000000E+00  0.00000000000E+00  0.15579726812E+04  0.15579726812E+04  0.00000000000E+00 0. -1.
          1   -1    0    0  501    0  0.00000000000E+00 -0.00000000000E+00 -0.74598274719E+03  0.74598274719E+03  0.00000000000E+00 0.  1.
    2000013    1    1    2    0    0 -0.16056934635E+03 -0.47746812887E+03  0.48850575716E+03  0.11810572399E+04  0.95000000000E+03 0.  0.
   -2000013    1    1    2    0    0  0.16056934635E+03  0.47746812887E+03  0.32348417683E+03  0.11228981885E+04  0.95000000000E+03 0.  0.
<mgrwt>
<rscale>  0 0.21561268E+04</rscale>
<asrwt>0</asrwt>
<pdfrwt beam="2">  1        1 0.11476658E+00 0.21561268E+04</pdfrwt>
<pdfrwt beam="1">  1       -1 0.23968810E+00 0.21561268E+04</pdfrwt>
<totfact> 0.18411814E+00</totfact>
</mgrwt>
</event>
<event>
 4    1  0.1308745E-008  0.2550623E+04  0.7816531E-02  0.8385169E-01
         -1   -1    0    0    0  501 -0.00000000000E+00  0.00000000000E+00  0.55804834458E+03  0.55804834458E+03  0.00000000000E+00 0. -1.
          1   -1    0    0  501    0  0.00000000000E+00 -0.00000000000E+00 -0.29144783470E+04  0.29144783470E+04  0.00000000000E+00 0.  1.
    2000013    1    1    2    0    0  0.45965353424E+03 -0.50595622256E+03 -0.18679259967E+04  0.22042959419E+04  0.95000000000E+03 0.  0.
   -2000013    1    1    2    0    0 -0.45965353424E+03  0.50595622256E+03 -0.48850400576E+03  0.12682307496E+04  0.95000000000E+03 0.  0.
<mgrwt>
<rscale>  0 0.25506233E+04</rscale>
<asrwt>0</asrwt>
<pdfrwt beam="2">  1        1 0.44838128E+00 0.25506233E+04</pdfrwt>
<pdfrwt beam="1">  1       -1 0.85853592E-01 0.25506233E+04</pdfrwt>
<totfact> 0.81705643E-01</totfact>
</mgrwt>
</event>
<event>
 4    1  0.1308745E-008  0.2982609E+04  0.7816531E-02  0.8248714E-01
         -2   -1    0    0    0  501 -0.00000000000E+00  0.00000000000E+00  0.64979959115E+03  0.64979959115E+03  0.00000000000E+00 0. -1.
          2   -1    0    0  501    0  0.00000000000E+00 -0.00000000000E+00 -0.34225780340E+04  0.34225780340E+04  0.00000000000E+00 0.  1.
    2000013    1    1    2    0    0  0.76796524455E+03  0.66190347501E+03 -0.64655931934E+03  0.15324574319E+04  0.95000000000E+03 0.  0.
   -2000013    1    1    2    0    0 -0.76796524455E+03 -0.66190347501E+03 -0.21262191235E+04  0.25399201933E+04  0.95000000000E+03 0.  0.
<mgrwt>
<rscale>  0 0.29826095E+04</rscale>
<asrwt>0</asrwt>
<pdfrwt beam="2">  1        2 0.52655046E+00 0.29826095E+04</pdfrwt>
<pdfrwt beam="1">  1       -2 0.99969170E-01 0.29826095E+04</pdfrwt>
<totfact> 0.65145939E-01</totfact>
</mgrwt>
</event>
<event>
 4    1  0.1308745E-008  0.2656901E+04  0.7816531E-02  0.8349126E-01
          2   -1    0    0  501    0  0.00000000000E+00  0.00000000000E+00  0.12872062146E+04  0.12872062146E+04  0.00000000000E+00 0.  1.
         -2   -1    0    0    0  501 -0.00000000000E+00 -0.00000000000E+00 -0.13710167290E+04  0.13710167290E+04  0.00000000000E+00 0. -1.
    2000013    1    1    2    0    0  0.36853380953E+02  0.90383056100E+03 -0.25180331545E+03  0.13357293006E+04  0.95000000000E+03 0.  0.
   -2000013    1    1    2    0    0 -0.36853380953E+02 -0.90383056100E+03  0.16799280110E+03  0.13224936430E+04  0.95000000000E+03 0.  0.
<mgrwt>
<rscale>  0 0.26569014E+04</rscale>
<asrwt>0</asrwt>
<pdfrwt beam="1">  1        2 0.19803173E+00 0.26569014E+04</pdfrwt>
<pdfrwt beam="2">  1       -2 0.21092565E+00 0.26569014E+04</pdfrwt>
<totfact> 0.16725067E+00</totfact>
</mgrwt>
</event>
<event>
 4    1  0.1308745E-008  0.2394004E+04  0.7816531E-02  0.8441752E-01
          2   -1    0    0  501    0  0.00000000000E+00  0.00000000000E+00  0.25762491432E+04  0.25762491432E+04  0.00000000000E+00 0.  1.
         -2   -1    0    0    0  501 -0.00000000000E+00 -0.00000000000E+00 -0.55616265379E+03  0.55616265379E+03  0.00000000000E+00 0. -1.
    2000013    1    1    2    0    0 -0.54877480947E+03  0.47373140250E+03  0.11001104180E+04  0.16242900495E+04  0.95000000000E+03 0.  0.
   -2000013    1    1    2    0    0  0.54877480947E+03 -0.47373140250E+03  0.91997607142E+03  0.15081217475E+04  0.95000000000E+03 0.  0.
<mgrwt>
<rscale>  0 0.23940038E+04</rscale>
<asrwt>0</asrwt>
<pdfrwt beam="1">  1        2 0.39634601E+00 0.23940038E+04</pdfrwt>
<pdfrwt beam="2">  1       -2 0.85563487E-01 0.23940038E+04</pdfrwt>
<totfact> 0.33553288E+00</totfact>
</mgrwt>
</event>
<event>
 4    1  0.1308745E-008  0.2758806E+04  0.7816531E-02  0.8316173E-01
          2   -1    0    0  501    0  0.00000000000E+00  0.00000000000E+00  0.18941656015E+04  0.18941656015E+04  0.00000000000E+00 0.  1.
         -2   -1    0    0    0  501 -0.00000000000E+00 -0.00000000000E+00 -0.10045330551E+04  0.10045330551E+04  0.00000000000E+00 0. -1.
    2000013    1    1    2    0    0  0.65701897342E+03  0.75403493566E+03  0.44802789585E+03  0.14503349996E+04  0.95000000000E+03 0.  0.
   -2000013    1    1    2    0    0 -0.65701897342E+03 -0.75403493566E+03  0.44160465053E+03  0.14483636570E+04  0.95000000000E+03 0.  0.
<mgrwt>
<rscale>  0 0.27588055E+04</rscale>
<asrwt>0</asrwt>
<pdfrwt beam="1">  1        2 0.29141009E+00 0.27588055E+04</pdfrwt>
<pdfrwt beam="2">  1       -2 0.15454355E+00 0.27588055E+04</pdfrwt>
<totfact> 0.18484315E+00</totfact>
</mgrwt>
</event>
<event>
 4    1  0.1308745E-008  0.4562387E+04  0.7816531E-02  0.7899805E-01
          2   -1    0    0  501    0  0.00000000000E+00  0.00000000000E+00  0.20401022480E+04  0.20401022480E+04  0.00000000000E+00 0.  1.
         -2   -1    0    0    0  501 -0.00000000000E+00 -0.00000000000E+00 -0.25507755144E+04  0.25507755144E+04  0.00000000000E+00 0. -1.
    2000013    1    1    2    0    0  0.23762407417E+03  0.16337244430E+04  0.10078200984E+04  0.21549297221E+04  0.95000000000E+03 0.  0.
   -2000013    1    1    2    0    0 -0.23762407417E+03 -0.16337244430E+04 -0.15184933648E+04  0.24359480403E+04  0.95000000000E+03 0.  0.
<mgrwt>
<rscale>  0 0.45623866E+04</rscale>
<asrwt>0</asrwt>
<pdfrwt beam="1">  1        2 0.31386189E+00 0.45623866E+04</pdfrwt>
<pdfrwt beam="2">  1       -2 0.39242700E+00 0.45623866E+04</pdfrwt>
<totfact> 0.39798052E-02</totfact>
</mgrwt>
</event>
<event>
 4    1  0.1308745E-008  0.4216366E+04  0.7816531E-02  0.7962266E-01
         -2   -1    0    0    0  501 -0.00000000000E+00  0.00000000000E+00  0.23273900891E+04  0.23273900891E+04  0.00000000000E+00 0. -1.
          2   -1    0    0  501    0  0.00000000000E+00 -0.00000000000E+00 -0.19096216954E+04  0.19096216954E+04  0.00000000000E+00 0.  1.
    2000013    1    1    2    0    0  0.15395085053E+04  0.10634322812E+04  0.55075225207E+01  0.20984529987E+04  0.95000000000E+03 0.  0.
   -2000013    1    1    2    0    0 -0.15395085053E+04 -0.10634322812E+04  0.41226087122E+03  0.21385587859E+04  0.95000000000E+03 0.  0.
<mgrwt>
<rscale>  0 0.42163655E+04</rscale>
<asrwt>0</asrwt>
<pdfrwt beam="2">  1        2 0.29378795E+00 0.42163655E+04</pdfrwt>
<pdfrwt beam="1">  1       -2 0.35806001E+00 0.42163655E+04</pdfrwt>
<totfact> 0.80430971E-02</totfact>
</mgrwt>
</event>
<event>
 4    1  0.1308745E-008  0.2307275E+04  0.7816531E-02  0.8475058E-01
         -2   -1    0    0    0  501 -0.00000000000E+00  0.00000000000E+00  0.52444185282E+03  0.52444185282E+03  0.00000000000E+00 0. -1.
          2   -1    0    0  501    0  0.00000000000E+00 -0.00000000000E+00 -0.25377058095E+04  0.25377058095E+04  0.00000000000E+00 0.  1.
    2000013    1    1    2    0    0  0.30726766731E+03  0.57755446368E+03 -0.98020298693E+03  0.15136976163E+04  0.95000000000E+03 0.  0.
   -2000013    1    1    2    0    0 -0.30726766731E+03 -0.57755446368E+03 -0.10330609697E+04  0.15484500460E+04  0.95000000000E+03 0.  0.
<mgrwt>
<rscale>  0 0.23072747E+04</rscale>
<asrwt>0</asrwt>
<pdfrwt beam="2">  1        2 0.39041628E+00 0.23072747E+04</pdfrwt>
<pdfrwt beam="1">  1       -2 0.80683361E-01 0.23072747E+04</pdfrwt>
<totfact> 0.40666346E+00</totfact>
</mgrwt>
</event>
<event>
 4    1  0.1308745E-008  0.2975623E+04  0.7816531E-02  0.8250726E-01
         -2   -1    0    0    0  501 -0.00000000000E+00  0.00000000000E+00  0.79626298589E+03  0.79626298589E+03  0.00000000000E+00 0. -1.
          2   -1    0    0  501    0  0.00000000000E+00 -0.00000000000E+00 -0.27799653326E+04  0.27799653326E+04  0.00000000000E+00 0.  1.
    2000013    1    1    2    0    0  0.19533389215E+03  0.10656373822E+04 -0.14372549866E+04  0.20351757311E+04  0.95000000000E+03 0.  0.
   -2000013    1    1    2    0    0 -0.19533389215E+03 -0.10656373822E+04 -0.54644736008E+03  0.15410525874E+04  0.95000000000E+03 0.  0.
<mgrwt>
<rscale>  0 0.29756233E+04</rscale>
<asrwt>0</asrwt>
<pdfrwt beam="2">  1        2 0.42768698E+00 0.29756233E+04</pdfrwt>
<pdfrwt beam="1">  1       -2 0.12250200E+00 0.29756233E+04</pdfrwt>
<totfact> 0.10282248E+00</totfact>
</mgrwt>
</event>
<event>
 4    1  0.1308745E-008  0.2374349E+04  0.7816531E-02  0.8449170E-01
          2   -1    0    0  501    0  0.00000000000E+00  0.00000000000E+00  0.16489112112E+04  0.16489112112E+04  0.00000000000E+00 0.  1.
         -2   -1    0    0    0  501 -0.00000000000E+00 -0.00000000000E+00 -0.85473596761E+03  0.85473596761E+03  0.00000000000E+00 0. -1.
    2000013    1    1    2    0    0  0.35693820647E+03  0.75370637691E+02  0.10417718604E+04  0.14563221571E+04  0.95000000000E+03 0.  0.
   -2000013    1    1    2    0    0 -0.35693820647E+03 -0.75370637691E+02 -0.24759661684E+03  0.10473250216E+04  0.95000000000E+03 0.  0.
<mgrwt>
<rscale>  0 0.23743494E+04</rscale>
<asrwt>0</asrwt>
<pdfrwt beam="1">  1        2 0.25367865E+00 0.23743494E+04</pdfrwt>
<pdfrwt beam="2">  1       -2 0.13149784E+00 0.23743494E+04</pdfrwt>
<totfact> 0.39812689E+00</totfact>
</mgrwt>
</event>
<event>
 4    1  0.1308745E-008  0.2755062E+04  0.7816531E-02  0.8317357E-01
         -2   -1    0    0    0  501 -0.00000000000E+00  0.00000000000E+00  0.58049571561E+03  0.58049571561E+03  0.00000000000E+00 0. -1.
          2   -1    0    0  501    0  0.00000000000E+00 -0.00000000000E+00 -0.32689157664E+04  0.32689157664E+04  0.00000000000E+00 0.  1.
    2000013    1    1    2    0    0 -0.11037788628E+03 -0.97853944302E+03 -0.15667528496E+04  0.20801291332E+04  0.95000000000E+03 0.  0.
   -2000013    1    1    2    0    0  0.11037788628E+03  0.97853944302E+03 -0.11216672012E+04  0.17692823487E+04  0.95000000000E+03 0.  0.
<mgrwt>
<rscale>  0 0.27550620E+04</rscale>
<asrwt>0</asrwt>
<pdfrwt beam="2">  1        2 0.50291011E+00 0.27550620E+04</pdfrwt>
<pdfrwt beam="1">  1       -2 0.89307034E-01 0.27550620E+04</pdfrwt>
<totfact> 0.10973416E+00</totfact>
</mgrwt>
</event>
<event>
 4    1  0.1308745E-008  0.3003822E+04  0.7816531E-02  0.8242640E-01
          2   -1    0    0  501    0  0.00000000000E+00  0.00000000000E+00  0.45678393573E+04  0.45678393573E+04  0.00000000000E+00 0.  1.
         -2   -1    0    0    0  501 -0.00000000000E+00 -0.00000000000E+00 -0.49383022788E+03  0.49383022788E+03  0.00000000000E+00 0. -1.
    2000013    1    1    2    0    0 -0.79744201492E+03 -0.82585081789E+02  0.61663114975E+03  0.13876123514E+04  0.95000000000E+03 0.  0.
   -2000013    1    1    2    0    0  0.79744201492E+03  0.82585081789E+02  0.34573779797E+04  0.36740572338E+04  0.95000000000E+03 0.  0.
<mgrwt>
<rscale>  0 0.30038223E+04</rscale>
<asrwt>0</asrwt>
<pdfrwt beam="1">  1        2 0.70274449E+00 0.30038223E+04</pdfrwt>
<pdfrwt beam="2">  1       -2 0.75973884E-01 0.30038223E+04</pdfrwt>
<totfact> 0.13979813E-01</totfact>
</mgrwt>
</event>
<event>
 4    1  0.1308745E-008  0.2005850E+04  0.7816531E-02  0.8603890E-01
          2   -1    0    0  501    0  0.00000000000E+00  0.00000000000E+00  0.14536927317E+04  0.14536927317E+04  0.00000000000E+00 0.  1.
         -2   -1    0    0    0  501 -0.00000000000E+00 -0.00000000000E+00 -0.69193362360E+03  0.69193362360E+03  0.00000000000E+00 0. -1.
    2000013    1    1    2    0    0  0.15830122174E+03  0.22974574615E+03  0.21000945168E+03  0.10121493736E+04  0.95000000000E+03 0.  0.
   -2000013    1    1    2    0    0 -0.15830122174E+03 -0.22974574615E+03  0.55174965640E+03  0.11334769817E+04  0.95000000000E+03 0.  0.
<mgrwt>
<rscale>  0 0.20058503E+04</rscale>
<asrwt>0</asrwt>
<pdfrwt beam="1">  1        2 0.22364503E+00 0.20058503E+04</pdfrwt>
<pdfrwt beam="2">  1       -2 0.10645133E+00 0.20058503E+04</pdfrwt>
<totfact> 0.89071166E+00</totfact>
</mgrwt>
</event>
<event>
 4    1  0.1308745E-008  0.2389164E+04  0.7816531E-02  0.8443572E-01
          2   -1    0    0  501    0  0.00000000000E+00  0.00000000000E+00  0.22810980176E+04  0.22810980176E+04  0.00000000000E+00 0.  1.
         -2   -1    0    0    0  501 -0.00000000000E+00 -0.00000000000E+00 -0.62558736833E+03  0.62558736833E+03  0.00000000000E+00 0. -1.
    2000013    1    1    2    0    0  0.60870893812E+03 -0.33470048918E+03  0.57849794237E+03  0.13113774659E+04  0.95000000000E+03 0.  0.
   -2000013    1    1    2    0    0 -0.60870893812E+03  0.33470048918E+03  0.10770127069E+04  0.15953079200E+04  0.95000000000E+03 0.  0.
<mgrwt>
<rscale>  0 0.23891640E+04</rscale>
<asrwt>0</asrwt>
<pdfrwt beam="1">  1        2 0.35093815E+00 0.23891640E+04</pdfrwt>
<pdfrwt beam="2">  1       -2 0.96244212E-01 0.23891640E+04</pdfrwt>
<totfact> 0.37804314E+00</totfact>
</mgrwt>
</event>
<event>
 4    1  0.1308745E-008  0.3336489E+04  0.7816531E-02  0.8153672E-01
          2   -1    0    0  501    0  0.00000000000E+00  0.00000000000E+00  0.29725932993E+04  0.29725932993E+04  0.00000000000E+00 0.  1.
         -2   -1    0    0    0  501 -0.00000000000E+00 -0.00000000000E+00 -0.93623318795E+03  0.93623318795E+03  0.00000000000E+00 0. -1.
    2000013    1    1    2    0    0 -0.85269499327E+03 -0.25887500233E+03 -0.20294067477E+03  0.13182526070E+04  0.95000000000E+03 0.  0.
   -2000013    1    1    2    0    0  0.85269499327E+03  0.25887500233E+03  0.22393007861E+04  0.25905738802E+04  0.95000000000E+03 0.  0.
<mgrwt>
<rscale>  0 0.33364895E+04</rscale>
<asrwt>0</asrwt>
<pdfrwt beam="1">  1        2 0.45732204E+00 0.33364895E+04</pdfrwt>
<pdfrwt beam="2">  1       -2 0.14403588E+00 0.33364895E+04</pdfrwt>
<totfact> 0.50262327E-01</totfact>
</mgrwt>
</event>
<event>
 4    1  0.1308745E-008  0.3087776E+04  0.7816531E-02  0.8219101E-01
         -2   -1    0    0    0  501 -0.00000000000E+00  0.00000000000E+00  0.95202599633E+03  0.95202599633E+03  0.00000000000E+00 0. -1.
          2   -1    0    0  501    0  0.00000000000E+00 -0.00000000000E+00 -0.25037029280E+04  0.25037029280E+04  0.00000000000E+00 0.  1.
    2000013    1    1    2    0    0  0.10160641862E+04  0.66585153703E+03 -0.85766441854E+03  0.17646056088E+04  0.95000000000E+03 0.  0.
   -2000013    1    1    2    0    0 -0.10160641862E+04 -0.66585153703E+03 -0.69401251310E+03  0.16911233155E+04  0.95000000000E+03 0.  0.
<mgrwt>
<rscale>  0 0.30877761E+04</rscale>
<asrwt>0</asrwt>
<pdfrwt beam="2">  1        2 0.38518506E+00 0.30877761E+04</pdfrwt>
<pdfrwt beam="1">  1       -2 0.14646554E+00 0.30877761E+04</pdfrwt>
<totfact> 0.93925937E-01</totfact>
</mgrwt>
</event>
<event>
 4    1  0.1308745E-008  0.2112506E+04  0.7816531E-02  0.8555754E-01
          2   -1    0    0  501    0  0.00000000000E+00  0.00000000000E+00  0.54610674202E+03  0.54610674202E+03  0.00000000000E+00 0.  1.
         -2   -1    0    0    0  501 -0.00000000000E+00 -0.00000000000E+00 -0.20429528355E+04  0.20429528355E+04  0.00000000000E+00 0. -1.
    2000013    1    1    2    0    0 -0.39447262501E+03  0.97439787123E+02 -0.10171234446E+04  0.14498769829E+04  0.95000000000E+03 0.  0.
   -2000013    1    1    2    0    0  0.39447262501E+03 -0.97439787123E+02 -0.47972264887E+03  0.11391825946E+04  0.95000000000E+03 0.  0.
<mgrwt>
<rscale>  0 0.21125059E+04</rscale>
<asrwt>0</asrwt>
<pdfrwt beam="1">  1        2 0.84016422E-01 0.21125059E+04</pdfrwt>
<pdfrwt beam="2">  1       -2 0.31430043E+00 0.21125059E+04</pdfrwt>
<totfact> 0.13284254E+00</totfact>
</mgrwt>
</event>
<event>
 4    1  0.1308745E-008  0.1992522E+04  0.7816531E-02  0.8610125E-01
          2   -1    0    0  501    0  0.00000000000E+00  0.00000000000E+00  0.45414313488E+04  0.45414313488E+04  0.00000000000E+00 0.  1.
         -2   -1    0    0    0  501 -0.00000000000E+00 -0.00000000000E+00 -0.21855144226E+03  0.21855144226E+03  0.00000000000E+00 0. -1.
    2000013    1    1    2    0    0 -0.27174903338E+03  0.95034345118E+02  0.19593349780E+04  0.21964454511E+04  0.95000000000E+03 0.  0.
   -2000013    1    1    2    0    0  0.27174903338E+03 -0.95034345118E+02  0.23635449286E+04  0.25635373400E+04  0.95000000000E+03 0.  0.
<mgrwt>
<rscale>  0 0.19925224E+04</rscale>
<asrwt>0</asrwt>
<pdfrwt beam="1">  1        2 0.69868168E+00 0.19925224E+04</pdfrwt>
<pdfrwt beam="2">  1       -2 0.33623302E-01 0.19925224E+04</pdfrwt>
<totfact> 0.87630145E-01</totfact>
</mgrwt>
</event>
<event>
 4    1  0.1308745E-008  0.2207286E+04  0.7816531E-02  0.8515402E-01
          2   -1    0    0  501    0  0.00000000000E+00  0.00000000000E+00  0.14381048088E+04  0.14381048088E+04  0.00000000000E+00 0.  1.
         -2   -1    0    0    0  501 -0.00000000000E+00 -0.00000000000E+00 -0.84696710117E+03  0.84696710117E+03  0.00000000000E+00 0. -1.
    2000013    1    1    2    0    0  0.16548156052E+03  0.53303287061E+03  0.22993693634E+03  0.11255572765E+04  0.95000000000E+03 0.  0.
   -2000013    1    1    2    0    0 -0.16548156052E+03 -0.53303287061E+03  0.36120077130E+03  0.11595146335E+04  0.95000000000E+03 0.  0.
<mgrwt>
<rscale>  0 0.22072856E+04</rscale>
<asrwt>0</asrwt>
<pdfrwt beam="1">  1        2 0.22124689E+00 0.22072856E+04</pdfrwt>
<pdfrwt beam="2">  1       -2 0.13030263E+00 0.22072856E+04</pdfrwt>
<totfact> 0.54291386E+00</totfact>
</mgrwt>
</event>
<event>
 4    1  0.1308745E-008  0.2270349E+04  0.7816531E-02  0.8489705E-01
          2   -1    0    0  501    0  0.00000000000E+00  0.00000000000E+00  0.31600653571E+04  0.31600653571E+04  0.00000000000E+00 0.  1.
         -2   -1    0    0    0  501 -0.00000000000E+00 -0.00000000000E+00 -0.40778315259E+03  0.40778315259E+03  0.00000000000E+00 0. -1.
    2000013    1    1    2    0    0 -0.51653011528E+03 -0.98153345768E+02  0.18965986700E+04  0.21854116212E+04  0.95000000000E+03 0.  0.
   -2000013    1    1    2    0    0  0.51653011528E+03  0.98153345768E+02  0.85568353453E+03  0.13824368884E+04  0.95000000000E+03 0.  0.
<mgrwt>
<rscale>  0 0.22703492E+04</rscale>
<asrwt>0</asrwt>
<pdfrwt beam="1">  1        2 0.48616388E+00 0.22703492E+04</pdfrwt>
<pdfrwt beam="2">  1       -2 0.62735872E-01 0.22703492E+04</pdfrwt>
<totfact> 0.29514330E+00</totfact>
</mgrwt>
</event>
<event>
 4    1  0.1308745E-008  0.2245001E+04  0.7816531E-02  0.8499928E-01
         -2   -1    0    0    0  501 -0.00000000000E+00  0.00000000000E+00  0.75688220688E+03  0.75688220688E+03  0.00000000000E+00 0. -1.
          2   -1    0    0  501    0  0.00000000000E+00 -0.00000000000E+00 -0.16647332327E+04  0.16647332327E+04  0.00000000000E+00 0.  1.
    2000013    1    1    2    0    0  0.46849254641E+03 -0.29172574921E+03 -0.70206137418E+03  0.13038325628E+04  0.95000000000E+03 0.  0.
   -2000013    1    1    2    0    0 -0.46849254641E+03  0.29172574921E+03 -0.20578965163E+03  0.11177828767E+04  0.95000000000E+03 0.  0.
<mgrwt>
<rscale>  0 0.22450006E+04</rscale>
<asrwt>0</asrwt>
<pdfrwt beam="2">  1        2 0.25611281E+00 0.22450006E+04</pdfrwt>
<pdfrwt beam="1">  1       -2 0.11644342E+00 0.22450006E+04</pdfrwt>
<totfact> 0.53448824E+00</totfact>
</mgrwt>
</event>
<event>
 4    1  0.1308745E-008  0.2225669E+04  0.7816531E-02  0.8507820E-01
         -2   -1    0    0    0  501 -0.00000000000E+00  0.00000000000E+00  0.75244491425E+03  0.75244491425E+03  0.00000000000E+00 0. -1.
          2   -1    0    0  501    0  0.00000000000E+00 -0.00000000000E+00 -0.16458353349E+04  0.16458353349E+04  0.00000000000E+00 0.  1.
    2000013    1    1    2    0    0  0.30111978873E+03 -0.35303805363E+03 -0.82088989708E+03  0.13385324866E+04  0.95000000000E+03 0.  0.
   -2000013    1    1    2    0    0 -0.30111978873E+03  0.35303805363E+03 -0.72500523619E+02  0.10597477626E+04  0.95000000000E+03 0.  0.
<mgrwt>
<rscale>  0 0.22256688E+04</rscale>
<asrwt>0</asrwt>
<pdfrwt beam="2">  1        2 0.25320543E+00 0.22256688E+04</pdfrwt>
<pdfrwt beam="1">  1       -2 0.11576076E+00 0.22256688E+04</pdfrwt>
<totfact> 0.55644012E+00</totfact>
</mgrwt>
</event>
<event>
 4    1  0.1308745E-008  0.2075627E+04  0.7816531E-02  0.8572056E-01
          1   -1    0    0  501    0  0.00000000000E+00  0.00000000000E+00  0.88134142456E+03  0.88134142456E+03  0.00000000000E+00 0.  1.
         -1   -1    0    0    0  501 -0.00000000000E+00 -0.00000000000E+00 -0.12220654420E+04  0.12220654420E+04  0.00000000000E+00 0. -1.
    2000013    1    1    2    0    0 -0.34377324501E+03  0.98281378559E+02 -0.38939742523E+03  0.10871842660E+04  0.95000000000E+03 0.  0.
   -2000013    1    1    2    0    0  0.34377324501E+03 -0.98281378559E+02  0.48673407786E+02  0.10162226006E+04  0.95000000000E+03 0.  0.
<mgrwt>
<rscale>  0 0.20756270E+04</rscale>
<asrwt>0</asrwt>
<pdfrwt beam="1">  1        1 0.13559099E+00 0.20756270E+04</pdfrwt>
<pdfrwt beam="2">  1       -1 0.18801007E+00 0.20756270E+04</pdfrwt>
<totfact> 0.31708085E+00</totfact>
</mgrwt>
</event>
<event>
 4    1  0.1308745E-008  0.2118624E+04  0.7816531E-02  0.8553083E-01
          2   -1    0    0  501    0  0.00000000000E+00  0.00000000000E+00  0.13571312746E+04  0.13571312746E+04  0.00000000000E+00 0.  1.
         -2   -1    0    0    0  501 -0.00000000000E+00 -0.00000000000E+00 -0.82684841886E+03  0.82684841886E+03  0.00000000000E+00 0. -1.
    2000013    1    1    2    0    0  0.19575070983E+03 -0.34815658652E+03  0.51787904655E+03  0.11533559971E+04  0.95000000000E+03 0.  0.
   -2000013    1    1    2    0    0 -0.19575070983E+03  0.34815658652E+03  0.12403809215E+02  0.10306236964E+04  0.95000000000E+03 0.  0.
<mgrwt>
<rscale>  0 0.21186239E+04</rscale>
<asrwt>0</asrwt>
<pdfrwt beam="1">  1        2 0.20878943E+00 0.21186239E+04</pdfrwt>
<pdfrwt beam="2">  1       -2 0.12720745E+00 0.21186239E+04</pdfrwt>
<totfact> 0.64671890E+00</totfact>
</mgrwt>
</event>
<event>
 4    1  0.1308745E-008  0.2767324E+04  0.7816531E-02  0.8313485E-01
         -2   -1    0    0    0  501 -0.00000000000E+00  0.00000000000E+00  0.62902789797E+03  0.62902789797E+03  0.00000000000E+00 0. -1.
          2   -1    0    0  501    0  0.00000000000E+00 -0.00000000000E+00 -0.30436168515E+04  0.30436168515E+04  0.00000000000E+00 0.  1.
    2000013    1    1    2    0    0  0.21838249789E+03  0.84397868326E+03 -0.54103374000E+03  0.13982876818E+04  0.95000000000E+03 0.  0.
   -2000013    1    1    2    0    0 -0.21838249789E+03 -0.84397868326E+03 -0.18735552135E+04  0.22743570677E+04  0.95000000000E+03 0.  0.
<mgrwt>
<rscale>  0 0.27673236E+04</rscale>
<asrwt>0</asrwt>
<pdfrwt beam="2">  1        2 0.46824875E+00 0.27673236E+04</pdfrwt>
<pdfrwt beam="1">  1       -2 0.96773522E-01 0.27673236E+04</pdfrwt>
<totfact> 0.12721740E+00</totfact>
</mgrwt>
</event>
<event>
 4    1  0.1308745E-008  0.2359896E+04  0.7816531E-02  0.8454672E-01
         -1   -1    0    0    0  501 -0.00000000000E+00  0.00000000000E+00  0.94381107718E+03  0.94381107718E+03  0.00000000000E+00 0. -1.
          1   -1    0    0  501    0  0.00000000000E+00 -0.00000000000E+00 -0.14751652478E+04  0.14751652478E+04  0.00000000000E+00 0.  1.
    2000013    1    1    2    0    0 -0.68850128892E+03  0.53294562678E+01 -0.39417444270E+03  0.12377139893E+04  0.95000000000E+03 0.  0.
   -2000013    1    1    2    0    0  0.68850128892E+03 -0.53294562678E+01 -0.13717972789E+03  0.11812623357E+04  0.95000000000E+03 0.  0.
<mgrwt>
<rscale>  0 0.23598960E+04</rscale>
<asrwt>0</asrwt>
<pdfrwt beam="2">  1        1 0.22694850E+00 0.23598960E+04</pdfrwt>
<pdfrwt beam="1">  1       -1 0.14520170E+00 0.23598960E+04</pdfrwt>
<totfact> 0.23301487E+00</totfact>
</mgrwt>
</event>
<event>
 4    1  0.1308745E-008  0.2749266E+04  0.7816531E-02  0.8319195E-01
         -2   -1    0    0    0  501 -0.00000000000E+00  0.00000000000E+00  0.99689183958E+03  0.99689183958E+03  0.00000000000E+00 0. -1.
          2   -1    0    0  501    0  0.00000000000E+00 -0.00000000000E+00 -0.18955069927E+04  0.18955069927E+04  0.00000000000E+00 0.  1.
    2000013    1    1    2    0    0  0.38688698867E+03  0.80843283546E+03 -0.90043290645E+03  0.15863557642E+04  0.95000000000E+03 0.  0.
   -2000013    1    1    2    0    0 -0.38688698867E+03 -0.80843283546E+03  0.18177533746E+01  0.13060430681E+04  0.95000000000E+03 0.  0.
<mgrwt>
<rscale>  0 0.27492657E+04</rscale>
<asrwt>0</asrwt>
<pdfrwt beam="2">  1        2 0.29161646E+00 0.27492657E+04</pdfrwt>
<pdfrwt beam="1">  1       -2 0.15336798E+00 0.27492657E+04</pdfrwt>
<totfact> 0.18848199E+00</totfact>
</mgrwt>
</event>
<event>
 4    1  0.1308745E-008  0.3133675E+04  0.7816531E-02  0.8206557E-01
          1   -1    0    0  501    0  0.00000000000E+00  0.00000000000E+00  0.25939256893E+04  0.25939256893E+04  0.00000000000E+00 0.  1.
         -1   -1    0    0    0  501 -0.00000000000E+00 -0.00000000000E+00 -0.94643385058E+03  0.94643385058E+03  0.00000000000E+00 0. -1.
    2000013    1    1    2    0    0 -0.81158588190E+03  0.81296940529E+03  0.27853166770E+03  0.15164665468E+04  0.95000000000E+03 0.  0.
   -2000013    1    1    2    0    0  0.81158588190E+03 -0.81296940529E+03  0.13689601710E+04  0.20238929931E+04  0.95000000000E+03 0.  0.
<mgrwt>
<rscale>  0 0.31336746E+04</rscale>
<asrwt>0</asrwt>
<pdfrwt beam="1">  1        1 0.39906549E+00 0.31336746E+04</pdfrwt>
<pdfrwt beam="2">  1       -1 0.14560521E+00 0.31336746E+04</pdfrwt>
<totfact> 0.37029621E-01</totfact>
</mgrwt>
</event>
<event>
 4    1  0.1308745E-008  0.3866302E+04  0.7816531E-02  0.8032074E-01
         -2   -1    0    0    0  501 -0.00000000000E+00  0.00000000000E+00  0.13884576928E+04  0.13884576928E+04  0.00000000000E+00 0. -1.
          2   -1    0    0  501    0  0.00000000000E+00 -0.00000000000E+00 -0.26915284354E+04  0.26915284354E+04  0.00000000000E+00 0.  1.
    2000013    1    1    2    0    0 -0.53507336234E+03  0.15203922671E+04 -0.11649179205E+04  0.22039577832E+04  0.95000000000E+03 0.  0.
   -2000013    1    1    2    0    0  0.53507336234E+03 -0.15203922671E+04 -0.13815282209E+03  0.18760283450E+04  0.95000000000E+03 0.  0.
<mgrwt>
<rscale>  0 0.38663023E+04</rscale>
<asrwt>0</asrwt>
<pdfrwt beam="2">  1        2 0.41408129E+00 0.38663023E+04</pdfrwt>
<pdfrwt beam="1">  1       -2 0.21360888E+00 0.38663023E+04</pdfrwt>
<totfact> 0.23252860E-01</totfact>
</mgrwt>
</event>
<event>
 4    1  0.1308745E-008  0.2639578E+04  0.7816531E-02  0.8354881E-01
          2   -1    0    0  501    0  0.00000000000E+00  0.00000000000E+00  0.11869742771E+04  0.11869742771E+04  0.00000000000E+00 0.  1.
         -2   -1    0    0    0  501 -0.00000000000E+00 -0.00000000000E+00 -0.14674643042E+04  0.14674643042E+04  0.00000000000E+00 0. -1.
    2000013    1    1    2    0    0  0.36995659224E+03  0.82962551667E+03 -0.20427222666E+02  0.13145583477E+04  0.95000000000E+03 0.  0.
   -2000013    1    1    2    0    0 -0.36995659224E+03 -0.82962551667E+03 -0.26006280450E+03  0.13398802336E+04  0.95000000000E+03 0.  0.
<mgrwt>
<rscale>  0 0.26395775E+04</rscale>
<asrwt>0</asrwt>
<pdfrwt beam="1">  1        2 0.18261143E+00 0.26395775E+04</pdfrwt>
<pdfrwt beam="2">  1       -2 0.22576374E+00 0.26395775E+04</pdfrwt>
<totfact> 0.15453742E+00</totfact>
</mgrwt>
</event>
<event>
 4    1  0.1308745E-008  0.2577601E+04  0.7816531E-02  0.8375850E-01
         -2   -1    0    0    0  501 -0.00000000000E+00  0.00000000000E+00  0.17832704854E+04  0.17832704854E+04  0.00000000000E+00 0. -1.
          2   -1    0    0  501    0  0.00000000000E+00 -0.00000000000E+00 -0.93143829418E+03  0.93143829418E+03  0.00000000000E+00 0.  1.
    2000013    1    1    2    0    0  0.85047898909E+03  0.17680053020E+03  0.49196963697E+03  0.13780809345E+04  0.95000000000E+03 0.  0.
   -2000013    1    1    2    0    0 -0.85047898909E+03 -0.17680053020E+03  0.35986255429E+03  0.13366278451E+04  0.95000000000E+03 0.  0.
<mgrwt>
<rscale>  0 0.25776008E+04</rscale>
<asrwt>0</asrwt>
<pdfrwt beam="2">  1        2 0.14329820E+00 0.25776008E+04</pdfrwt>
<pdfrwt beam="1">  1       -2 0.27434930E+00 0.25776008E+04</pdfrwt>
<totfact> 0.11284359E+00</totfact>
</mgrwt>
</event>
<event>
 4    1  0.1308745E-008  0.2150506E+04  0.7816531E-02  0.8539316E-01
         -2   -1    0    0    0  501 -0.00000000000E+00  0.00000000000E+00  0.84210797745E+03  0.84210797745E+03  0.00000000000E+00 0. -1.
          2   -1    0    0  501    0  0.00000000000E+00 -0.00000000000E+00 -0.13729467335E+04  0.13729467335E+04  0.00000000000E+00 0.  1.
    2000013    1    1    2    0    0  0.29046574648E+03  0.40484651163E+03 -0.18974058340E+03  0.10893909018E+04  0.95000000000E+03 0.  0.
   -2000013    1    1    2    0    0 -0.29046574648E+03 -0.40484651163E+03 -0.34109817261E+03  0.11256638091E+04  0.95000000000E+03 0.  0.
<mgrwt>
<rscale>  0 0.21505064E+04</rscale>
<asrwt>0</asrwt>
<pdfrwt beam="2">  1        2 0.21122258E+00 0.21505064E+04</pdfrwt>
<pdfrwt beam="1">  1       -2 0.12955507E+00 0.21505064E+04</pdfrwt>
<totfact> 0.60310759E+00</totfact>
</mgrwt>
</event>
<event>
 4    1  0.1308745E-008  0.2908370E+04  0.7816531E-02  0.8270392E-01
          2   -1    0    0  501    0  0.00000000000E+00  0.00000000000E+00  0.16695534253E+04  0.16695534253E+04  0.00000000000E+00 0.  1.
         -2   -1    0    0    0  501 -0.00000000000E+00 -0.00000000000E+00 -0.12665985991E+04  0.12665985991E+04  0.00000000000E+00 0. -1.
    2000013    1    1    2    0    0  0.41525835945E+03  0.33516242113E+03 -0.77072770148E+03  0.13346514689E+04  0.95000000000E+03 0.  0.
   -2000013    1    1    2    0    0 -0.41525835945E+03 -0.33516242113E+03  0.11736825277E+04  0.16015005556E+04  0.95000000000E+03 0.  0.
<mgrwt>
<rscale>  0 0.29083700E+04</rscale>
<asrwt>0</asrwt>
<pdfrwt beam="1">  1        2 0.25685437E+00 0.29083700E+04</pdfrwt>
<pdfrwt beam="2">  1       -2 0.19486132E+00 0.29083700E+04</pdfrwt>
<totfact> 0.12650936E+00</totfact>
</mgrwt>
</event>
<event>
 4    1  0.1308745E-008  0.2565020E+04  0.7816531E-02  0.8380181E-01
         -1   -1    0    0    0  501 -0.00000000000E+00  0.00000000000E+00  0.15682913775E+04  0.15682913775E+04  0.00000000000E+00 0.  1.
          1   -1    0    0  501    0  0.00000000000E+00 -0.00000000000E+00 -0.10488050608E+04  0.10488050608E+04  0.00000000000E+00 0. -1.
    2000013    1    1    2    0    0  0.71853747484E+03  0.76860969526E+01 -0.22527818473E+03  0.12122728403E+04  0.95000000000E+03 0.  0.
   -2000013    1    1    2    0    0 -0.71853747484E+03 -0.76860969526E+01  0.74476450141E+03  0.14048235980E+04  0.95000000000E+03 0.  0.
<mgrwt>
<rscale>  0 0.25650200E+04</rscale>
<asrwt>0</asrwt>
<pdfrwt beam="2">  1        1 0.16135463E+00 0.25650200E+04</pdfrwt>
<pdfrwt beam="1">  1       -1 0.24127560E+00 0.25650200E+04</pdfrwt>
<totfact> 0.97425661E-01</totfact>
</mgrwt>
</event>
<event>
 4    1  0.1308745E-008  0.2308150E+04  0.7816531E-02  0.8474715E-01
         -2   -1    0    0    0  501 -0.00000000000E+00  0.00000000000E+00  0.15318549934E+04  0.15318549934E+04  0.00000000000E+00 0. -1.
          2   -1    0    0  501    0  0.00000000000E+00 -0.00000000000E+00 -0.86946131000E+03  0.86946131000E+03  0.00000000000E+00 0.  1.
    2000013    1    1    2    0    0  0.27584025703E+03  0.59063720600E+03  0.26180764513E+03  0.11815174140E+04  0.95000000000E+03 0.  0.
   -2000013    1    1    2    0    0 -0.27584025703E+03 -0.59063720600E+03  0.40058603825E+03  0.12197988894E+04  0.95000000000E+03 0.  0.
<mgrwt>
<rscale>  0 0.23081496E+04</rscale>
<asrwt>0</asrwt>
<pdfrwt beam="2">  1        2 0.13376328E+00 0.23081496E+04</pdfrwt>
<pdfrwt beam="1">  1       -2 0.23567000E+00 0.23081496E+04</pdfrwt>
<totfact> 0.21961307E+00</totfact>
</mgrwt>
</event>
<event>
 4    1  0.1308745E-008  0.2085680E+04  0.7816531E-02  0.8567578E-01
         -2   -1    0    0    0  501 -0.00000000000E+00  0.00000000000E+00  0.50812103621E+03  0.50812103621E+03  0.00000000000E+00 0. -1.
          2   -1    0    0  501    0  0.00000000000E+00 -0.00000000000E+00 -0.21402687554E+04  0.21402687554E+04  0.00000000000E+00 0.  1.
    2000013    1    1    2    0    0  0.32518008831E+03 -0.23038537307E+03 -0.61055474552E+03  0.11975377269E+04  0.95000000000E+03 0.  0.
   -2000013    1    1    2    0    0 -0.32518008831E+03  0.23038537307E+03 -0.10215929737E+04  0.14508520648E+04  0.95000000000E+03 0.  0.
<mgrwt>
<rscale>  0 0.20856803E+04</rscale>
<asrwt>0</asrwt>
<pdfrwt beam="2">  1        2 0.32927212E+00 0.20856803E+04</pdfrwt>
<pdfrwt beam="1">  1       -2 0.78172466E-01 0.20856803E+04</pdfrwt>
<totfact> 0.74929912E+00</totfact>
</mgrwt>
</event>
<event>
 4    1  0.1308745E-008  0.3383425E+04  0.7816531E-02  0.8141986E-01
         -2   -1    0    0    0  501 -0.00000000000E+00  0.00000000000E+00  0.15029673898E+04  0.15029673898E+04  0.00000000000E+00 0. -1.
          2   -1    0    0  501    0  0.00000000000E+00 -0.00000000000E+00 -0.19041610657E+04  0.19041610657E+04  0.00000000000E+00 0.  1.
    2000013    1    1    2    0    0  0.12039195192E+02 -0.13089701242E+04  0.29870357757E+03  0.16447709736E+04  0.95000000000E+03 0.  0.
   -2000013    1    1    2    0    0 -0.12039195192E+02  0.13089701242E+04 -0.69989725350E+03  0.17623574818E+04  0.95000000000E+03 0.  0.
<mgrwt>
<rscale>  0 0.33834255E+04</rscale>
<asrwt>0</asrwt>
<pdfrwt beam="2">  1        2 0.29294786E+00 0.33834255E+04</pdfrwt>
<pdfrwt beam="1">  1       -2 0.23122575E+00 0.33834255E+04</pdfrwt>
<totfact> 0.52637261E-01</totfact>
</mgrwt>
</event>
<event>
 4    1  0.1308745E-008  0.2863363E+04  0.7816531E-02  0.8283862E-01
          2   -1    0    0  501    0  0.00000000000E+00  0.00000000000E+00  0.13486458746E+04  0.13486458746E+04  0.00000000000E+00 0.  1.
         -2   -1    0    0    0  501 -0.00000000000E+00 -0.00000000000E+00 -0.15198297036E+04  0.15198297036E+04  0.00000000000E+00 0. -1.
    2000013    1    1    2    0    0  0.98544953952E+03 -0.34606759603E+03 -0.32337300291E+03  0.14484280013E+04  0.95000000000E+03 0.  0.
   -2000013    1    1    2    0    0 -0.98544953952E+03  0.34606759603E+03  0.15218917388E+03  0.14200475769E+04  0.95000000000E+03 0.  0.
<mgrwt>
<rscale>  0 0.28633631E+04</rscale>
<asrwt>0</asrwt>
<pdfrwt beam="1">  1        2 0.20748398E+00 0.28633631E+04</pdfrwt>
<pdfrwt beam="2">  1       -2 0.23381995E+00 0.28633631E+04</pdfrwt>
<totfact> 0.10851488E+00</totfact>
</mgrwt>
</event>
<event>
 4    1  0.1308745E-008  0.2205971E+04  0.7816531E-02  0.8515947E-01
         -2   -1    0    0    0  501 -0.00000000000E+00  0.00000000000E+00  0.49484225120E+03  0.49484225120E+03  0.00000000000E+00 0. -1.
          2   -1    0    0  501    0  0.00000000000E+00 -0.00000000000E+00 -0.24585146345E+04  0.24585146345E+04  0.00000000000E+00 0.  1.
    2000013    1    1    2    0    0  0.12783974277E+03 -0.53945564241E+03 -0.10915977093E+04  0.15496583329E+04  0.95000000000E+03 0.  0.
   -2000013    1    1    2    0    0 -0.12783974277E+03  0.53945564241E+03 -0.87207467407E+03  0.14036985528E+04  0.95000000000E+03 0.  0.
<mgrwt>
<rscale>  0 0.22059709E+04</rscale>
<asrwt>0</asrwt>
<pdfrwt beam="2">  1        2 0.37823302E+00 0.22059709E+04</pdfrwt>
<pdfrwt beam="1">  1       -2 0.76129578E-01 0.22059709E+04</pdfrwt>
<totfact> 0.51917729E+00</totfact>
</mgrwt>
</event>
<event>
 4    1  0.1308745E-008  0.2063217E+04  0.7816531E-02  0.8577622E-01
          2   -1    0    0  501    0  0.00000000000E+00  0.00000000000E+00  0.19538187586E+04  0.19538187586E+04  0.00000000000E+00 0.  1.
         -2   -1    0    0    0  501 -0.00000000000E+00 -0.00000000000E+00 -0.54468536268E+03  0.54468536268E+03  0.00000000000E+00 0. -1.
    2000013    1    1    2    0    0  0.19487489430E+03 -0.31686280297E+03  0.51956788651E+03  0.11449144287E+04  0.95000000000E+03 0.  0.
   -2000013    1    1    2    0    0 -0.19487489430E+03  0.31686280297E+03  0.88956550936E+03  0.13535896926E+04  0.95000000000E+03 0.  0.
<mgrwt>
<rscale>  0 0.20632174E+04</rscale>
<asrwt>0</asrwt>
<pdfrwt beam="1">  1        2 0.30058750E+00 0.20632174E+04</pdfrwt>
<pdfrwt beam="2">  1       -2 0.83797749E-01 0.20632174E+04</pdfrwt>
<totfact> 0.81537606E+00</totfact>
</mgrwt>
</event>
<event>
 4    1  0.1308745E-008  0.2940206E+04  0.7816531E-02  0.8261014E-01
          2   -1    0    0  501    0  0.00000000000E+00  0.00000000000E+00  0.15731735228E+04  0.15731735228E+04  0.00000000000E+00 0.  1.
         -2   -1    0    0    0  501 -0.00000000000E+00 -0.00000000000E+00 -0.13737857742E+04  0.13737857742E+04  0.00000000000E+00 0. -1.
    2000013    1    1    2    0    0 -0.33562627827E+03  0.86597242099E+03 -0.53115632605E+03  0.14307970769E+04  0.95000000000E+03 0.  0.
   -2000013    1    1    2    0    0  0.33562627827E+03 -0.86597242099E+03  0.73054407465E+03  0.15161622201E+04  0.95000000000E+03 0.  0.
<mgrwt>
<rscale>  0 0.29402064E+04</rscale>
<asrwt>0</asrwt>
<pdfrwt beam="1">  1        2 0.24202670E+00 0.29402064E+04</pdfrwt>
<pdfrwt beam="2">  1       -2 0.21135166E+00 0.29402064E+04</pdfrwt>
<totfact> 0.11147500E+00</totfact>
</mgrwt>
</event>
<event>
 4    1  0.1308745E-008  0.2600500E+04  0.7816531E-02  0.8368031E-01
          2   -1    0    0  501    0  0.00000000000E+00  0.00000000000E+00  0.90870090366E+03  0.90870090366E+03  0.00000000000E+00 0.  1.
         -2   -1    0    0    0  501 -0.00000000000E+00 -0.00000000000E+00 -0.18605130253E+04  0.18605130253E+04  0.00000000000E+00 0. -1.
    2000013    1    1    2    0    0  0.15579279423E+02 -0.86391042367E+03 -0.25880175221E+03  0.13099856034E+04  0.95000000000E+03 0.  0.
   -2000013    1    1    2    0    0 -0.15579279423E+02  0.86391042367E+03 -0.69301036943E+03  0.14592283256E+04  0.95000000000E+03 0.  0.
<mgrwt>
<rscale>  0 0.26004998E+04</rscale>
<asrwt>0</asrwt>
<pdfrwt beam="1">  1        2 0.13980014E+00 0.26004998E+04</pdfrwt>
<pdfrwt beam="2">  1       -2 0.28623277E+00 0.26004998E+04</pdfrwt>
<totfact> 0.98718474E-01</totfact>
</mgrwt>
</event>
<event>
 4    1  0.1308745E-008  0.2620437E+04  0.7816531E-02  0.8361292E-01
          2   -1    0    0  501    0  0.00000000000E+00  0.00000000000E+00  0.24230893899E+04  0.24230893899E+04  0.00000000000E+00 0.  1.
         -2   -1    0    0    0  501 -0.00000000000E+00 -0.00000000000E+00 -0.70846414537E+03  0.70846414537E+03  0.00000000000E+00 0. -1.
    2000013    1    1    2    0    0  0.74802821254E+03  0.48563114278E+03  0.10211179732E+04  0.16554654115E+04  0.95000000000E+03 0.  0.
   -2000013    1    1    2    0    0 -0.74802821254E+03 -0.48563114278E+03  0.69350727130E+03  0.14760881237E+04  0.95000000000E+03 0.  0.
<mgrwt>
<rscale>  0 0.26204366E+04</rscale>
<asrwt>0</asrwt>
<pdfrwt beam="1">  1        2 0.37278298E+00 0.26204366E+04</pdfrwt>
<pdfrwt beam="2">  1       -2 0.10899448E+00 0.26204366E+04</pdfrwt>
<totfact> 0.22870501E+00</totfact>
</mgrwt>
</event>
<event>
 4    1  0.1308745E-008  0.2267413E+04  0.7816531E-02  0.8490882E-01
         -2   -1    0    0    0  501 -0.00000000000E+00  0.00000000000E+00  0.42217344593E+03  0.42217344593E+03  0.00000000000E+00 0. -1.
          2   -1    0    0  501    0  0.00000000000E+00 -0.00000000000E+00 -0.30444612601E+04  0.30444612601E+04  0.00000000000E+00 0.  1.
    2000013    1    1    2    0    0 -0.20537411895E+03  0.55607600176E+03 -0.15820286174E+04  0.19382243407E+04  0.95000000000E+03 0.  0.
   -2000013    1    1    2    0    0  0.20537411895E+03 -0.55607600176E+03 -0.10402591967E+04  0.15284103653E+04  0.95000000000E+03 0.  0.
<mgrwt>
<rscale>  0 0.22674132E+04</rscale>
<asrwt>0</asrwt>
<pdfrwt beam="2">  1        2 0.46837867E+00 0.22674132E+04</pdfrwt>
<pdfrwt beam="1">  1       -2 0.64949758E-01 0.22674132E+04</pdfrwt>
<totfact> 0.32484128E+00</totfact>
</mgrwt>
</event>
<event>
 4    1  0.1308745E-008  0.2277091E+04  0.7816531E-02  0.8487009E-01
          2   -1    0    0  501    0  0.00000000000E+00  0.00000000000E+00  0.29773489804E+04  0.29773489804E+04  0.00000000000E+00 0.  1.
         -2   -1    0    0    0  501 -0.00000000000E+00 -0.00000000000E+00 -0.43538253296E+03  0.43538253296E+03  0.00000000000E+00 0. -1.
    2000013    1    1    2    0    0  0.15517595885E+02 -0.52777286655E+03  0.17792270178E+04  0.20849301607E+04  0.95000000000E+03 0.  0.
   -2000013    1    1    2    0    0 -0.15517595885E+02  0.52777286655E+03  0.76273942969E+03  0.13278013526E+04  0.95000000000E+03 0.  0.
<mgrwt>
<rscale>  0 0.22770909E+04</rscale>
<asrwt>0</asrwt>
<pdfrwt beam="1">  1        2 0.45805368E+00 0.22770909E+04</pdfrwt>
<pdfrwt beam="2">  1       -2 0.66981930E-01 0.22770909E+04</pdfrwt>
<totfact> 0.33460271E+00</totfact>
</mgrwt>
</event>
<event>
 4    1  0.1308745E-008  0.3087362E+04  0.7816531E-02  0.8219215E-01
          2   -1    0    0  501    0  0.00000000000E+00  0.00000000000E+00  0.98779843440E+03  0.98779843440E+03  0.00000000000E+00 0.  1.
         -2   -1    0    0    0  501 -0.00000000000E+00 -0.00000000000E+00 -0.24123854119E+04  0.24123854119E+04  0.00000000000E+00 0. -1.
    2000013    1    1    2    0    0 -0.11912410933E+04 -0.11912894744E+03 -0.95157102070E+03  0.18003428718E+04  0.95000000000E+03 0.  0.
   -2000013    1    1    2    0    0  0.11912410933E+04  0.11912894744E+03 -0.47301595683E+03  0.15998409746E+04  0.95000000000E+03 0.  0.
<mgrwt>
<rscale>  0 0.30873617E+04</rscale>
<asrwt>0</asrwt>
<pdfrwt beam="1">  1        2 0.15196899E+00 0.30873617E+04</pdfrwt>
<pdfrwt beam="2">  1       -2 0.37113622E+00 0.30873617E+04</pdfrwt>
<totfact> 0.24875737E-01</totfact>
</mgrwt>
</event>
<event>
 4    1  0.1308745E-008  0.2191754E+04  0.7816531E-02  0.8521868E-01
          2   -1    0    0  501    0  0.00000000000E+00  0.00000000000E+00  0.46253231750E+04  0.46253231750E+04  0.00000000000E+00 0.  1.
         -2   -1    0    0    0  501 -0.00000000000E+00 -0.00000000000E+00 -0.25964583071E+03  0.25964583071E+03  0.00000000000E+00 0. -1.
    2000013    1    1    2    0    0 -0.24742004524E+03  0.48668123610E+03  0.21399337214E+04  0.24041405193E+04  0.95000000000E+03 0.  0.
   -2000013    1    1    2    0    0  0.24742004524E+03 -0.48668123610E+03  0.22257436228E+04  0.24808284864E+04  0.95000000000E+03 0.  0.
<mgrwt>
<rscale>  0 0.21917535E+04</rscale>
<asrwt>0</asrwt>
<pdfrwt beam="1">  1        2 0.71158812E+00 0.21917535E+04</pdfrwt>
<pdfrwt beam="2">  1       -2 0.39945516E-01 0.21917535E+04</pdfrwt>
<totfact> 0.50576848E-01</totfact>
</mgrwt>
</event>
<event>
 4    1  0.1308745E-008  0.2548687E+04  0.7816531E-02  0.8385843E-01
         -1   -1    0    0    0  501 -0.00000000000E+00  0.00000000000E+00  0.68238099043E+03  0.68238099043E+03  0.00000000000E+00 0.  1.
          1   -1    0    0  501    0  0.00000000000E+00 -0.00000000000E+00 -0.23798310345E+04  0.23798310345E+04  0.00000000000E+00 0. -1.
    2000013    1    1    2    0    0 -0.70030803407E+03  0.21658568009E+03 -0.13642602228E+04  0.18168782719E+04  0.95000000000E+03 0.  0.
   -2000013    1    1    2    0    0  0.70030803407E+03 -0.21658568009E+03 -0.33318982127E+03  0.12453337530E+04  0.95000000000E+03 0.  0.
<mgrwt>
<rscale>  0 0.25486871E+04</rscale>
<asrwt>0</asrwt>
<pdfrwt beam="2">  1        1 0.36612785E+00 0.25486871E+04</pdfrwt>
<pdfrwt beam="1">  1       -1 0.10498169E+00 0.25486871E+04</pdfrwt>
<totfact> 0.12355502E+00</totfact>
</mgrwt>
</event>
<event>
 4    1  0.1308745E-008  0.2191987E+04  0.7816531E-02  0.8521771E-01
         -2   -1    0    0    0  501 -0.00000000000E+00  0.00000000000E+00  0.67847274876E+03  0.67847274876E+03  0.00000000000E+00 0. -1.
          2   -1    0    0  501    0  0.00000000000E+00 -0.00000000000E+00 -0.17704495816E+04  0.17704495816E+04  0.00000000000E+00 0.  1.
    2000013    1    1    2    0    0  0.53997912779E+03  0.35246457372E+02 -0.63167254560E+03  0.12626678012E+04  0.95000000000E+03 0.  0.
   -2000013    1    1    2    0    0 -0.53997912779E+03 -0.35246457372E+02 -0.46030428723E+03  0.11862545292E+04  0.95000000000E+03 0.  0.
<mgrwt>
<rscale>  0 0.21919870E+04</rscale>
<asrwt>0</asrwt>
<pdfrwt beam="2">  1        2 0.27237686E+00 0.21919870E+04</pdfrwt>
<pdfrwt beam="1">  1       -2 0.10438042E+00 0.21919870E+04</pdfrwt>
<totfact> 0.61113140E+00</totfact>
</mgrwt>
</event>
<event>
 4    1  0.1308745E-008  0.3438102E+04  0.7816531E-02  0.8128618E-01
         -1   -1    0    0    0  501 -0.00000000000E+00  0.00000000000E+00  0.16714870943E+04  0.16714870943E+04  0.00000000000E+00 0. -1.
          1   -1    0    0  501    0  0.00000000000E+00 -0.00000000000E+00 -0.17679687468E+04  0.17679687468E+04  0.00000000000E+00 0.  1.
    2000013    1    1    2    0    0  0.13145552032E+04  0.33273111336E+03 -0.51088538932E+03  0.17327057619E+04  0.95000000000E+03 0.  0.
   -2000013    1    1    2    0    0 -0.13145552032E+04 -0.33273111336E+03  0.41440373682E+03  0.17067500793E+04  0.95000000000E+03 0.  0.
<mgrwt>
<rscale>  0 0.34381024E+04</rscale>
<asrwt>0</asrwt>
<pdfrwt beam="2">  1        1 0.27199519E+00 0.34381024E+04</pdfrwt>
<pdfrwt beam="1">  1       -1 0.25715186E+00 0.34381024E+04</pdfrwt>
<totfact> 0.21997794E-01</totfact>
</mgrwt>
</event>
<event>
 4    1  0.1308745E-008  0.3218876E+04  0.7816531E-02  0.8183850E-01
          2   -1    0    0  501    0  0.00000000000E+00  0.00000000000E+00  0.14353862378E+04  0.14353862378E+04  0.00000000000E+00 0.  1.
         -2   -1    0    0    0  501 -0.00000000000E+00 -0.00000000000E+00 -0.18045947923E+04  0.18045947923E+04  0.00000000000E+00 0. -1.
    2000013    1    1    2    0    0 -0.47793833677E+01 -0.11274879970E+04  0.46502532914E+03  0.15459626718E+04  0.95000000000E+03 0.  0.
   -2000013    1    1    2    0    0  0.47793833677E+01  0.11274879970E+04 -0.83423388370E+03  0.16940183584E+04  0.95000000000E+03 0.  0.
<mgrwt>
<rscale>  0 0.32188759E+04</rscale>
<asrwt>0</asrwt>
<pdfrwt beam="1">  1        2 0.22082865E+00 0.32188759E+04</pdfrwt>
<pdfrwt beam="2">  1       -2 0.27762997E+00 0.32188759E+04</pdfrwt>
<totfact> 0.50557499E-01</totfact>
</mgrwt>
</event>
<event>
 4    1  0.1308745E-008  0.2589204E+04  0.7816531E-02  0.8371878E-01
         -2   -1    0    0    0  501 -0.00000000000E+00  0.00000000000E+00  0.16031961597E+04  0.16031961597E+04  0.00000000000E+00 0. -1.
          2   -1    0    0  501    0  0.00000000000E+00 -0.00000000000E+00 -0.10454079155E+04  0.10454079155E+04  0.00000000000E+00 0.  1.
    2000013    1    1    2    0    0 -0.35008783727E+03  0.53506129437E+03  0.89660335467E+03  0.14543897889E+04  0.95000000000E+03 0.  0.
   -2000013    1    1    2    0    0  0.35008783727E+03 -0.53506129437E+03 -0.33881511052E+03  0.11942142863E+04  0.95000000000E+03 0.  0.
<mgrwt>
<rscale>  0 0.25892037E+04</rscale>
<asrwt>0</asrwt>
<pdfrwt beam="2">  1        2 0.16083199E+00 0.25892037E+04</pdfrwt>
<pdfrwt beam="1">  1       -2 0.24664556E+00 0.25892037E+04</pdfrwt>
<totfact> 0.14059286E+00</totfact>
</mgrwt>
</event>
<event>
 4    1  0.1308745E-008  0.2557738E+04  0.7816531E-02  0.8382700E-01
          2   -1    0    0  501    0  0.00000000000E+00  0.00000000000E+00  0.29242991086E+04  0.29242991086E+04  0.00000000000E+00 0.  1.
         -2   -1    0    0    0  501 -0.00000000000E+00 -0.00000000000E+00 -0.55928126992E+03  0.55928126992E+03  0.00000000000E+00 0. -1.
    2000013    1    1    2    0    0 -0.43578625404E+03 -0.70872619313E+03  0.90739209646E+03  0.15550121841E+04  0.95000000000E+03 0.  0.
   -2000013    1    1    2    0    0  0.43578625404E+03  0.70872619313E+03  0.14576257422E+04  0.19285681944E+04  0.95000000000E+03 0.  0.
<mgrwt>
<rscale>  0 0.25577378E+04</rscale>
<asrwt>0</asrwt>
<pdfrwt beam="1">  1        2 0.44989216E+00 0.25577378E+04</pdfrwt>
<pdfrwt beam="2">  1       -2 0.86043274E-01 0.25577378E+04</pdfrwt>
<totfact> 0.20186999E+00</totfact>
</mgrwt>
</event>
<event>
 4    1  0.1308745E-008  0.2229833E+04  0.7816531E-02  0.8506112E-01
          2   -1    0    0  501    0  0.00000000000E+00  0.00000000000E+00  0.31597170411E+04  0.31597170411E+04  0.00000000000E+00 0.  1.
         -2   -1    0    0    0  501 -0.00000000000E+00 -0.00000000000E+00 -0.39340207705E+03  0.39340207705E+03  0.00000000000E+00 0. -1.
    2000013    1    1    2    0    0  0.56805853577E+03  0.75537266567E+02  0.12075682048E+04  0.16398528434E+04  0.95000000000E+03 0.  0.
   -2000013    1    1    2    0    0 -0.56805853577E+03 -0.75537266567E+02  0.15587467593E+04  0.19132662748E+04  0.95000000000E+03 0.  0.
<mgrwt>
<rscale>  0 0.22298334E+04</rscale>
<asrwt>0</asrwt>
<pdfrwt beam="1">  1        2 0.48611030E+00 0.22298334E+04</pdfrwt>
<pdfrwt beam="2">  1       -2 0.60523399E-01 0.22298334E+04</pdfrwt>
<totfact> 0.31987002E+00</totfact>
</mgrwt>
</event>
<event>
 4    1  0.1308745E-008  0.2504316E+04  0.7816531E-02  0.8401449E-01
         -2   -1    0    0    0  501 -0.00000000000E+00  0.00000000000E+00  0.84530337137E+03  0.84530337137E+03  0.00000000000E+00 0. -1.
          2   -1    0    0  501    0  0.00000000000E+00 -0.00000000000E+00 -0.18548371102E+04  0.18548371102E+04  0.00000000000E+00 0.  1.
    2000013    1    1    2    0    0 -0.63584895642E+03  0.48294838786E+03 -0.68472211798E+03  0.14173522567E+04  0.95000000000E+03 0.  0.
   -2000013    1    1    2    0    0  0.63584895642E+03 -0.48294838786E+03 -0.32481162080E+03  0.12827882248E+04  0.95000000000E+03 0.  0.
<mgrwt>
<rscale>  0 0.25043163E+04</rscale>
<asrwt>0</asrwt>
<pdfrwt beam="2">  1        2 0.28535955E+00 0.25043163E+04</pdfrwt>
<pdfrwt beam="1">  1       -2 0.13004667E+00 0.25043163E+04</pdfrwt>
<totfact> 0.31124020E+00</totfact>
</mgrwt>
</event>
<event>
 4    1  0.1308745E-008  0.3244048E+04  0.7816531E-02  0.8177280E-01
         -1   -1    0    0    0  501 -0.00000000000E+00  0.00000000000E+00  0.91134751094E+03  0.91134751094E+03  0.00000000000E+00 0. -1.
          1   -1    0    0  501    0  0.00000000000E+00 -0.00000000000E+00 -0.28868915091E+04  0.28868915091E+04  0.00000000000E+00 0.  1.
    2000013    1    1    2    0    0  0.72012843621E+03  0.94601910085E+03 -0.16448215693E+04  0.22408648104E+04  0.95000000000E+03 0.  0.
   -2000013    1    1    2    0    0 -0.72012843621E+03 -0.94601910085E+03 -0.33072242889E+03  0.15573742096E+04  0.95000000000E+03 0.  0.
<mgrwt>
<rscale>  0 0.32440477E+04</rscale>
<asrwt>0</asrwt>
<pdfrwt beam="2">  1        1 0.44413715E+00 0.32440477E+04</pdfrwt>
<pdfrwt beam="1">  1       -1 0.14020731E+00 0.32440477E+04</pdfrwt>
<totfact> 0.25110590E-01</totfact>
</mgrwt>
</event>
<event>
 4    1  0.1308745E-008  0.3409374E+04  0.7816531E-02  0.8135610E-01
          2   -1    0    0  501    0  0.00000000000E+00  0.00000000000E+00  0.23586048510E+04  0.23586048510E+04  0.00000000000E+00 0.  1.
         -2   -1    0    0    0  501 -0.00000000000E+00 -0.00000000000E+00 -0.12320661863E+04  0.12320661863E+04  0.00000000000E+00 0. -1.
    2000013    1    1    2    0    0  0.17552277286E+03  0.13981706070E+04  0.70365417002E+03  0.18393799176E+04  0.95000000000E+03 0.  0.
   -2000013    1    1    2    0    0 -0.17552277286E+03 -0.13981706070E+04  0.42288449477E+03  0.17512911197E+04  0.95000000000E+03 0.  0.
<mgrwt>
<rscale>  0 0.34093737E+04</rscale>
<asrwt>0</asrwt>
<pdfrwt beam="1">  1        2 0.36286228E+00 0.34093737E+04</pdfrwt>
<pdfrwt beam="2">  1       -2 0.18954864E+00 0.34093737E+04</pdfrwt>
<totfact> 0.54244137E-01</totfact>
</mgrwt>
</event>
<event>
 4    1  0.1308745E-008  0.2261420E+04  0.7816531E-02  0.8493290E-01
         -2   -1    0    0    0  501 -0.00000000000E+00  0.00000000000E+00  0.92022598867E+03  0.92022598867E+03  0.00000000000E+00 0. -1.
          2   -1    0    0  501    0  0.00000000000E+00 -0.00000000000E+00 -0.13893384908E+04  0.13893384908E+04  0.00000000000E+00 0.  1.
    2000013    1    1    2    0    0  0.38161604602E+03 -0.40003381495E+03  0.36321435143E+02  0.10997622954E+04  0.95000000000E+03 0.  0.
   -2000013    1    1    2    0    0 -0.38161604602E+03  0.40003381495E+03 -0.50543393729E+03  0.12098021841E+04  0.95000000000E+03 0.  0.
<mgrwt>
<rscale>  0 0.22614202E+04</rscale>
<asrwt>0</asrwt>
<pdfrwt beam="2">  1        2 0.21374438E+00 0.22614202E+04</pdfrwt>
<pdfrwt beam="1">  1       -2 0.14157323E+00 0.22614202E+04</pdfrwt>
<totfact> 0.46570369E+00</totfact>
</mgrwt>
</event>
<event>
 4    1  0.1308745E-008  0.2048501E+04  0.7816531E-02  0.8584275E-01
         -1   -1    0    0    0  501 -0.00000000000E+00  0.00000000000E+00  0.90596924410E+03  0.90596924410E+03  0.00000000000E+00 0. -1.
          1   -1    0    0  501    0  0.00000000000E+00 -0.00000000000E+00 -0.11579745787E+04  0.11579745787E+04  0.00000000000E+00 0.  1.
    2000013    1    1    2    0    0  0.23240493419E+03  0.29716479930E+03 -0.19184345496E+03  0.10400110012E+04  0.95000000000E+03 0.  0.
   -2000013    1    1    2    0    0 -0.23240493419E+03 -0.29716479930E+03 -0.60161879622E+02  0.10239328216E+04  0.95000000000E+03 0.  0.
<mgrwt>
<rscale>  0 0.20485013E+04</rscale>
<asrwt>0</asrwt>
<pdfrwt beam="2">  1        1 0.17814993E+00 0.20485013E+04</pdfrwt>
<pdfrwt beam="1">  1       -1 0.13937988E+00 0.20485013E+04</pdfrwt>
<totfact> 0.44955976E+00</totfact>
</mgrwt>
</event>
<event>
 4    1  0.1308745E-008  0.2143043E+04  0.7816531E-02  0.8542516E-01
          2   -1    0    0  501    0  0.00000000000E+00  0.00000000000E+00  0.50501731435E+03  0.50501731435E+03  0.00000000000E+00 0.  1.
         -2   -1    0    0    0  501 -0.00000000000E+00 -0.00000000000E+00 -0.22735033796E+04  0.22735033796E+04  0.00000000000E+00 0. -1.
    2000013    1    1    2    0    0  0.30047998302E+03 -0.32620918611E+03 -0.59736706183E+03  0.12066681648E+04  0.95000000000E+03 0.  0.
   -2000013    1    1    2    0    0 -0.30047998302E+03  0.32620918611E+03 -0.11711190034E+04  0.15718525292E+04  0.95000000000E+03 0.  0.
<mgrwt>
<rscale>  0 0.21430432E+04</rscale>
<asrwt>0</asrwt>
<pdfrwt beam="1">  1        2 0.77694974E-01 0.21430432E+04</pdfrwt>
<pdfrwt beam="2">  1       -2 0.34976974E+00 0.21430432E+04</pdfrwt>
<totfact> 0.87399153E-01</totfact>
</mgrwt>
</event>
<event>
 4    1  0.1308745E-008  0.3703476E+04  0.7816531E-02  0.8067192E-01
         -2   -1    0    0    0  501 -0.00000000000E+00  0.00000000000E+00  0.34743918483E+04  0.34743918483E+04  0.00000000000E+00 0. -1.
          2   -1    0    0  501    0  0.00000000000E+00 -0.00000000000E+00 -0.98691628494E+03  0.98691628494E+03  0.00000000000E+00 0.  1.
    2000013    1    1    2    0    0 -0.15630478856E+04 -0.27849645180E+02  0.15898236355E+04  0.24236199140E+04  0.95000000000E+03 0.  0.
   -2000013    1    1    2    0    0  0.15630478856E+04  0.27849645180E+02  0.89765192783E+03  0.20376882193E+04  0.95000000000E+03 0.  0.
<mgrwt>
<rscale>  0 0.37034761E+04</rscale>
<asrwt>0</asrwt>
<pdfrwt beam="2">  1        2 0.15183328E+00 0.37034761E+04</pdfrwt>
<pdfrwt beam="1">  1       -2 0.53452182E+00 0.37034761E+04</pdfrwt>
<totfact> 0.21411736E-02</totfact>
</mgrwt>
</event>
<event>
 4    1  0.1308745E-008  0.3697443E+04  0.7816531E-02  0.8068529E-01
         -2   -1    0    0    0  501 -0.00000000000E+00  0.00000000000E+00  0.17304717093E+04  0.17304717093E+04  0.00000000000E+00 0. -1.
          2   -1    0    0  501    0  0.00000000000E+00 -0.00000000000E+00 -0.19750519274E+04  0.19750519274E+04  0.00000000000E+00 0.  1.
    2000013    1    1    2    0    0  0.15204895822E+04  0.33068846448E+03  0.18501997176E+03  0.18324780545E+04  0.95000000000E+03 0.  0.
   -2000013    1    1    2    0    0 -0.15204895822E+04 -0.33068846448E+03 -0.42960018983E+03  0.18730455823E+04  0.95000000000E+03 0.  0.
<mgrwt>
<rscale>  0 0.36974432E+04</rscale>
<asrwt>0</asrwt>
<pdfrwt beam="2">  1        2 0.30385414E+00 0.36974432E+04</pdfrwt>
<pdfrwt beam="1">  1       -2 0.26622642E+00 0.36974432E+04</pdfrwt>
<totfact> 0.28509282E-01</totfact>
</mgrwt>
</event>
<event>
 4    1  0.1308745E-008  0.2030512E+04  0.7816531E-02  0.8592487E-01
          2   -1    0    0  501    0  0.00000000000E+00  0.00000000000E+00  0.77365639634E+03  0.77365639634E+03  0.00000000000E+00 0.  1.
         -2   -1    0    0    0  501 -0.00000000000E+00 -0.00000000000E+00 -0.13323025315E+04  0.13323025315E+04  0.00000000000E+00 0. -1.
    2000013    1    1    2    0    0  0.24527635969E+03 -0.12161603297E+03 -0.51875453288E+03  0.11164932680E+04  0.95000000000E+03 0.  0.
   -2000013    1    1    2    0    0 -0.24527635969E+03  0.12161603297E+03 -0.39891602299E+02  0.98946565985E+03  0.95000000000E+03 0.  0.
<mgrwt>
<rscale>  0 0.20305116E+04</rscale>
<asrwt>0</asrwt>
<pdfrwt beam="1">  1        2 0.11902406E+00 0.20305116E+04</pdfrwt>
<pdfrwt beam="2">  1       -2 0.20496962E+00 0.20305116E+04</pdfrwt>
<totfact> 0.41163398E+00</totfact>
</mgrwt>
</event>
<event>
 4    1  0.1308745E-008  0.2316500E+04  0.7816531E-02  0.8471444E-01
         -2   -1    0    0    0  501 -0.00000000000E+00  0.00000000000E+00  0.48674717602E+03  0.48674717602E+03  0.00000000000E+00 0. -1.
          2   -1    0    0  501    0  0.00000000000E+00 -0.00000000000E+00 -0.27561385994E+04  0.27561385994E+04  0.00000000000E+00 0.  1.
    2000013    1    1    2    0    0  0.44002829153E+02  0.37019235069E+03 -0.19015386025E+04  0.21580842621E+04  0.95000000000E+03 0.  0.
   -2000013    1    1    2    0    0 -0.44002829153E+02 -0.37019235069E+03 -0.36785282089E+03  0.10848015133E+04  0.95000000000E+03 0.  0.
<mgrwt>
<rscale>  0 0.23164997E+04</rscale>
<asrwt>0</asrwt>
<pdfrwt beam="2">  1        2 0.42402133E+00 0.23164997E+04</pdfrwt>
<pdfrwt beam="1">  1       -2 0.74884180E-01 0.23164997E+04</pdfrwt>
<totfact> 0.35663483E+00</totfact>
</mgrwt>
</event>
<event>
 4    1  0.1308745E-008  0.3039320E+04  0.7816531E-02  0.8232591E-01
         -2   -1    0    0    0  501 -0.00000000000E+00  0.00000000000E+00  0.11752636316E+04  0.11752636316E+04  0.00000000000E+00 0. -1.
          2   -1    0    0  501    0  0.00000000000E+00 -0.00000000000E+00 -0.19649768789E+04  0.19649768789E+04  0.00000000000E+00 0.  1.
    2000013    1    1    2    0    0  0.59631092443E+03  0.10180793922E+04 -0.26918942200E+03  0.15385172448E+04  0.95000000000E+03 0.  0.
   -2000013    1    1    2    0    0 -0.59631092443E+03 -0.10180793922E+04 -0.52052382525E+03  0.16017232658E+04  0.95000000000E+03 0.  0.
<mgrwt>
<rscale>  0 0.30393196E+04</rscale>
<asrwt>0</asrwt>
<pdfrwt beam="2">  1        2 0.30230414E+00 0.30393196E+04</pdfrwt>
<pdfrwt beam="1">  1       -2 0.18080979E+00 0.30393196E+04</pdfrwt>
<totfact> 0.10674092E+00</totfact>
</mgrwt>
</event>
<event>
 4    1  0.1308745E-008  0.2388900E+04  0.7816531E-02  0.8443671E-01
          2   -1    0    0  501    0  0.00000000000E+00  0.00000000000E+00  0.10598858756E+04  0.10598858756E+04  0.00000000000E+00 0.  1.
         -2   -1    0    0    0  501 -0.00000000000E+00 -0.00000000000E+00 -0.13460986110E+04  0.13460986110E+04  0.00000000000E+00 0. -1.
    2000013    1    1    2    0    0 -0.47364830221E+03 -0.14907213686E+02 -0.69442040986E+03  0.12685758333E+04  0.95000000000E+03 0.  0.
   -2000013    1    1    2    0    0  0.47364830221E+03  0.14907213686E+02  0.40820767446E+03  0.11374086533E+04  0.95000000000E+03 0.  0.
<mgrwt>
<rscale>  0 0.23889001E+04</rscale>
<asrwt>0</asrwt>
<pdfrwt beam="1">  1        2 0.16305936E+00 0.23889001E+04</pdfrwt>
<pdfrwt beam="2">  1       -2 0.20709210E+00 0.23889001E+04</pdfrwt>
<totfact> 0.24829006E+00</totfact>
</mgrwt>
</event>
<event>
 4    1  0.1308745E-008  0.2606249E+04  0.7816531E-02  0.8366082E-01
          2   -1    0    0  501    0  0.00000000000E+00  0.00000000000E+00  0.11655756340E+04  0.11655756340E+04  0.00000000000E+00 0.  1.
         -2   -1    0    0    0  501 -0.00000000000E+00 -0.00000000000E+00 -0.14569055012E+04  0.14569055012E+04  0.00000000000E+00 0. -1.
    2000013    1    1    2    0    0  0.70033289148E+03  0.12145685965E+03  0.39659366241E+03  0.12510013832E+04  0.95000000000E+03 0.  0.
   -2000013    1    1    2    0    0 -0.70033289148E+03 -0.12145685965E+03 -0.68792352958E+03  0.13714797520E+04  0.95000000000E+03 0.  0.
<mgrwt>
<rscale>  0 0.26062491E+04</rscale>
<asrwt>0</asrwt>
<pdfrwt beam="1">  1        2 0.17931933E+00 0.26062491E+04</pdfrwt>
<pdfrwt beam="2">  1       -2 0.22413931E+00 0.26062491E+04</pdfrwt>
<totfact> 0.16343349E+00</totfact>
</mgrwt>
</event>
<event>
 4    1  0.1308745E-008  0.2307045E+04  0.7816531E-02  0.8475148E-01
          2   -1    0    0  501    0  0.00000000000E+00  0.00000000000E+00  0.22257878165E+04  0.22257878165E+04  0.00000000000E+00 0.  1.
         -2   -1    0    0    0  501 -0.00000000000E+00 -0.00000000000E+00 -0.59781735044E+03  0.59781735044E+03  0.00000000000E+00 0. -1.
    2000013    1    1    2    0    0  0.58701404802E+03 -0.12510741424E+03  0.11328524339E+04  0.15956478292E+04  0.95000000000E+03 0.  0.
   -2000013    1    1    2    0    0 -0.58701404802E+03  0.12510741424E+03  0.49511803214E+03  0.12279573378E+04  0.95000000000E+03 0.  0.
<mgrwt>
<rscale>  0 0.23070454E+04</rscale>
<asrwt>0</asrwt>
<pdfrwt beam="1">  1        2 0.34242889E+00 0.23070454E+04</pdfrwt>
<pdfrwt beam="2">  1       -2 0.91971901E-01 0.23070454E+04</pdfrwt>
<totfact> 0.45473221E+00</totfact>
</mgrwt>
</event>
<event>
 4    1  0.1308745E-008  0.2133087E+04  0.7816531E-02  0.8546807E-01
         -2   -1    0    0    0  501 -0.00000000000E+00  0.00000000000E+00  0.17395292157E+04  0.17395292157E+04  0.00000000000E+00 0. -1.
          2   -1    0    0  501    0  0.00000000000E+00 -0.00000000000E+00 -0.65392147987E+03  0.65392147987E+03  0.00000000000E+00 0.  1.
    2000013    1    1    2    0    0  0.42939682023E+03  0.22318477312E+03  0.57498265951E+03  0.12113208208E+04  0.95000000000E+03 0.  0.
   -2000013    1    1    2    0    0 -0.42939682023E+03 -0.22318477312E+03  0.51062507628E+03  0.11821298747E+04  0.95000000000E+03 0.  0.
<mgrwt>
<rscale>  0 0.21330875E+04</rscale>
<asrwt>0</asrwt>
<pdfrwt beam="2">  1        2 0.10060330E+00 0.21330875E+04</pdfrwt>
<pdfrwt beam="1">  1       -2 0.26761988E+00 0.21330875E+04</pdfrwt>
<totfact> 0.20557369E+00</totfact>
</mgrwt>
</event>
<event>
 4    1  0.1308745E-008  0.2052655E+04  0.7816531E-02  0.8582391E-01
         -2   -1    0    0    0  501 -0.00000000000E+00  0.00000000000E+00  0.48435760953E+03  0.48435760953E+03  0.00000000000E+00 0. -1.
          2   -1    0    0  501    0  0.00000000000E+00 -0.00000000000E+00 -0.21747312566E+04  0.21747312566E+04  0.00000000000E+00 0.  1.
    2000013    1    1    2    0    0 -0.29926134312E+03  0.62728350505E+02 -0.53494218535E+03  0.11323229836E+04  0.95000000000E+03 0.  0.
   -2000013    1    1    2    0    0  0.29926134312E+03 -0.62728350505E+02 -0.11554314618E+04  0.15267658826E+04  0.95000000000E+03 0.  0.
<mgrwt>
<rscale>  0 0.20526545E+04</rscale>
<asrwt>0</asrwt>
<pdfrwt beam="2">  1        2 0.33457405E+00 0.20526545E+04</pdfrwt>
<pdfrwt beam="1">  1       -2 0.74516554E-01 0.20526545E+04</pdfrwt>
<totfact> 0.79953969E+00</totfact>
</mgrwt>
</event>
<event>
 4    1  0.1308745E-008  0.2604379E+04  0.7816531E-02  0.8366715E-01
          1   -1    0    0  501    0  0.00000000000E+00  0.00000000000E+00  0.19584380399E+04  0.19584380399E+04  0.00000000000E+00 0.  1.
         -1   -1    0    0    0  501 -0.00000000000E+00 -0.00000000000E+00 -0.86584192554E+03  0.86584192554E+03  0.00000000000E+00 0. -1.
    2000013    1    1    2    0    0 -0.74122789643E+03  0.18433772338E+02  0.10813534565E+04  0.16191305989E+04  0.95000000000E+03 0.  0.
   -2000013    1    1    2    0    0  0.74122789643E+03 -0.18433772338E+02  0.11242657898E+02  0.12051493666E+04  0.95000000000E+03 0.  0.
<mgrwt>
<rscale>  0 0.26043792E+04</rscale>
<asrwt>0</asrwt>
<pdfrwt beam="1">  1        1 0.30129816E+00 0.26043792E+04</pdfrwt>
<pdfrwt beam="2">  1       -1 0.13320645E+00 0.26043792E+04</pdfrwt>
<totfact> 0.13344103E+00</totfact>
</mgrwt>
</event>
<event>
 4    1  0.1308745E-008  0.3142510E+04  0.7816531E-02  0.8204167E-01
         -2   -1    0    0    0  501 -0.00000000000E+00  0.00000000000E+00  0.94182293257E+03  0.94182293257E+03  0.00000000000E+00 0. -1.
          2   -1    0    0  501    0  0.00000000000E+00 -0.00000000000E+00 -0.26213451937E+04  0.26213451937E+04  0.00000000000E+00 0.  1.
    2000013    1    1    2    0    0 -0.41227493355E+03  0.46297694450E+03 -0.20725050398E+04  0.23626458499E+04  0.95000000000E+03 0.  0.
   -2000013    1    1    2    0    0  0.41227493355E+03 -0.46297694450E+03  0.39298277861E+03  0.12005222765E+04  0.95000000000E+03 0.  0.
<mgrwt>
<rscale>  0 0.31425105E+04</rscale>
<asrwt>0</asrwt>
<pdfrwt beam="2">  1        2 0.40328387E+00 0.31425105E+04</pdfrwt>
<pdfrwt beam="1">  1       -2 0.14489584E+00 0.31425105E+04</pdfrwt>
<totfact> 0.82092654E-01</totfact>
</mgrwt>
</event>
<event>
 4    1  0.1308745E-008  0.2328806E+04  0.7816531E-02  0.8466649E-01
         -2   -1    0    0    0  501 -0.00000000000E+00  0.00000000000E+00  0.90937838848E+03  0.90937838848E+03  0.00000000000E+00 0. -1.
          2   -1    0    0  501    0  0.00000000000E+00 -0.00000000000E+00 -0.14909463821E+04  0.14909463821E+04  0.00000000000E+00 0.  1.
    2000013    1    1    2    0    0 -0.54952476666E+03 -0.86167592888E+02  0.10025089186E+03  0.11054196328E+04  0.95000000000E+03 0.  0.
   -2000013    1    1    2    0    0  0.54952476666E+03  0.86167592888E+02 -0.68181888545E+03  0.12949051378E+04  0.95000000000E+03 0.  0.
<mgrwt>
<rscale>  0 0.23288061E+04</rscale>
<asrwt>0</asrwt>
<pdfrwt beam="2">  1        2 0.22937637E+00 0.23288061E+04</pdfrwt>
<pdfrwt beam="1">  1       -2 0.13990437E+00 0.23288061E+04</pdfrwt>
<totfact> 0.41807151E+00</totfact>
</mgrwt>
</event>
<event>
 4    1  0.1308745E-008  0.2273151E+04  0.7816531E-02  0.8488583E-01
          2   -1    0    0  501    0  0.00000000000E+00  0.00000000000E+00  0.17828666443E+04  0.17828666443E+04  0.00000000000E+00 0.  1.
         -2   -1    0    0    0  501 -0.00000000000E+00 -0.00000000000E+00 -0.72456592579E+03  0.72456592579E+03  0.00000000000E+00 0. -1.
    2000013    1    1    2    0    0 -0.79611708343E+02 -0.47448123872E+03  0.90921375603E+02  0.10687549609E+04  0.95000000000E+03 0.  0.
   -2000013    1    1    2    0    0  0.79611708343E+02  0.47448123872E+03  0.96737934295E+03  0.14386776092E+04  0.95000000000E+03 0.  0.
<mgrwt>
<rscale>  0 0.22731515E+04</rscale>
<asrwt>0</asrwt>
<pdfrwt beam="1">  1        2 0.27428717E+00 0.22731515E+04</pdfrwt>
<pdfrwt beam="2">  1       -2 0.11147168E+00 0.22731515E+04</pdfrwt>
<totfact> 0.50983651E+00</totfact>
</mgrwt>
</event>
<event>
 4    1  0.1308745E-008  0.2093885E+04  0.7816531E-02  0.8563942E-01
         -2   -1    0    0    0  501 -0.00000000000E+00  0.00000000000E+00  0.43029411232E+03  0.43029411232E+03  0.00000000000E+00 0. -1.
          2   -1    0    0  501    0  0.00000000000E+00 -0.00000000000E+00 -0.25473000838E+04  0.25473000838E+04  0.00000000000E+00 0.  1.
    2000013    1    1    2    0    0  0.42647366958E+03  0.34067606496E+02 -0.12045505893E+04  0.15926338295E+04  0.95000000000E+03 0.  0.
   -2000013    1    1    2    0    0 -0.42647366958E+03 -0.34067606496E+02 -0.91245538215E+03  0.13849603666E+04  0.95000000000E+03 0.  0.
<mgrwt>
<rscale>  0 0.20938846E+04</rscale>
<asrwt>0</asrwt>
<pdfrwt beam="2">  1        2 0.39189233E+00 0.20938846E+04</pdfrwt>
<pdfrwt beam="1">  1       -2 0.66199093E-01 0.20938846E+04</pdfrwt>
<totfact> 0.63252020E+00</totfact>
</mgrwt>
</event>
<event>
 4    1  0.1308745E-008  0.3064493E+04  0.7816531E-02  0.8225551E-01
         -2   -1    0    0    0  501 -0.00000000000E+00  0.00000000000E+00  0.16761265848E+04  0.16761265848E+04  0.00000000000E+00 0. -1.
          2   -1    0    0  501    0  0.00000000000E+00 -0.00000000000E+00 -0.14007171010E+04  0.14007171010E+04  0.00000000000E+00 0.  1.
    2000013    1    1    2    0    0 -0.56324675226E+03  0.69506113731E+03 -0.66860239882E+03  0.14662489748E+04  0.95000000000E+03 0.  0.
   -2000013    1    1    2    0    0  0.56324675226E+03 -0.69506113731E+03  0.94401188266E+03  0.16105947110E+04  0.95000000000E+03 0.  0.
<mgrwt>
<rscale>  0 0.30644929E+04</rscale>
<asrwt>0</asrwt>
<pdfrwt beam="2">  1        2 0.21549494E+00 0.30644929E+04</pdfrwt>
<pdfrwt beam="1">  1       -2 0.25786563E+00 0.30644929E+04</pdfrwt>
<totfact> 0.70780170E-01</totfact>
</mgrwt>
</event>
<event>
 4    1  0.1308745E-008  0.2148254E+04  0.7816531E-02  0.8540280E-01
          2   -1    0    0  501    0  0.00000000000E+00  0.00000000000E+00  0.16992281969E+04  0.16992281969E+04  0.00000000000E+00 0.  1.
         -2   -1    0    0    0  501 -0.00000000000E+00 -0.00000000000E+00 -0.67898430344E+03  0.67898430344E+03  0.00000000000E+00 0. -1.
    2000013    1    1    2    0    0  0.41276154856E+03 -0.25353675399E+03  0.65273867708E+03  0.12502882716E+04  0.95000000000E+03 0.  0.
   -2000013    1    1    2    0    0 -0.41276154856E+03  0.25353675399E+03  0.36750521634E+03  0.11279242287E+04  0.95000000000E+03 0.  0.
<mgrwt>
<rscale>  0 0.21482544E+04</rscale>
<asrwt>0</asrwt>
<pdfrwt beam="1">  1        2 0.26141972E+00 0.21482544E+04</pdfrwt>
<pdfrwt beam="2">  1       -2 0.10445912E+00 0.21482544E+04</pdfrwt>
<totfact> 0.67068446E+00</totfact>
</mgrwt>
</event>
<event>
 4    1  0.1308745E-008  0.2372421E+04  0.7816531E-02  0.8449901E-01
         -2   -1    0    0    0  501 -0.00000000000E+00  0.00000000000E+00  0.12952305208E+04  0.12952305208E+04  0.00000000000E+00 0. -1.
          2   -1    0    0  501    0  0.00000000000E+00 -0.00000000000E+00 -0.10863669166E+04  0.10863669166E+04  0.00000000000E+00 0.  1.
    2000013    1    1    2    0    0  0.31533411697E+03 -0.53106656475E+03 -0.24782182575E+03  0.11599064440E+04  0.95000000000E+03 0.  0.
   -2000013    1    1    2    0    0 -0.31533411697E+03  0.53106656475E+03  0.45668542993E+03  0.12216909934E+04  0.95000000000E+03 0.  0.
<mgrwt>
<rscale>  0 0.23724212E+04</rscale>
<asrwt>0</asrwt>
<pdfrwt beam="2">  1        2 0.16713337E+00 0.23724212E+04</pdfrwt>
<pdfrwt beam="1">  1       -2 0.19926623E+00 0.23724212E+04</pdfrwt>
<totfact> 0.26921510E+00</totfact>
</mgrwt>
</event>
<event>
 4    1  0.1308745E-008  0.3687162E+04  0.7816531E-02  0.8070813E-01
          2   -1    0    0  501    0  0.00000000000E+00  0.00000000000E+00  0.17818452650E+04  0.17818452650E+04  0.00000000000E+00 0.  1.
         -2   -1    0    0    0  501 -0.00000000000E+00 -0.00000000000E+00 -0.19074552149E+04  0.19074552149E+04  0.00000000000E+00 0. -1.
    2000013    1    1    2    0    0 -0.49406978102E+02 -0.14786256825E+04  0.49205714406E+03  0.18257587988E+04  0.95000000000E+03 0.  0.
   -2000013    1    1    2    0    0  0.49406978102E+02  0.14786256825E+04 -0.61766709386E+03  0.18635416811E+04  0.95000000000E+03 0.  0.
<mgrwt>
<rscale>  0 0.36871615E+04</rscale>
<asrwt>0</asrwt>
<pdfrwt beam="1">  1        2 0.27413004E+00 0.36871615E+04</pdfrwt>
<pdfrwt beam="2">  1       -2 0.29345465E+00 0.36871615E+04</pdfrwt>
<totfact> 0.24908593E-01</totfact>
</mgrwt>
</event>
<event>
 4    1  0.1308745E-008  0.3098438E+04  0.7816531E-02  0.8216167E-01
         -2   -1    0    0    0  501 -0.00000000000E+00  0.00000000000E+00  0.17636290128E+04  0.17636290128E+04  0.00000000000E+00 0. -1.
          2   -1    0    0  501    0  0.00000000000E+00 -0.00000000000E+00 -0.13608751582E+04  0.13608751582E+04  0.00000000000E+00 0.  1.
    2000013    1    1    2    0    0 -0.90428005365E+03  0.71374245145E+03 -0.21492564378E+03  0.15085899823E+04  0.95000000000E+03 0.  0.
   -2000013    1    1    2    0    0  0.90428005365E+03 -0.71374245145E+03  0.61767949842E+03  0.16159141887E+04  0.95000000000E+03 0.  0.
<mgrwt>
<rscale>  0 0.30984376E+04</rscale>
<asrwt>0</asrwt>
<pdfrwt beam="2">  1        2 0.20936541E+00 0.30984376E+04</pdfrwt>
<pdfrwt beam="1">  1       -2 0.27132754E+00 0.30984376E+04</pdfrwt>
<totfact> 0.61557649E-01</totfact>
</mgrwt>
</event>
<event>
 4    1  0.1308745E-008  0.2092226E+04  0.7816531E-02  0.8564676E-01
         -1   -1    0    0    0  501 -0.00000000000E+00  0.00000000000E+00  0.10563906722E+04  0.10563906722E+04  0.00000000000E+00 0. -1.
          1   -1    0    0  501    0  0.00000000000E+00 -0.00000000000E+00 -0.10359354980E+04  0.10359354980E+04  0.00000000000E+00 0.  1.
    2000013    1    1    2    0    0 -0.16865373127E+03  0.30824979766E+03 -0.25130083476E+03  0.10436063091E+04  0.95000000000E+03 0.  0.
   -2000013    1    1    2    0    0  0.16865373127E+03 -0.30824979766E+03  0.27175600897E+03  0.10487198612E+04  0.95000000000E+03 0.  0.
<mgrwt>
<rscale>  0 0.20922262E+04</rscale>
<asrwt>0</asrwt>
<pdfrwt beam="2">  1        1 0.15937469E+00 0.20922262E+04</pdfrwt>
<pdfrwt beam="1">  1       -1 0.16252164E+00 0.20922262E+04</pdfrwt>
<totfact> 0.36524077E+00</totfact>
</mgrwt>
</event>
<event>
 4    1  0.1308745E-008  0.2173392E+04  0.7816531E-02  0.8529585E-01
         -2   -1    0    0    0  501 -0.00000000000E+00  0.00000000000E+00  0.50130959209E+03  0.50130959209E+03  0.00000000000E+00 0. -1.
          2   -1    0    0  501    0  0.00000000000E+00 -0.00000000000E+00 -0.23556455340E+04  0.23556455340E+04  0.00000000000E+00 0.  1.
    2000013    1    1    2    0    0 -0.29167453791E+03 -0.30134541899E+03 -0.50626741790E+03  0.11552877546E+04  0.95000000000E+03 0.  0.
   -2000013    1    1    2    0    0  0.29167453791E+03  0.30134541899E+03 -0.13480685240E+04  0.17016673715E+04  0.95000000000E+03 0.  0.
<mgrwt>
<rscale>  0 0.21733915E+04</rscale>
<asrwt>0</asrwt>
<pdfrwt beam="2">  1        2 0.36240700E+00 0.21733915E+04</pdfrwt>
<pdfrwt beam="1">  1       -2 0.77124553E-01 0.21733915E+04</pdfrwt>
<totfact> 0.57932139E+00</totfact>
</mgrwt>
</event>
<event>
 4    1  0.1308745E-008  0.3034687E+04  0.7816531E-02  0.8233895E-01
          2   -1    0    0  501    0  0.00000000000E+00  0.00000000000E+00  0.27326198053E+04  0.27326198053E+04  0.00000000000E+00 0.  1.
         -2   -1    0    0    0  501 -0.00000000000E+00 -0.00000000000E+00 -0.84253617021E+03  0.84253617021E+03  0.00000000000E+00 0. -1.
    2000013    1    1    2    0    0 -0.78973396867E+03 -0.78944777971E+03  0.14057418169E+04  0.20311370200E+04  0.95000000000E+03 0.  0.
   -2000013    1    1    2    0    0  0.78973396867E+03  0.78944777971E+03  0.48434181819E+03  0.15440189555E+04  0.95000000000E+03 0.  0.
<mgrwt>
<rscale>  0 0.30346868E+04</rscale>
<asrwt>0</asrwt>
<pdfrwt beam="1">  1        2 0.42040304E+00 0.30346868E+04</pdfrwt>
<pdfrwt beam="2">  1       -2 0.12962095E+00 0.30346868E+04</pdfrwt>
<totfact> 0.94782529E-01</totfact>
</mgrwt>
</event>
<event>
 4    1  0.1308745E-008  0.2279593E+04  0.7816531E-02  0.8486011E-01
         -2   -1    0    0    0  501 -0.00000000000E+00  0.00000000000E+00  0.51350913444E+03  0.51350913444E+03  0.00000000000E+00 0. -1.
          2   -1    0    0  501    0  0.00000000000E+00 -0.00000000000E+00 -0.25299183320E+04  0.25299183320E+04  0.00000000000E+00 0.  1.
    2000013    1    1    2    0    0 -0.22794306345E+03  0.42986484945E+03 -0.15420581956E+04  0.18754160358E+04  0.95000000000E+03 0.  0.
   -2000013    1    1    2    0    0  0.22794306345E+03 -0.42986484945E+03 -0.47435100203E+03  0.11680114306E+04  0.95000000000E+03 0.  0.
<mgrwt>
<rscale>  0 0.22795931E+04</rscale>
<asrwt>0</asrwt>
<pdfrwt beam="2">  1        2 0.38921820E+00 0.22795931E+04</pdfrwt>
<pdfrwt beam="1">  1       -2 0.79001406E-01 0.22795931E+04</pdfrwt>
<totfact> 0.43186689E+00</totfact>
</mgrwt>
</event>
<event>
 4    1  0.1308745E-008  0.2086835E+04  0.7816531E-02  0.8567065E-01
         -2   -1    0    0    0  501 -0.00000000000E+00  0.00000000000E+00  0.39832183991E+03  0.39832183991E+03  0.00000000000E+00 0. -1.
          2   -1    0    0  501    0  0.00000000000E+00 -0.00000000000E+00 -0.27332681083E+04  0.27332681083E+04  0.00000000000E+00 0.  1.
    2000013    1    1    2    0    0  0.23954858310E+03 -0.23698254340E+03 -0.76292274667E+03  0.12641579676E+04  0.95000000000E+03 0.  0.
   -2000013    1    1    2    0    0 -0.23954858310E+03  0.23698254340E+03 -0.15720235217E+04  0.18674319806E+04  0.95000000000E+03 0.  0.
<mgrwt>
<rscale>  0 0.20868353E+04</rscale>
<asrwt>0</asrwt>
<pdfrwt beam="2">  1        2 0.42050278E+00 0.20868353E+04</pdfrwt>
<pdfrwt beam="1">  1       -2 0.61280284E-01 0.20868353E+04</pdfrwt>
<totfact> 0.58006364E+00</totfact>
</mgrwt>
</event>
<event>
 4    1  0.1308745E-008  0.3170167E+04  0.7816531E-02  0.8196741E-01
          2   -1    0    0  501    0  0.00000000000E+00  0.00000000000E+00  0.80425573623E+03  0.80425573623E+03  0.00000000000E+00 0. -1.
         -2   -1    0    0    0  501 -0.00000000000E+00 -0.00000000000E+00 -0.31239931764E+04  0.31239931764E+04  0.00000000000E+00 0.  1.
    2000013    1    1    2    0    0  0.70534020408E+02  0.12570845000E+04 -0.96491554663E+03  0.18489993241E+04  0.95000000000E+03 0.  0.
   -2000013    1    1    2    0    0 -0.70534020408E+02 -0.12570845000E+04 -0.13548218935E+04  0.20792495885E+04  0.95000000000E+03 0.  0.
<mgrwt>
<rscale>  0 0.31701668E+04</rscale>
<asrwt>0</asrwt>
<pdfrwt beam="1">  1        2 0.12373165E+00 0.31701668E+04</pdfrwt>
<pdfrwt beam="2">  1       -2 0.48061433E+00 0.31701668E+04</pdfrwt>
<totfact> 0.63047644E-02</totfact>
</mgrwt>
</event>
<event>
 4    1  0.1308745E-008  0.2248856E+04  0.7816531E-02  0.8498364E-01
          2   -1    0    0  501    0  0.00000000000E+00  0.00000000000E+00  0.12942801305E+04  0.12942801305E+04  0.00000000000E+00 0.  1.
         -2   -1    0    0    0  501 -0.00000000000E+00 -0.00000000000E+00 -0.97686563883E+03  0.97686563883E+03  0.00000000000E+00 0. -1.
    2000013    1    1    2    0    0  0.54111586127E+03 -0.15998150011E+03 -0.51774782561E+02  0.11061559943E+04  0.95000000000E+03 0.  0.
   -2000013    1    1    2    0    0 -0.54111586127E+03  0.15998150011E+03  0.36918927428E+03  0.11649897750E+04  0.95000000000E+03 0.  0.
<mgrwt>
<rscale>  0 0.22488555E+04</rscale>
<asrwt>0</asrwt>
<pdfrwt beam="1">  1        2 0.19912002E+00 0.22488555E+04</pdfrwt>
<pdfrwt beam="2">  1       -2 0.15028702E+00 0.22488555E+04</pdfrwt>
<totfact> 0.45217373E+00</totfact>
</mgrwt>
</event>
<event>
 4    1  0.1308745E-008  0.2331243E+04  0.7816531E-02  0.8465703E-01
          2   -1    0    0  501    0  0.00000000000E+00  0.00000000000E+00  0.29572804924E+04  0.29572804924E+04  0.00000000000E+00 0. -1.
         -2   -1    0    0    0  501 -0.00000000000E+00 -0.00000000000E+00 -0.45943349197E+03  0.45943349197E+03  0.00000000000E+00 0.  1.
    2000013    1    1    2    0    0 -0.47172219752E+03 -0.37648215311E+03  0.80458938657E+03  0.13835189642E+04  0.95000000000E+03 0.  0.
   -2000013    1    1    2    0    0  0.47172219752E+03  0.37648215311E+03  0.16932576138E+04  0.20331950202E+04  0.95000000000E+03 0.  0.
<mgrwt>
<rscale>  0 0.23312432E+04</rscale>
<asrwt>0</asrwt>
<pdfrwt beam="1">  1        2 0.45496622E+00 0.23312432E+04</pdfrwt>
<pdfrwt beam="2">  1       -2 0.70682077E-01 0.23312432E+04</pdfrwt>
<totfact> 0.30489156E+00</totfact>
</mgrwt>
</event>
<event>
 4    1  0.1308745E-008  0.2061032E+04  0.7816531E-02  0.8578606E-01
         -2   -1    0    0    0  501 -0.00000000000E+00  0.00000000000E+00  0.70107499480E+03  0.70107499480E+03  0.00000000000E+00 0. -1.
          2   -1    0    0  501    0  0.00000000000E+00 -0.00000000000E+00 -0.15147637204E+04  0.15147637204E+04  0.00000000000E+00 0.  1.
    2000013    1    1    2    0    0  0.38377750018E+03 -0.28192343339E+02 -0.52154917355E+03  0.11500406594E+04  0.95000000000E+03 0.  0.
   -2000013    1    1    2    0    0 -0.38377750018E+03  0.28192343339E+02 -0.29213955207E+03  0.10657980558E+04  0.95000000000E+03 0.  0.
<mgrwt>
<rscale>  0 0.20610317E+04</rscale>
<asrwt>0</asrwt>
<pdfrwt beam="2">  1        2 0.23304057E+00 0.20610317E+04</pdfrwt>
<pdfrwt beam="1">  1       -2 0.10785769E+00 0.20610317E+04</pdfrwt>
<totfact> 0.79332525E+00</totfact>
</mgrwt>
</event>
<event>
 4    1  0.1308745E-008  0.2528966E+04  0.7816531E-02  0.8392738E-01
         -2   -1    0    0    0  501 -0.00000000000E+00  0.00000000000E+00  0.15966084250E+04  0.15966084250E+04  0.00000000000E+00 0. -1.
          2   -1    0    0  501    0  0.00000000000E+00 -0.00000000000E+00 -0.10014457733E+04  0.10014457733E+04  0.00000000000E+00 0.  1.
    2000013    1    1    2    0    0  0.83272836016E+03 -0.18126852753E+02  0.35048230753E+03  0.13111456641E+04  0.95000000000E+03 0.  0.
   -2000013    1    1    2    0    0 -0.83272836016E+03  0.18126852753E+02  0.24468034407E+03  0.12869085342E+04  0.95000000000E+03 0.  0.
<mgrwt>
<rscale>  0 0.25289656E+04</rscale>
<asrwt>0</asrwt>
<pdfrwt beam="2">  1        2 0.15406858E+00 0.25289656E+04</pdfrwt>
<pdfrwt beam="1">  1       -2 0.24563206E+00 0.25289656E+04</pdfrwt>
<totfact> 0.15288266E+00</totfact>
</mgrwt>
</event>
<event>
 4    1  0.1308745E-008  0.2389445E+04  0.7816531E-02  0.8443466E-01
          2   -1    0    0  501    0  0.00000000000E+00  0.00000000000E+00  0.18413687333E+04  0.18413687333E+04  0.00000000000E+00 0.  1.
         -2   -1    0    0    0  501 -0.00000000000E+00 -0.00000000000E+00 -0.77516320106E+03  0.77516320106E+03  0.00000000000E+00 0. -1.
    2000013    1    1    2    0    0  0.67322075303E+03  0.22679069097E+03  0.68874103849E+03  0.13716867055E+04  0.95000000000E+03 0.  0.
   -2000013    1    1    2    0    0 -0.67322075303E+03 -0.22679069097E+03  0.37746449372E+03  0.12448452289E+04  0.95000000000E+03 0.  0.
<mgrwt>
<rscale>  0 0.23894445E+04</rscale>
<asrwt>0</asrwt>
<pdfrwt beam="1">  1        2 0.28328750E+00 0.23894445E+04</pdfrwt>
<pdfrwt beam="2">  1       -2 0.11925588E+00 0.23894445E+04</pdfrwt>
<totfact> 0.39725752E+00</totfact>
</mgrwt>
</event>
<event>
 4    1  0.1308745E-008  0.2809041E+04  0.7816531E-02  0.8300467E-01
         -2   -1    0    0    0  501 -0.00000000000E+00  0.00000000000E+00  0.70610600147E+03  0.70610600147E+03  0.00000000000E+00 0. -1.
          2   -1    0    0  501    0  0.00000000000E+00 -0.00000000000E+00 -0.27937410765E+04  0.27937410765E+04  0.00000000000E+00 0.  1.
    2000013    1    1    2    0    0  0.67715119569E+02  0.86184219868E+03 -0.17517165073E+04  0.21721804794E+04  0.95000000000E+03 0.  0.
   -2000013    1    1    2    0    0 -0.67715119569E+02 -0.86184219868E+03 -0.33591856765E+03  0.13276665986E+04  0.95000000000E+03 0.  0.
<mgrwt>
<rscale>  0 0.28090406E+04</rscale>
<asrwt>0</asrwt>
<pdfrwt beam="2">  1        2 0.42980632E+00 0.28090406E+04</pdfrwt>
<pdfrwt beam="1">  1       -2 0.10863169E+00 0.28090406E+04</pdfrwt>
<totfact> 0.13731018E+00</totfact>
</mgrwt>
</event>
<event>
 4    1  0.1308745E-008  0.2359587E+04  0.7816531E-02  0.8454790E-01
         -2   -1    0    0    0  501 -0.00000000000E+00  0.00000000000E+00  0.83090082525E+03  0.83090082525E+03  0.00000000000E+00 0. -1.
          2   -1    0    0  501    0  0.00000000000E+00 -0.00000000000E+00 -0.16751853541E+04  0.16751853541E+04  0.00000000000E+00 0.  1.
    2000013    1    1    2    0    0 -0.63136866724E+02 -0.49953165755E+03  0.93702606675E+02  0.10792582264E+04  0.95000000000E+03 0.  0.
   -2000013    1    1    2    0    0  0.63136866724E+02  0.49953165755E+03 -0.93798713553E+03  0.14268279529E+04  0.95000000000E+03 0.  0.
<mgrwt>
<rscale>  0 0.23595872E+04</rscale>
<asrwt>0</asrwt>
<pdfrwt beam="2">  1        2 0.25772082E+00 0.23595872E+04</pdfrwt>
<pdfrwt beam="1">  1       -2 0.12783090E+00 0.23595872E+04</pdfrwt>
<totfact> 0.41399960E+00</totfact>
</mgrwt>
</event>
<event>
 4    1  0.1308745E-008  0.2014519E+04  0.7816531E-02  0.8599863E-01
          2   -1    0    0  501    0  0.00000000000E+00  0.00000000000E+00  0.17361295070E+04  0.17361295070E+04  0.00000000000E+00 0.  1.
         -2   -1    0    0    0  501 -0.00000000000E+00 -0.00000000000E+00 -0.58438706866E+03  0.58438706866E+03  0.00000000000E+00 0. -1.
    2000013    1    1    2    0    0 -0.25312401103E+03 -0.20906976994E+03  0.50042686080E+03  0.11228129749E+04  0.95000000000E+03 0.  0.
   -2000013    1    1    2    0    0  0.25312401103E+03  0.20906976994E+03  0.65131557755E+03  0.11977036007E+04  0.95000000000E+03 0.  0.
<mgrwt>
<rscale>  0 0.20145189E+04</rscale>
<asrwt>0</asrwt>
<pdfrwt beam="1">  1        2 0.26709685E+00 0.20145189E+04</pdfrwt>
<pdfrwt beam="2">  1       -2 0.89905704E-01 0.20145189E+04</pdfrwt>
<totfact> 0.92046392E+00</totfact>
</mgrwt>
</event>
<event>
 4    1  0.1308745E-008  0.2299375E+04  0.7816531E-02  0.8478167E-01
         -2   -1    0    0    0  501 -0.00000000000E+00  0.00000000000E+00  0.50766016677E+03  0.50766016677E+03  0.00000000000E+00 0. -1.
          2   -1    0    0  501    0  0.00000000000E+00 -0.00000000000E+00 -0.26036745396E+04  0.26036745396E+04  0.00000000000E+00 0.  1.
    2000013    1    1    2    0    0  0.57277423736E+03  0.27778100463E+03 -0.88762238063E+03  0.14476208427E+04  0.95000000000E+03 0.  0.
   -2000013    1    1    2    0    0 -0.57277423736E+03 -0.27778100463E+03 -0.12083919922E+04  0.16637138637E+04  0.95000000000E+03 0.  0.
<mgrwt>
<rscale>  0 0.22993754E+04</rscale>
<asrwt>0</asrwt>
<pdfrwt beam="2">  1        2 0.40056531E+00 0.22993754E+04</pdfrwt>
<pdfrwt beam="1">  1       -2 0.78101565E-01 0.22993754E+04</pdfrwt>
<totfact> 0.40056384E+00</totfact>
</mgrwt>
</event>
<event>
 4    1  0.1308745E-008  0.2670981E+04  0.7816531E-02  0.8344482E-01
         -2   -1    0    0    0  501 -0.00000000000E+00  0.00000000000E+00  0.12453762430E+04  0.12453762430E+04  0.00000000000E+00 0. -1.
          2   -1    0    0  501    0  0.00000000000E+00 -0.00000000000E+00 -0.14321257142E+04  0.14321257142E+04  0.00000000000E+00 0.  1.
    2000013    1    1    2    0    0  0.92327847313E+02 -0.86339526067E+03  0.26394957997E+03  0.13138284471E+04  0.95000000000E+03 0.  0.
   -2000013    1    1    2    0    0 -0.92327847313E+02  0.86339526067E+03 -0.45069905115E+03  0.13636735101E+04  0.95000000000E+03 0.  0.
<mgrwt>
<rscale>  0 0.26709813E+04</rscale>
<asrwt>0</asrwt>
<pdfrwt beam="2">  1        2 0.22032703E+00 0.26709813E+04</pdfrwt>
<pdfrwt beam="1">  1       -2 0.19159635E+00 0.26709813E+04</pdfrwt>
<totfact> 0.18449568E+00</totfact>
</mgrwt>
</event>
<event>
 4    1  0.1308745E-008  0.2114365E+04  0.7816531E-02  0.8554942E-01
         -2   -1    0    0    0  501 -0.00000000000E+00  0.00000000000E+00  0.64645333730E+03  0.64645333730E+03  0.00000000000E+00 0. -1.
          2   -1    0    0  501    0  0.00000000000E+00 -0.00000000000E+00 -0.17288716392E+04  0.17288716392E+04  0.00000000000E+00 0.  1.
    2000013    1    1    2    0    0 -0.80354187587E+02  0.44657411938E+03 -0.64925412807E+03  0.12368977979E+04  0.95000000000E+03 0.  0.
   -2000013    1    1    2    0    0  0.80354187587E+02 -0.44657411938E+03 -0.43316417385E+03  0.11384271786E+04  0.95000000000E+03 0.  0.
<mgrwt>
<rscale>  0 0.21143650E+04</rscale>
<asrwt>0</asrwt>
<pdfrwt beam="2">  1        2 0.26598026E+00 0.21143650E+04</pdfrwt>
<pdfrwt beam="1">  1       -2 0.99454358E-01 0.21143650E+04</pdfrwt>
<totfact> 0.72795451E+00</totfact>
</mgrwt>
</event>
<event>
 4    1  0.1308745E-008  0.2260955E+04  0.7816531E-02  0.8493477E-01
         -1   -1    0    0    0  501 -0.00000000000E+00  0.00000000000E+00  0.11884466942E+04  0.11884466942E+04  0.00000000000E+00 0.  1.
          1   -1    0    0  501    0  0.00000000000E+00 -0.00000000000E+00 -0.10753361170E+04  0.10753361170E+04  0.00000000000E+00 0. -1.
    2000013    1    1    2    0    0 -0.22491907294E+03 -0.53782646707E+03  0.24556041751E+03  0.11413351027E+04  0.95000000000E+03 0.  0.
   -2000013    1    1    2    0    0  0.22491907294E+03  0.53782646707E+03 -0.13244984034E+03  0.11224477085E+04  0.95000000000E+03 0.  0.
<mgrwt>
<rscale>  0 0.22609552E+04</rscale>
<asrwt>0</asrwt>
<pdfrwt beam="2">  1        1 0.16543633E+00 0.22609552E+04</pdfrwt>
<pdfrwt beam="1">  1       -1 0.18283795E+00 0.22609552E+04</pdfrwt>
<totfact> 0.23839530E+00</totfact>
</mgrwt>
</event>
<event>
 4    1  0.1308745E-008  0.3364566E+04  0.7816531E-02  0.8146658E-01
          2   -1    0    0  501    0  0.00000000000E+00  0.00000000000E+00  0.26498770434E+04  0.26498770434E+04  0.00000000000E+00 0.  1.
         -2   -1    0    0    0  501 -0.00000000000E+00 -0.00000000000E+00 -0.10680028034E+04  0.10680028034E+04  0.00000000000E+00 0. -1.
    2000013    1    1    2    0    0  0.12332716162E+04 -0.63760868408E+03  0.78153493492E+03  0.18549395052E+04  0.95000000000E+03 0.  0.
   -2000013    1    1    2    0    0 -0.12332716162E+04  0.63760868408E+03  0.80033930501E+03  0.18629403416E+04  0.95000000000E+03 0.  0.
<mgrwt>
<rscale>  0 0.33645660E+04</rscale>
<asrwt>0</asrwt>
<pdfrwt beam="1">  1        2 0.40767339E+00 0.33645660E+04</pdfrwt>
<pdfrwt beam="2">  1       -2 0.16430812E+00 0.33645660E+04</pdfrwt>
<totfact> 0.55324462E-01</totfact>
</mgrwt>
</event>
<event>
 4    1  0.1308745E-008  0.3569337E+04  0.7816531E-02  0.8097552E-01
          2   -1    0    0  501    0  0.00000000000E+00  0.00000000000E+00  0.11899019327E+04  0.11899019327E+04  0.00000000000E+00 0.  1.
         -2   -1    0    0    0  501 -0.00000000000E+00 -0.00000000000E+00 -0.26767257704E+04  0.26767257704E+04  0.00000000000E+00 0. -1.
    2000013    1    1    2    0    0 -0.12949918526E+04  0.77367504622E+03 -0.65300946708E+03  0.18985516426E+04  0.95000000000E+03 0.  0.
   -2000013    1    1    2    0    0  0.12949918526E+04 -0.77367504622E+03 -0.83381437069E+03  0.19680760606E+04  0.95000000000E+03 0.  0.
<mgrwt>
<rscale>  0 0.35693367E+04</rscale>
<asrwt>0</asrwt>
<pdfrwt beam="1">  1        2 0.18306184E+00 0.35693367E+04</pdfrwt>
<pdfrwt beam="2">  1       -2 0.41180396E+00 0.35693367E+04</pdfrwt>
<totfact> 0.97364624E-02</totfact>
</mgrwt>
</event>
<event>
 4    1  0.1308745E-008  0.1956314E+04  0.7816531E-02  0.8627322E-01
          2   -1    0    0  501    0  0.00000000000E+00  0.00000000000E+00  0.85331628573E+03  0.85331628573E+03  0.00000000000E+00 0.  1.
         -2   -1    0    0    0  501 -0.00000000000E+00 -0.00000000000E+00 -0.11212618630E+04  0.11212618630E+04  0.00000000000E+00 0. -1.
    2000013    1    1    2    0    0 -0.12498572530E+03 -0.19646906764E+03 -0.12555937118E+03  0.98614739353E+03  0.95000000000E+03 0.  0.
   -2000013    1    1    2    0    0  0.12498572530E+03  0.19646906764E+03 -0.14238620605E+03  0.98843075516E+03  0.95000000000E+03 0.  0.
<mgrwt>
<rscale>  0 0.19563139E+04</rscale>
<asrwt>0</asrwt>
<pdfrwt beam="1">  1        2 0.13127943E+00 0.19563139E+04</pdfrwt>
<pdfrwt beam="2">  1       -2 0.17250182E+00 0.19563139E+04</pdfrwt>
<totfact> 0.60198280E+00</totfact>
</mgrwt>
</event>
<event>
 4    1  0.1308745E-008  0.2914300E+04  0.7816531E-02  0.8268636E-01
          2   -1    0    0  501    0  0.00000000000E+00  0.00000000000E+00  0.16450186839E+04  0.16450186839E+04  0.00000000000E+00 0.  1.
         -2   -1    0    0    0  501 -0.00000000000E+00 -0.00000000000E+00 -0.12907364115E+04  0.12907364115E+04  0.00000000000E+00 0. -1.
    2000013    1    1    2    0    0  0.81273237408E+03 -0.53424422249E+02 -0.57494591461E+03  0.13771168743E+04  0.95000000000E+03 0.  0.
   -2000013    1    1    2    0    0 -0.81273237408E+03  0.53424422249E+02  0.92922818705E+03  0.15586382211E+04  0.95000000000E+03 0.  0.
<mgrwt>
<rscale>  0 0.29142996E+04</rscale>
<asrwt>0</asrwt>
<pdfrwt beam="1">  1        2 0.25307980E+00 0.29142996E+04</pdfrwt>
<pdfrwt beam="2">  1       -2 0.19857483E+00 0.29142996E+04</pdfrwt>
<totfact> 0.12331043E+00</totfact>
</mgrwt>
</event>
<event>
 4    1  0.1308745E-008  0.2397773E+04  0.7816531E-02  0.8440338E-01
          2   -1    0    0  501    0  0.00000000000E+00  0.00000000000E+00  0.19831090628E+04  0.19831090628E+04  0.00000000000E+00 0.  1.
         -2   -1    0    0    0  501 -0.00000000000E+00 -0.00000000000E+00 -0.72478586391E+03  0.72478586391E+03  0.00000000000E+00 0. -1.
    2000013    1    1    2    0    0  0.60377271435E+03  0.25033525345E+03  0.25867668878E+03  0.11817879924E+04  0.95000000000E+03 0.  0.
   -2000013    1    1    2    0    0 -0.60377271435E+03 -0.25033525345E+03  0.99964651012E+03  0.15261069343E+04  0.95000000000E+03 0.  0.
<mgrwt>
<rscale>  0 0.23977735E+04</rscale>
<asrwt>0</asrwt>
<pdfrwt beam="1">  1        2 0.30509370E+00 0.23977735E+04</pdfrwt>
<pdfrwt beam="2">  1       -2 0.11150552E+00 0.23977735E+04</pdfrwt>
<totfact> 0.39034214E+00</totfact>
</mgrwt>
</event>
<event>
 4    1  0.1308745E-008  0.4559889E+04  0.7816531E-02  0.7900235E-01
          2   -1    0    0  501    0  0.00000000000E+00  0.00000000000E+00  0.22468304142E+04  0.22468304142E+04  0.00000000000E+00 0.  1.
         -2   -1    0    0    0  501 -0.00000000000E+00 -0.00000000000E+00 -0.23135469855E+04  0.23135469855E+04  0.00000000000E+00 0. -1.
    2000013    1    1    2    0    0 -0.20479216711E+04 -0.27843544626E+03  0.12202327703E+03  0.22779155272E+04  0.95000000000E+03 0.  0.
   -2000013    1    1    2    0    0  0.20479216711E+04  0.27843544626E+03 -0.18873984831E+03  0.22824618725E+04  0.95000000000E+03 0.  0.
<mgrwt>
<rscale>  0 0.45598894E+04</rscale>
<asrwt>0</asrwt>
<pdfrwt beam="1">  1        2 0.34566621E+00 0.45598894E+04</pdfrwt>
<pdfrwt beam="2">  1       -2 0.35593031E+00 0.45598894E+04</pdfrwt>
<totfact> 0.52292245E-02</totfact>
</mgrwt>
</event>
<event>
 4    1  0.1308745E-008  0.2478110E+04  0.7816531E-02  0.8410826E-01
         -2   -1    0    0    0  501 -0.00000000000E+00  0.00000000000E+00  0.13287094436E+04  0.13287094436E+04  0.00000000000E+00 0. -1.
          2   -1    0    0  501    0  0.00000000000E+00 -0.00000000000E+00 -0.11554503747E+04  0.11554503747E+04  0.00000000000E+00 0.  1.
    2000013    1    1    2    0    0  0.30366029691E+03  0.76874565388E+02 -0.64634521276E+03  0.11909581894E+04  0.95000000000E+03 0.  0.
   -2000013    1    1    2    0    0 -0.30366029691E+03 -0.76874565388E+02  0.81960428167E+03  0.12932016290E+04  0.95000000000E+03 0.  0.
<mgrwt>
<rscale>  0 0.24781104E+04</rscale>
<asrwt>0</asrwt>
<pdfrwt beam="2">  1        2 0.17776159E+00 0.24781104E+04</pdfrwt>
<pdfrwt beam="1">  1       -2 0.20441684E+00 0.24781104E+04</pdfrwt>
<totfact> 0.22400798E+00</totfact>
</mgrwt>
</event>
<event>
 4    1  0.1308745E-008  0.3463869E+04  0.7816531E-02  0.8122406E-01
          2   -1    0    0  501    0  0.00000000000E+00  0.00000000000E+00  0.14169762994E+04  0.14169762994E+04  0.00000000000E+00 0.  1.
         -2   -1    0    0    0  501 -0.00000000000E+00 -0.00000000000E+00 -0.21169005647E+04  0.21169005647E+04  0.00000000000E+00 0. -1.
    2000013    1    1    2    0    0 -0.14112777818E+04 -0.16646774378E+03 -0.65615210306E+02  0.17106203094E+04  0.95000000000E+03 0.  0.
   -2000013    1    1    2    0    0  0.14112777818E+04  0.16646774378E+03 -0.63430905498E+03  0.18232565547E+04  0.95000000000E+03 0.  0.
<mgrwt>
<rscale>  0 0.34638695E+04</rscale>
<asrwt>0</asrwt>
<pdfrwt beam="1">  1        2 0.21799635E+00 0.34638695E+04</pdfrwt>
<pdfrwt beam="2">  1       -2 0.32567701E+00 0.34638695E+04</pdfrwt>
<totfact> 0.25745985E-01</totfact>
</mgrwt>
</event>
<event>
 4    1  0.1308745E-008  0.2252799E+04  0.7816531E-02  0.8496768E-01
          2   -1    0    0  501    0  0.00000000000E+00  0.00000000000E+00  0.82832448789E+03  0.82832448789E+03  0.00000000000E+00 0.  1.
         -2   -1    0    0    0  501 -0.00000000000E+00 -0.00000000000E+00 -0.15317382825E+04  0.15317382825E+04  0.00000000000E+00 0. -1.
    2000013    1    1    2    0    0 -0.90010813614E+02 -0.59826161566E+03 -0.33489862432E+03  0.11750217002E+04  0.95000000000E+03 0.  0.
   -2000013    1    1    2    0    0  0.90010813614E+02  0.59826161566E+03 -0.36851517030E+03  0.11850410702E+04  0.95000000000E+03 0.  0.
<mgrwt>
<rscale>  0 0.22527994E+04</rscale>
<asrwt>0</asrwt>
<pdfrwt beam="1">  1        2 0.12743454E+00 0.22527994E+04</pdfrwt>
<pdfrwt beam="2">  1       -2 0.23565204E+00 0.22527994E+04</pdfrwt>
<totfact> 0.23577221E+00</totfact>
</mgrwt>
</event>
<event>
 4    1  0.1308745E-008  0.2045671E+04  0.7816531E-02  0.8585561E-01
          2   -1    0    0  501    0  0.00000000000E+00  0.00000000000E+00  0.11353383851E+04  0.11353383851E+04  0.00000000000E+00 0.  1.
         -2   -1    0    0    0  501 -0.00000000000E+00 -0.00000000000E+00 -0.92148068780E+03  0.92148068780E+03  0.00000000000E+00 0. -1.
    2000013    1    1    2    0    0  0.22228386024E+03 -0.27784819830E+03 -0.24484071765E+02  0.10147458823E+04  0.95000000000E+03 0.  0.
   -2000013    1    1    2    0    0 -0.22228386024E+03  0.27784819830E+03  0.23834176911E+03  0.10420731907E+04  0.95000000000E+03 0.  0.
<mgrwt>
<rscale>  0 0.20456709E+04</rscale>
<asrwt>0</asrwt>
<pdfrwt beam="1">  1        2 0.17466744E+00 0.20456709E+04</pdfrwt>
<pdfrwt beam="2">  1       -2 0.14176626E+00 0.20456709E+04</pdfrwt>
<totfact> 0.66687004E+00</totfact>
</mgrwt>
</event>
<event>
 4    1  0.1308745E-008  0.2252031E+04  0.7816531E-02  0.8497078E-01
         -2   -1    0    0    0  501 -0.00000000000E+00  0.00000000000E+00  0.57819961764E+03  0.57819961764E+03  0.00000000000E+00 0. -1.
          2   -1    0    0  501    0  0.00000000000E+00 -0.00000000000E+00 -0.21928601193E+04  0.21928601193E+04  0.00000000000E+00 0.  1.
    2000013    1    1    2    0    0  0.44971057432E+03  0.26546544653E+03 -0.43269387879E+03  0.11672341225E+04  0.95000000000E+03 0.  0.
   -2000013    1    1    2    0    0 -0.44971057432E+03 -0.26546544653E+03 -0.11819666229E+04  0.16038256144E+04  0.95000000000E+03 0.  0.
<mgrwt>
<rscale>  0 0.22520310E+04</rscale>
<asrwt>0</asrwt>
<pdfrwt beam="2">  1        2 0.33736310E+00 0.22520310E+04</pdfrwt>
<pdfrwt beam="1">  1       -2 0.88953787E-01 0.22520310E+04</pdfrwt>
<totfact> 0.51494677E+00</totfact>
</mgrwt>
</event>
<event>
 4    1  0.1308745E-008  0.2391925E+04  0.7816531E-02  0.8442533E-01
         -2   -1    0    0    0  501 -0.00000000000E+00  0.00000000000E+00  0.78216253593E+03  0.78216253593E+03  0.00000000000E+00 0. -1.
          2   -1    0    0  501    0  0.00000000000E+00 -0.00000000000E+00 -0.18286822215E+04  0.18286822215E+04  0.00000000000E+00 0.  1.
    2000013    1    1    2    0    0  0.66623988414E+03  0.59555689491E+02 -0.21375107396E+03  0.11813602266E+04  0.95000000000E+03 0.  0.
   -2000013    1    1    2    0    0 -0.66623988414E+03 -0.59555689491E+02 -0.83276861162E+03  0.14294845308E+04  0.95000000000E+03 0.  0.
<mgrwt>
<rscale>  0 0.23919254E+04</rscale>
<asrwt>0</asrwt>
<pdfrwt beam="2">  1        2 0.28133572E+00 0.23919254E+04</pdfrwt>
<pdfrwt beam="1">  1       -2 0.12033270E+00 0.23919254E+04</pdfrwt>
<totfact> 0.39474870E+00</totfact>
</mgrwt>
</event>
<event>
 4    1  0.1308745E-008  0.3313471E+04  0.7816531E-02  0.8159476E-01
         -2   -1    0    0    0  501 -0.00000000000E+00  0.00000000000E+00  0.75890758513E+03  0.75890758513E+03  0.00000000000E+00 0. -1.
          2   -1    0    0  501    0  0.00000000000E+00 -0.00000000000E+00 -0.36167410918E+04  0.36167410918E+04  0.00000000000E+00 0.  1.
    2000013    1    1    2    0    0  0.51457827506E+03  0.11399799195E+04 -0.21251020420E+04  0.26425184403E+04  0.95000000000E+03 0.  0.
   -2000013    1    1    2    0    0 -0.51457827506E+03 -0.11399799195E+04 -0.73273146468E+03  0.17331302367E+04  0.95000000000E+03 0.  0.
<mgrwt>
<rscale>  0 0.33134708E+04</rscale>
<asrwt>0</asrwt>
<pdfrwt beam="2">  1        2 0.55642170E+00 0.33134708E+04</pdfrwt>
<pdfrwt beam="1">  1       -2 0.11675501E+00 0.33134708E+04</pdfrwt>
<totfact> 0.31779774E-01</totfact>
</mgrwt>
</event>
<event>
 4    1  0.1308745E-008  0.2166295E+04  0.7816531E-02  0.8532589E-01
         -2   -1    0    0    0  501 -0.00000000000E+00  0.00000000000E+00  0.55027267619E+03  0.55027267619E+03  0.00000000000E+00 0. -1.
          2   -1    0    0  501    0  0.00000000000E+00 -0.00000000000E+00 -0.21320484650E+04  0.21320484650E+04  0.00000000000E+00 0.  1.
    2000013    1    1    2    0    0 -0.35053322465E+03  0.51090498306E+02 -0.31902827444E+03  0.10629030156E+04  0.95000000000E+03 0.  0.
   -2000013    1    1    2    0    0  0.35053322465E+03 -0.51090498306E+02 -0.12627475144E+04  0.16194181257E+04  0.95000000000E+03 0.  0.
<mgrwt>
<rscale>  0 0.21662945E+04</rscale>
<asrwt>0</asrwt>
<pdfrwt beam="2">  1        2 0.32800745E+00 0.21662945E+04</pdfrwt>
<pdfrwt beam="1">  1       -2 0.84657336E-01 0.21662945E+04</pdfrwt>
<totfact> 0.62835193E+00</totfact>
</mgrwt>
</event>
<event>
 4    1  0.1308745E-008  0.4048177E+04  0.7816531E-02  0.7994898E-01
         -2   -1    0    0    0  501 -0.00000000000E+00  0.00000000000E+00  0.17902998950E+04  0.17902998950E+04  0.00000000000E+00 0. -1.
          2   -1    0    0  501    0  0.00000000000E+00 -0.00000000000E+00 -0.22884068327E+04  0.22884068327E+04  0.00000000000E+00 0.  1.
    2000013    1    1    2    0    0  0.30245412732E+03 -0.12195627000E+04  0.10316039327E+04  0.18829546868E+04  0.95000000000E+03 0.  0.
   -2000013    1    1    2    0    0 -0.30245412732E+03  0.12195627000E+04 -0.15297108704E+04  0.21957520409E+04  0.95000000000E+03 0.  0.
<mgrwt>
<rscale>  0 0.40481771E+04</rscale>
<asrwt>0</asrwt>
<pdfrwt beam="2">  1        2 0.35206259E+00 0.40481771E+04</pdfrwt>
<pdfrwt beam="1">  1       -2 0.27543076E+00 0.40481771E+04</pdfrwt>
<totfact> 0.16242894E-01</totfact>
</mgrwt>
</event>
<event>
 4    1  0.1308745E-008  0.3092974E+04  0.7816531E-02  0.8217669E-01
         -2   -1    0    0    0  501 -0.00000000000E+00  0.00000000000E+00  0.12211495438E+04  0.12211495438E+04  0.00000000000E+00 0. -1.
          2   -1    0    0  501    0  0.00000000000E+00 -0.00000000000E+00 -0.19585006957E+04  0.19585006957E+04  0.00000000000E+00 0.  1.
    2000013    1    1    2    0    0  0.73372984402E+02 -0.11579589463E+04 -0.75724905253E+03  0.16799341189E+04  0.95000000000E+03 0.  0.
   -2000013    1    1    2    0    0 -0.73372984402E+02  0.11579589463E+04  0.19897900666E+02  0.14997161207E+04  0.95000000000E+03 0.  0.
<mgrwt>
<rscale>  0 0.30929741E+04</rscale>
<asrwt>0</asrwt>
<pdfrwt beam="2">  1        2 0.30130780E+00 0.30929741E+04</pdfrwt>
<pdfrwt beam="1">  1       -2 0.18786916E+00 0.30929741E+04</pdfrwt>
<totfact> 0.95903171E-01</totfact>
</mgrwt>
</event>
<event>
 4    1  0.1308745E-008  0.2378335E+04  0.7816531E-02  0.8447660E-01
          2   -1    0    0  501    0  0.00000000000E+00  0.00000000000E+00  0.23781677700E+04  0.23781677700E+04  0.00000000000E+00 0.  1.
         -2   -1    0    0    0  501 -0.00000000000E+00 -0.00000000000E+00 -0.59462537332E+03  0.59462537332E+03  0.00000000000E+00 0. -1.
    2000013    1    1    2    0    0  0.15701440146E+03  0.52865493954E+03  0.14611346908E+04  0.18279891007E+04  0.95000000000E+03 0.  0.
   -2000013    1    1    2    0    0 -0.15701440146E+03 -0.52865493954E+03  0.32240770587E+03  0.11448040427E+04  0.95000000000E+03 0.  0.
<mgrwt>
<rscale>  0 0.23783346E+04</rscale>
<asrwt>0</asrwt>
<pdfrwt beam="1">  1        2 0.36587196E+00 0.23783346E+04</pdfrwt>
<pdfrwt beam="2">  1       -2 0.91480828E-01 0.23783346E+04</pdfrwt>
<totfact> 0.37503813E+00</totfact>
</mgrwt>
</event>
<event>
 4    1  0.1308745E-008  0.3581709E+04  0.7816531E-02  0.8094694E-01
          2   -1    0    0  501    0  0.00000000000E+00  0.00000000000E+00  0.24103537499E+04  0.24103537499E+04  0.00000000000E+00 0.  1.
         -2   -1    0    0    0  501 -0.00000000000E+00 -0.00000000000E+00 -0.13305766796E+04  0.13305766796E+04  0.00000000000E+00 0. -1.
    2000013    1    1    2    0    0  0.86630732475E+03 -0.80008598058E+03  0.15384403177E+04  0.21586858429E+04  0.95000000000E+03 0.  0.
   -2000013    1    1    2    0    0 -0.86630732475E+03  0.80008598058E+03 -0.45866324734E+03  0.15822445866E+04  0.95000000000E+03 0.  0.
<mgrwt>
<rscale>  0 0.35817094E+04</rscale>
<asrwt>0</asrwt>
<pdfrwt beam="1">  1        2 0.37082365E+00 0.35817094E+04</pdfrwt>
<pdfrwt beam="2">  1       -2 0.20470411E+00 0.35817094E+04</pdfrwt>
<totfact> 0.39660226E-01</totfact>
</mgrwt>
</event>
<event>
 4    1  0.1308745E-008  0.2422245E+04  0.7816531E-02  0.8431222E-01
          2   -1    0    0  501    0  0.00000000000E+00  0.00000000000E+00  0.59607889275E+03  0.59607889275E+03  0.00000000000E+00 0. -1.
         -2   -1    0    0    0  501 -0.00000000000E+00 -0.00000000000E+00 -0.24607769243E+04  0.24607769243E+04  0.00000000000E+00 0.  1.
    2000013    1    1    2    0    0 -0.24851151616E+03  0.51257944198E+03 -0.15503669042E+04  0.19054220519E+04  0.95000000000E+03 0.  0.
   -2000013    1    1    2    0    0  0.24851151616E+03 -0.51257944198E+03 -0.31433112733E+03  0.11514337652E+04  0.95000000000E+03 0.  0.
<mgrwt>
<rscale>  0 0.24222446E+04</rscale>
<asrwt>0</asrwt>
<pdfrwt beam="1">  1        2 0.91704445E-01 0.24222446E+04</pdfrwt>
<pdfrwt beam="2">  1       -2 0.37858106E+00 0.24222446E+04</pdfrwt>
<totfact> 0.45918485E-01</totfact>
</mgrwt>
</event>
<event>
 4    1  0.1308745E-008  0.2097531E+04  0.7816531E-02  0.8562332E-01
         -1   -1    0    0    0  501 -0.00000000000E+00  0.00000000000E+00  0.50393101272E+03  0.50393101272E+03  0.00000000000E+00 0. -1.
          1   -1    0    0  501    0  0.00000000000E+00 -0.00000000000E+00 -0.21826575355E+04  0.21826575355E+04  0.00000000000E+00 0.  1.
    2000013    1    1    2    0    0 -0.20730022782E+03  0.39259772747E+03 -0.81708771465E+03  0.13293753020E+04  0.95000000000E+03 0.  0.
   -2000013    1    1    2    0    0  0.20730022782E+03 -0.39259772747E+03 -0.86163880808E+03  0.13572132462E+04  0.95000000000E+03 0.  0.
<mgrwt>
<rscale>  0 0.20975308E+04</rscale>
<asrwt>0</asrwt>
<pdfrwt beam="2">  1        1 0.33579347E+00 0.20975308E+04</pdfrwt>
<pdfrwt beam="1">  1       -1 0.77527847E-01 0.20975308E+04</pdfrwt>
<totfact> 0.34335358E+00</totfact>
</mgrwt>
</event>
<event>
 4    1  0.1308745E-008  0.4393171E+04  0.7816531E-02  0.7929611E-01
          2   -1    0    0  501    0  0.00000000000E+00  0.00000000000E+00  0.35505171717E+04  0.35505171717E+04  0.00000000000E+00 0.  1.
         -2   -1    0    0    0  501 -0.00000000000E+00 -0.00000000000E+00 -0.13589535058E+04  0.13589535058E+04  0.00000000000E+00 0. -1.
    2000013    1    1    2    0    0  0.19300976842E+04 -0.44359934969E+03  0.10726001712E+04  0.24443871585E+04  0.95000000000E+03 0.  0.
   -2000013    1    1    2    0    0 -0.19300976842E+04  0.44359934969E+03  0.11189634947E+04  0.24650835191E+04  0.95000000000E+03 0.  0.
<mgrwt>
<rscale>  0 0.43931710E+04</rscale>
<asrwt>0</asrwt>
<pdfrwt beam="1">  1        2 0.54623341E+00 0.43931710E+04</pdfrwt>
<pdfrwt beam="2">  1       -2 0.20906977E+00 0.43931710E+04</pdfrwt>
<totfact> 0.66318249E-02</totfact>
</mgrwt>
</event>
<event>
 4    1  0.1308745E-008  0.2407242E+04  0.7816531E-02  0.8436797E-01
         -2   -1    0    0    0  501 -0.00000000000E+00  0.00000000000E+00  0.91141601313E+03  0.91141601313E+03  0.00000000000E+00 0. -1.
          2   -1    0    0  501    0  0.00000000000E+00 -0.00000000000E+00 -0.15895087022E+04  0.15895087022E+04  0.00000000000E+00 0.  1.
    2000013    1    1    2    0    0 -0.73810638997E+03  0.32353922378E+02 -0.35864487311E+03  0.12557762397E+04  0.95000000000E+03 0.  0.
   -2000013    1    1    2    0    0  0.73810638997E+03 -0.32353922378E+02 -0.31944781597E+03  0.12451484756E+04  0.95000000000E+03 0.  0.
<mgrwt>
<rscale>  0 0.24072421E+04</rscale>
<asrwt>0</asrwt>
<pdfrwt beam="2">  1        2 0.24453980E+00 0.24072421E+04</pdfrwt>
<pdfrwt beam="1">  1       -2 0.14021785E+00 0.24072421E+04</pdfrwt>
<totfact> 0.36345040E+00</totfact>
</mgrwt>
</event>
<event>
 4    1  0.1308745E-008  0.2392153E+04  0.7816531E-02  0.8442447E-01
          2   -1    0    0  501    0  0.00000000000E+00  0.00000000000E+00  0.59675043421E+03  0.59675043421E+03  0.00000000000E+00 0.  1.
         -2   -1    0    0    0  501 -0.00000000000E+00 -0.00000000000E+00 -0.23973157503E+04  0.23973157503E+04  0.00000000000E+00 0. -1.
    2000013    1    1    2    0    0  0.71894082397E+03 -0.63690435219E+02 -0.79432408184E+03  0.14333119433E+04  0.95000000000E+03 0.  0.
   -2000013    1    1    2    0    0 -0.71894082397E+03  0.63690435219E+02 -0.10062412343E+04  0.15607542412E+04  0.95000000000E+03 0.  0.
<mgrwt>
<rscale>  0 0.23921532E+04</rscale>
<asrwt>0</asrwt>
<pdfrwt beam="1">  1        2 0.91807758E-01 0.23921532E+04</pdfrwt>
<pdfrwt beam="2">  1       -2 0.36881781E+00 0.23921532E+04</pdfrwt>
<totfact> 0.53116076E-01</totfact>
</mgrwt>
</event>
<event>
 4    1  0.1308745E-008  0.3245926E+04  0.7816531E-02  0.8176792E-01
         -2   -1    0    0    0  501 -0.00000000000E+00  0.00000000000E+00  0.81371101723E+03  0.81371101723E+03  0.00000000000E+00 0.  1.
          2   -1    0    0  501    0  0.00000000000E+00 -0.00000000000E+00 -0.32370332160E+04  0.32370332160E+04  0.00000000000E+00 0. -1.
    2000013    1    1    2    0    0 -0.11631630913E+04 -0.52360667130E+03 -0.16148798477E+04  0.22665941952E+04  0.95000000000E+03 0.  0.
   -2000013    1    1    2    0    0  0.11631630913E+04  0.52360667130E+03 -0.80844235104E+03  0.17841500380E+04  0.95000000000E+03 0.  0.
<mgrwt>
<rscale>  0 0.32459264E+04</rscale>
<asrwt>0</asrwt>
<pdfrwt beam="2">  1        2 0.49800510E+00 0.32459264E+04</pdfrwt>
<pdfrwt beam="1">  1       -2 0.12518631E+00 0.32459264E+04</pdfrwt>
<totfact> 0.49088547E-01</totfact>
</mgrwt>
</event>
<event>
 4    1  0.1308745E-008  0.2620897E+04  0.7816531E-02  0.8361137E-01
          2   -1    0    0  501    0  0.00000000000E+00  0.00000000000E+00  0.12459249086E+04  0.12459249086E+04  0.00000000000E+00 0.  1.
         -2   -1    0    0    0  501 -0.00000000000E+00 -0.00000000000E+00 -0.13783134807E+04  0.13783134807E+04  0.00000000000E+00 0. -1.
    2000013    1    1    2    0    0  0.89408657492E+03  0.70594828353E+02 -0.16830795751E+03  0.13172706638E+04  0.95000000000E+03 0.  0.
   -2000013    1    1    2    0    0 -0.89408657492E+03 -0.70594828353E+02  0.35919385358E+02  0.13069677255E+04  0.95000000000E+03 0.  0.
<mgrwt>
<rscale>  0 0.26208969E+04</rscale>
<asrwt>0</asrwt>
<pdfrwt beam="1">  1        2 0.19168076E+00 0.26208969E+04</pdfrwt>
<pdfrwt beam="2">  1       -2 0.21204823E+00 0.26208969E+04</pdfrwt>
<totfact> 0.17446833E+00</totfact>
</mgrwt>
</event>
<event>
 4    1  0.1308745E-008  0.3062893E+04  0.7816531E-02  0.8225996E-01
         -2   -1    0    0    0  501 -0.00000000000E+00  0.00000000000E+00  0.13611792364E+04  0.13611792364E+04  0.00000000000E+00 0. -1.
          2   -1    0    0  501    0  0.00000000000E+00 -0.00000000000E+00 -0.17230120545E+04  0.17230120545E+04  0.00000000000E+00 0.  1.
    2000013    1    1    2    0    0 -0.70048049342E+03  0.32289048849E+03  0.74629988629E+03  0.14333159838E+04  0.95000000000E+03 0.  0.
   -2000013    1    1    2    0    0  0.70048049342E+03 -0.32289048849E+03 -0.11081327043E+04  0.16508753071E+04  0.95000000000E+03 0.  0.
<mgrwt>
<rscale>  0 0.30628929E+04</rscale>
<asrwt>0</asrwt>
<pdfrwt beam="2">  1        2 0.26507878E+00 0.30628929E+04</pdfrwt>
<pdfrwt beam="1">  1       -2 0.20941219E+00 0.30628929E+04</pdfrwt>
<totfact> 0.93677838E-01</totfact>
</mgrwt>
</event>
<event>
 4    1  0.1308745E-008  0.4778630E+04  0.7816531E-02  0.7863593E-01
         -2   -1    0    0    0  501 -0.00000000000E+00  0.00000000000E+00  0.19999340072E+04  0.19999340072E+04  0.00000000000E+00 0. -1.
          2   -1    0    0  501    0  0.00000000000E+00 -0.00000000000E+00 -0.28545072445E+04  0.28545072445E+04  0.00000000000E+00 0.  1.
    2000013    1    1    2    0    0 -0.12753817750E+04  0.70797593129E+03  0.12352892433E+04  0.21345416618E+04  0.95000000000E+03 0.  0.
   -2000013    1    1    2    0    0  0.12753817750E+04 -0.70797593129E+03 -0.20898624806E+04  0.27198995899E+04  0.95000000000E+03 0.  0.
<mgrwt>
<rscale>  0 0.47786300E+04</rscale>
<asrwt>0</asrwt>
<pdfrwt beam="2">  1        2 0.43915496E+00 0.47786300E+04</pdfrwt>
<pdfrwt beam="1">  1       -2 0.30768216E+00 0.47786300E+04</pdfrwt>
<totfact> 0.45252435E-02</totfact>
</mgrwt>
</event>
<event>
 4    1  0.1308745E-008  0.2123236E+04  0.7816531E-02  0.8551076E-01
         -2   -1    0    0    0  501 -0.00000000000E+00  0.00000000000E+00  0.30585142734E+03  0.30585142734E+03  0.00000000000E+00 0. -1.
          2   -1    0    0  501    0  0.00000000000E+00 -0.00000000000E+00 -0.36849043261E+04  0.36849043261E+04  0.00000000000E+00 0.  1.
    2000013    1    1    2    0    0 -0.16525667985E+03 -0.34549502884E+03 -0.11650757362E+04  0.15513149442E+04  0.95000000000E+03 0.  0.
   -2000013    1    1    2    0    0  0.16525667985E+03  0.34549502884E+03 -0.22139771625E+04  0.24394408092E+04  0.95000000000E+03 0.  0.
<mgrwt>
<rscale>  0 0.21232364E+04</rscale>
<asrwt>0</asrwt>
<pdfrwt beam="2">  1        2 0.56690834E+00 0.21232364E+04</pdfrwt>
<pdfrwt beam="1">  1       -2 0.47054067E-01 0.21232364E+04</pdfrwt>
<totfact> 0.23714942E+00</totfact>
</mgrwt>
</event>
<event>
 4    1  0.1308745E-008  0.2724139E+04  0.7816531E-02  0.8327215E-01
          1   -1    0    0  501    0  0.00000000000E+00  0.00000000000E+00  0.16068159709E+04  0.16068159709E+04  0.00000000000E+00 0.  1.
         -1   -1    0    0    0  501 -0.00000000000E+00 -0.00000000000E+00 -0.11546019836E+04  0.11546019836E+04  0.00000000000E+00 0. -1.
    2000013    1    1    2    0    0 -0.48678388475E+03  0.24821578402E+03 -0.59376492315E+03  0.12464455102E+04  0.95000000000E+03 0.  0.
   -2000013    1    1    2    0    0  0.48678388475E+03 -0.24821578402E+03  0.10459789104E+04  0.15149724443E+04  0.95000000000E+03 0.  0.
<mgrwt>
<rscale>  0 0.27241387E+04</rscale>
<asrwt>0</asrwt>
<pdfrwt beam="1">  1        1 0.24720246E+00 0.27241387E+04</pdfrwt>
<pdfrwt beam="2">  1       -1 0.17763107E+00 0.27241387E+04</pdfrwt>
<totfact> 0.10412452E+00</totfact>
</mgrwt>
</event>
<event>
 4    1  0.1308745E-008  0.2249489E+04  0.7816531E-02  0.8498107E-01
          2   -1    0    0  501    0  0.00000000000E+00  0.00000000000E+00  0.12976156020E+04  0.12976156020E+04  0.00000000000E+00 0.  1.
         -2   -1    0    0    0  501 -0.00000000000E+00 -0.00000000000E+00 -0.97490381638E+03  0.97490381638E+03  0.00000000000E+00 0. -1.
    2000013    1    1    2    0    0 -0.30348645151E+03  0.43994347166E+03  0.44149639358E+03  0.11760413896E+04  0.95000000000E+03 0.  0.
   -2000013    1    1    2    0    0  0.30348645151E+03 -0.43994347166E+03 -0.11878460796E+03  0.10964780288E+04  0.95000000000E+03 0.  0.
<mgrwt>
<rscale>  0 0.22494892E+04</rscale>
<asrwt>0</asrwt>
<pdfrwt beam="1">  1        2 0.19963317E+00 0.22494892E+04</pdfrwt>
<pdfrwt beam="2">  1       -2 0.14998520E+00 0.22494892E+04</pdfrwt>
<totfact> 0.45253487E+00</totfact>
</mgrwt>
</event>
<event>
 4    1  0.1308745E-008  0.2545433E+04  0.7816531E-02  0.8386976E-01
         -2   -1    0    0    0  501 -0.00000000000E+00  0.00000000000E+00  0.22383211745E+04  0.22383211745E+04  0.00000000000E+00 0. -1.
          2   -1    0    0  501    0  0.00000000000E+00 -0.00000000000E+00 -0.72367046680E+03  0.72367046680E+03  0.00000000000E+00 0.  1.
    2000013    1    1    2    0    0  0.80411806803E+03  0.12618739219E+03  0.48497715012E+03  0.13417272306E+04  0.95000000000E+03 0.  0.
   -2000013    1    1    2    0    0 -0.80411806803E+03 -0.12618739219E+03  0.10296735575E+04  0.16202644106E+04  0.95000000000E+03 0.  0.
<mgrwt>
<rscale>  0 0.25454327E+04</rscale>
<asrwt>0</asrwt>
<pdfrwt beam="2">  1        2 0.11133392E+00 0.25454327E+04</pdfrwt>
<pdfrwt beam="1">  1       -2 0.34435710E+00 0.25454327E+04</pdfrwt>
<totfact> 0.58938365E-01</totfact>
</mgrwt>
</event>
<event>
 4    1  0.1308745E-008  0.2633471E+04  0.7816531E-02  0.8356920E-01
          2   -1    0    0  501    0  0.00000000000E+00  0.00000000000E+00  0.22117993542E+04  0.22117993542E+04  0.00000000000E+00 0.  1.
         -2   -1    0    0    0  501 -0.00000000000E+00 -0.00000000000E+00 -0.78388325515E+03  0.78388325515E+03  0.00000000000E+00 0. -1.
    2000013    1    1    2    0    0  0.52028545043E+03  0.44962143349E+03  0.13949988229E+04  0.18224648417E+04  0.95000000000E+03 0.  0.
   -2000013    1    1    2    0    0 -0.52028545043E+03 -0.44962143349E+03  0.32917276223E+02  0.11732177677E+04  0.95000000000E+03 0.  0.
<mgrwt>
<rscale>  0 0.26334711E+04</rscale>
<asrwt>0</asrwt>
<pdfrwt beam="1">  1        2 0.34027682E+00 0.26334711E+04</pdfrwt>
<pdfrwt beam="2">  1       -2 0.12059742E+00 0.26334711E+04</pdfrwt>
<totfact> 0.23525475E+00</totfact>
</mgrwt>
</event>
<event>
 4    1  0.1308745E-008  0.2887390E+04  0.7816531E-02  0.8276639E-01
          2   -1    0    0  501    0  0.00000000000E+00  0.00000000000E+00  0.23166336307E+04  0.23166336307E+04  0.00000000000E+00 0.  1.
         -2   -1    0    0    0  501 -0.00000000000E+00 -0.00000000000E+00 -0.89969117491E+03  0.89969117491E+03  0.00000000000E+00 0. -1.
    2000013    1    1    2    0    0 -0.83363226774E+03  0.69703718263E+03  0.74282700896E+03  0.16232977413E+04  0.95000000000E+03 0.  0.
   -2000013    1    1    2    0    0  0.83363226774E+03 -0.69703718263E+03  0.67411544679E+03  0.15930270642E+04  0.95000000000E+03 0.  0.
<mgrwt>
<rscale>  0 0.28873897E+04</rscale>
<asrwt>0</asrwt>
<pdfrwt beam="1">  1        2 0.35640517E+00 0.28873897E+04</pdfrwt>
<pdfrwt beam="2">  1       -2 0.13841403E+00 0.28873897E+04</pdfrwt>
<totfact> 0.14176731E+00</totfact>
</mgrwt>
</event>
<event>
 4    1  0.1308745E-008  0.2274920E+04  0.7816531E-02  0.8487876E-01
          1   -1    0    0  501    0  0.00000000000E+00  0.00000000000E+00  0.16234557127E+04  0.16234557127E+04  0.00000000000E+00 0.  1.
         -1   -1    0    0    0  501 -0.00000000000E+00 -0.00000000000E+00 -0.79695160540E+03  0.79695160540E+03  0.00000000000E+00 0. -1.
    2000013    1    1    2    0    0 -0.11294976903E+03 -0.61179461395E+03  0.34376579720E+03  0.11864759683E+04  0.95000000000E+03 0.  0.
   -2000013    1    1    2    0    0  0.11294976903E+03  0.61179461395E+03  0.48273831006E+03  0.12339313498E+04  0.95000000000E+03 0.  0.
<mgrwt>
<rscale>  0 0.22749203E+04</rscale>
<asrwt>0</asrwt>
<pdfrwt beam="1">  1        1 0.24976242E+00 0.22749203E+04</pdfrwt>
<pdfrwt beam="2">  1       -1 0.12260794E+00 0.22749203E+04</pdfrwt>
<totfact> 0.28596311E+00</totfact>
</mgrwt>
</event>
<event>
 4    1  0.1308745E-008  0.2083835E+04  0.7816531E-02  0.8568398E-01
          1   -1    0    0  501    0  0.00000000000E+00  0.00000000000E+00  0.14363620223E+04  0.14363620223E+04  0.00000000000E+00 0. -1.
         -1   -1    0    0    0  501 -0.00000000000E+00 -0.00000000000E+00 -0.75579281770E+03  0.75579281770E+03  0.00000000000E+00 0.  1.
    2000013    1    1    2    0    0 -0.15420786105E+03  0.39338036726E+03  0.41135308083E+03  0.11181411069E+04  0.95000000000E+03 0.  0.
   -2000013    1    1    2    0    0  0.15420786105E+03 -0.39338036726E+03  0.26921612381E+03  0.10740137332E+04  0.95000000000E+03 0.  0.
<mgrwt>
<rscale>  0 0.20838350E+04</rscale>
<asrwt>0</asrwt>
<pdfrwt beam="1">  1        1 0.22097877E+00 0.20838350E+04</pdfrwt>
<pdfrwt beam="2">  1       -1 0.11627582E+00 0.20838350E+04</pdfrwt>
<totfact> 0.44597862E+00</totfact>
</mgrwt>
</event>
<event>
 4    1  0.1308745E-008  0.2769712E+04  0.7816531E-02  0.8312734E-01
          2   -1    0    0  501    0  0.00000000000E+00  0.00000000000E+00  0.22398441670E+04  0.22398441670E+04  0.00000000000E+00 0.  1.
         -2   -1    0    0    0  501 -0.00000000000E+00 -0.00000000000E+00 -0.85623166611E+03  0.85623166611E+03  0.00000000000E+00 0. -1.
    2000013    1    1    2    0    0 -0.83298785750E+03 -0.34890223023E+03  0.19224109399E+03  0.13247860866E+04  0.95000000000E+03 0.  0.
   -2000013    1    1    2    0    0  0.83298785750E+03  0.34890223023E+03  0.11913714069E+04  0.17712897465E+04  0.95000000000E+03 0.  0.
<mgrwt>
<rscale>  0 0.27697115E+04</rscale>
<asrwt>0</asrwt>
<pdfrwt beam="1">  1        2 0.34459141E+00 0.27697115E+04</pdfrwt>
<pdfrwt beam="2">  1       -2 0.13172795E+00 0.27697115E+04</pdfrwt>
<totfact> 0.17962912E+00</totfact>
</mgrwt>
</event>
<event>
 4    1  0.1308745E-008  0.2418160E+04  0.7816531E-02  0.8432736E-01
          2   -1    0    0  501    0  0.00000000000E+00  0.00000000000E+00  0.26692730906E+04  0.26692730906E+04  0.00000000000E+00 0.  1.
         -2   -1    0    0    0  501 -0.00000000000E+00 -0.00000000000E+00 -0.54766766318E+03  0.54766766318E+03  0.00000000000E+00 0. -1.
    2000013    1    1    2    0    0 -0.38595762017E+02 -0.54237255642E+03  0.37763549078E+03  0.11579145852E+04  0.95000000000E+03 0.  0.
   -2000013    1    1    2    0    0  0.38595762017E+02  0.54237255642E+03  0.17439699367E+04  0.20590261686E+04  0.95000000000E+03 0.  0.
<mgrwt>
<rscale>  0 0.24181601E+04</rscale>
<asrwt>0</asrwt>
<pdfrwt beam="1">  1        2 0.41065739E+00 0.24181601E+04</pdfrwt>
<pdfrwt beam="2">  1       -2 0.84256565E-01 0.24181601E+04</pdfrwt>
<totfact> 0.30568963E+00</totfact>
</mgrwt>
</event>
<event>
 4    1  0.1308745E-008  0.1999359E+04  0.7816531E-02  0.8606921E-01
         -1   -1    0    0    0  501 -0.00000000000E+00  0.00000000000E+00  0.18131495654E+04  0.18131495654E+04  0.00000000000E+00 0. -1.
          1   -1    0    0  501    0  0.00000000000E+00 -0.00000000000E+00 -0.55117276591E+03  0.55117276591E+03  0.00000000000E+00 0.  1.
    2000013    1    1    2    0    0 -0.21802899077E+03  0.18410971574E+03  0.77785988664E+03  0.12605550490E+04  0.95000000000E+03 0.  0.
   -2000013    1    1    2    0    0  0.21802899077E+03 -0.18410971574E+03  0.48411691285E+03  0.11037672823E+04  0.95000000000E+03 0.  0.
<mgrwt>
<rscale>  0 0.19993586E+04</rscale>
<asrwt>0</asrwt>
<pdfrwt beam="2">  1        1 0.84795811E-01 0.19993586E+04</pdfrwt>
<pdfrwt beam="1">  1       -1 0.27894608E+00 0.19993586E+04</pdfrwt>
<totfact> 0.16226592E+00</totfact>
</mgrwt>
</event>
<event>
 4    1  0.1308745E-008  0.2763194E+04  0.7816531E-02  0.8314787E-01
         -2   -1    0    0    0  501 -0.00000000000E+00  0.00000000000E+00  0.12887230151E+04  0.12887230151E+04  0.00000000000E+00 0. -1.
          2   -1    0    0  501    0  0.00000000000E+00 -0.00000000000E+00 -0.14811636863E+04  0.14811636863E+04  0.00000000000E+00 0.  1.
    2000013    1    1    2    0    0  0.47661393119E+03 -0.23423470157E+03 -0.94932994570E+03  0.14442140010E+04  0.95000000000E+03 0.  0.
   -2000013    1    1    2    0    0 -0.47661393119E+03  0.23423470157E+03  0.75688927445E+03  0.13256727004E+04  0.95000000000E+03 0.  0.
<mgrwt>
<rscale>  0 0.27631936E+04</rscale>
<asrwt>0</asrwt>
<pdfrwt beam="2">  1        2 0.22787134E+00 0.27631936E+04</pdfrwt>
<pdfrwt beam="1">  1       -2 0.19826508E+00 0.27631936E+04</pdfrwt>
<totfact> 0.15505248E+00</totfact>
</mgrwt>
</event>
<event>
 4    1  0.1308745E-008  0.2552807E+04  0.7816531E-02  0.8384411E-01
          2   -1    0    0  501    0  0.00000000000E+00  0.00000000000E+00  0.12880877757E+04  0.12880877757E+04  0.00000000000E+00 0.  1.
         -2   -1    0    0    0  501 -0.00000000000E+00 -0.00000000000E+00 -0.12648252174E+04  0.12648252174E+04  0.00000000000E+00 0. -1.
    2000013    1    1    2    0    0 -0.14244330998E+03 -0.51164091695E+03  0.67847181382E+03  0.12825328560E+04  0.95000000000E+03 0.  0.
   -2000013    1    1    2    0    0  0.14244330998E+03  0.51164091695E+03 -0.65520925552E+03  0.12703801372E+04  0.95000000000E+03 0.  0.
<mgrwt>
<rscale>  0 0.25528070E+04</rscale>
<asrwt>0</asrwt>
<pdfrwt beam="1">  1        2 0.19816735E+00 0.25528070E+04</pdfrwt>
<pdfrwt beam="2">  1       -2 0.19458849E+00 0.25528070E+04</pdfrwt>
<totfact> 0.21545381E+00</totfact>
</mgrwt>
</event>
<event>
 4    1  0.1308745E-008  0.2129396E+04  0.7816531E-02  0.8548404E-01
         -2   -1    0    0    0  501 -0.00000000000E+00  0.00000000000E+00  0.64980176144E+03  0.64980176144E+03  0.00000000000E+00 0. -1.
          2   -1    0    0  501    0  0.00000000000E+00 -0.00000000000E+00 -0.17445037041E+04  0.17445037041E+04  0.00000000000E+00 0.  1.
    2000013    1    1    2    0    0  0.43496220866E+03 -0.15403817208E+03 -0.69888194028E+03  0.12664343046E+04  0.95000000000E+03 0.  0.
   -2000013    1    1    2    0    0 -0.43496220866E+03  0.15403817208E+03 -0.39582000240E+03  0.11278711610E+04  0.95000000000E+03 0.  0.
<mgrwt>
<rscale>  0 0.21293958E+04</rscale>
<asrwt>0</asrwt>
<pdfrwt beam="2">  1        2 0.26838518E+00 0.21293958E+04</pdfrwt>
<pdfrwt beam="1">  1       -2 0.99969504E-01 0.21293958E+04</pdfrwt>
<totfact> 0.70399478E+00</totfact>
</mgrwt>
</event>
<event>
 4    1  0.1308745E-008  0.1991025E+04  0.7816531E-02  0.8610828E-01
          2   -1    0    0  501    0  0.00000000000E+00  0.00000000000E+00  0.80050946400E+03  0.80050946400E+03  0.00000000000E+00 0.  1.
         -2   -1    0    0    0  501 -0.00000000000E+00 -0.00000000000E+00 -0.12380180010E+04  0.12380180010E+04  0.00000000000E+00 0. -1.
    2000013    1    1    2    0    0 -0.92057860363E+02 -0.22311394031E+03 -0.40559837631E+02  0.98101966364E+03  0.95000000000E+03 0.  0.
   -2000013    1    1    2    0    0  0.92057860363E+02  0.22311394031E+03 -0.39694869938E+03  0.10575078014E+04  0.95000000000E+03 0.  0.
<mgrwt>
<rscale>  0 0.19910250E+04</rscale>
<asrwt>0</asrwt>
<pdfrwt beam="1">  1        2 0.12315530E+00 0.19910250E+04</pdfrwt>
<pdfrwt beam="2">  1       -2 0.19046431E+00 0.19910250E+04</pdfrwt>
<totfact> 0.49217619E+00</totfact>
</mgrwt>
</event>
<event>
 4    1  0.1308745E-008  0.2307555E+04  0.7816531E-02  0.8474948E-01
          2   -1    0    0  501    0  0.00000000000E+00  0.00000000000E+00  0.26076910449E+04  0.26076910449E+04  0.00000000000E+00 0.  1.
         -2   -1    0    0    0  501 -0.00000000000E+00 -0.00000000000E+00 -0.51049098666E+03  0.51049098666E+03  0.00000000000E+00 0. -1.
    2000013    1    1    2    0    0  0.35684377771E+02  0.57816338179E+03  0.63616461261E+03  0.12816987498E+04  0.95000000000E+03 0.  0.
   -2000013    1    1    2    0    0 -0.35684377771E+02 -0.57816338179E+03  0.14610354456E+04  0.18364832817E+04  0.95000000000E+03 0.  0.
<mgrwt>
<rscale>  0 0.23075552E+04</rscale>
<asrwt>0</asrwt>
<pdfrwt beam="1">  1        2 0.40118323E+00 0.23075552E+04</pdfrwt>
<pdfrwt beam="2">  1       -2 0.78537076E-01 0.23075552E+04</pdfrwt>
<totfact> 0.39319259E+00</totfact>
</mgrwt>
</event>
<event>
 4    1  0.1308745E-008  0.2126214E+04  0.7816531E-02  0.8549783E-01
         -2   -1    0    0    0  501 -0.00000000000E+00  0.00000000000E+00  0.62956428810E+03  0.62956428810E+03  0.00000000000E+00 0. -1.
          2   -1    0    0  501    0  0.00000000000E+00 -0.00000000000E+00 -0.17952044981E+04  0.17952044981E+04  0.00000000000E+00 0.  1.
    2000013    1    1    2    0    0  0.15206281182E+03  0.36782841396E+03 -0.88298099797E+03  0.13566784010E+04  0.95000000000E+03 0.  0.
   -2000013    1    1    2    0    0 -0.15206281182E+03 -0.36782841396E+03 -0.28265921202E+03  0.10680903852E+04  0.95000000000E+03 0.  0.
<mgrwt>
<rscale>  0 0.21262141E+04</rscale>
<asrwt>0</asrwt>
<pdfrwt beam="2">  1        2 0.27618531E+00 0.21262141E+04</pdfrwt>
<pdfrwt beam="1">  1       -2 0.96856044E-01 0.21262141E+04</pdfrwt>
<totfact> 0.71108016E+00</totfact>
</mgrwt>
</event>
<event>
 4    1  0.1308745E-008  0.4694113E+04  0.7816531E-02  0.7877508E-01
          2   -1    0    0  501    0  0.00000000000E+00  0.00000000000E+00  0.26179732354E+04  0.26179732354E+04  0.00000000000E+00 0.  1.
         -2   -1    0    0    0  501 -0.00000000000E+00 -0.00000000000E+00 -0.21041749667E+04  0.21041749667E+04  0.00000000000E+00 0. -1.
    2000013    1    1    2    0    0 -0.40850612459E+03 -0.11172002268E+04  0.20539500876E+04  0.25566041076E+04  0.95000000000E+03 0.  0.
   -2000013    1    1    2    0    0  0.40850612459E+03  0.11172002268E+04 -0.15401518188E+04  0.21655440946E+04  0.95000000000E+03 0.  0.
<mgrwt>
<rscale>  0 0.46941128E+04</rscale>
<asrwt>0</asrwt>
<pdfrwt beam="1">  1        2 0.40276511E+00 0.46941128E+04</pdfrwt>
<pdfrwt beam="2">  1       -2 0.32371923E+00 0.46941128E+04</pdfrwt>
<totfact> 0.50306380E-02</totfact>
</mgrwt>
</event>
<event>
 4    1  0.1308745E-008  0.3278534E+04  0.7816531E-02  0.8168379E-01
         -2   -1    0    0    0  501 -0.00000000000E+00  0.00000000000E+00  0.20580380619E+04  0.20580380619E+04  0.00000000000E+00 0. -1.
          2   -1    0    0  501    0  0.00000000000E+00 -0.00000000000E+00 -0.13057081355E+04  0.13057081355E+04  0.00000000000E+00 0.  1.
    2000013    1    1    2    0    0  0.31428416289E+03 -0.12851128566E+04  0.18585140905E+03  0.16393078830E+04  0.95000000000E+03 0.  0.
   -2000013    1    1    2    0    0 -0.31428416289E+03  0.12851128566E+04  0.56647851735E+03  0.17244383143E+04  0.95000000000E+03 0.  0.
<mgrwt>
<rscale>  0 0.32785345E+04</rscale>
<asrwt>0</asrwt>
<pdfrwt beam="2">  1        2 0.20087817E+00 0.32785345E+04</pdfrwt>
<pdfrwt beam="1">  1       -2 0.31662124E+00 0.32785345E+04</pdfrwt>
<totfact> 0.34475017E-01</totfact>
</mgrwt>
</event>
<event>
 4    1  0.1308745E-008  0.2227358E+04  0.7816531E-02  0.8507127E-01
          2   -1    0    0  501    0  0.00000000000E+00  0.00000000000E+00  0.19323963430E+04  0.19323963430E+04  0.00000000000E+00 0.  1.
         -2   -1    0    0    0  501 -0.00000000000E+00 -0.00000000000E+00 -0.64183587084E+03  0.64183587084E+03  0.00000000000E+00 0. -1.
    2000013    1    1    2    0    0  0.27133485562E+02 -0.42153916621E+03  0.18392719948E+03  0.10558222906E+04  0.95000000000E+03 0.  0.
   -2000013    1    1    2    0    0 -0.27133485562E+02  0.42153916621E+03  0.11066332726E+04  0.15184099232E+04  0.95000000000E+03 0.  0.
<mgrwt>
<rscale>  0 0.22273583E+04</rscale>
<asrwt>0</asrwt>
<pdfrwt beam="1">  1        2 0.29729174E+00 0.22273583E+04</pdfrwt>
<pdfrwt beam="2">  1       -2 0.98743981E-01 0.22273583E+04</pdfrwt>
<totfact> 0.56543982E+00</totfact>
</mgrwt>
</event>
<event>
 4    1  0.1308745E-008  0.3018956E+04  0.7816531E-02  0.8238339E-01
         -2   -1    0    0    0  501 -0.00000000000E+00  0.00000000000E+00  0.12220938819E+04  0.12220938819E+04  0.00000000000E+00 0. -1.
          2   -1    0    0  501    0  0.00000000000E+00 -0.00000000000E+00 -0.18644420639E+04  0.18644420639E+04  0.00000000000E+00 0.  1.
    2000013    1    1    2    0    0 -0.10654924333E+04  0.28608285598E+03 -0.72872734833E+03  0.16280850943E+04  0.95000000000E+03 0.  0.
   -2000013    1    1    2    0    0  0.10654924333E+04 -0.28608285598E+03  0.86379166274E+02  0.14584508515E+04  0.95000000000E+03 0.  0.
<mgrwt>
<rscale>  0 0.30189556E+04</rscale>
<asrwt>0</asrwt>
<pdfrwt beam="2">  1        2 0.28683724E+00 0.30189556E+04</pdfrwt>
<pdfrwt beam="1">  1       -2 0.18801444E+00 0.30189556E+04</pdfrwt>
<totfact> 0.10857763E+00</totfact>
</mgrwt>
</event>
<event>
 4    1  0.1308745E-008  0.2787683E+04  0.7816531E-02  0.8307102E-01
         -2   -1    0    0    0  501 -0.00000000000E+00  0.00000000000E+00  0.10265936216E+04  0.10265936216E+04  0.00000000000E+00 0. -1.
          2   -1    0    0  501    0  0.00000000000E+00 -0.00000000000E+00 -0.18924672385E+04  0.18924672385E+04  0.00000000000E+00 0.  1.
    2000013    1    1    2    0    0  0.88381048073E+03 -0.21166625742E+02 -0.96555937277E+03  0.16175209100E+04  0.95000000000E+03 0.  0.
   -2000013    1    1    2    0    0 -0.88381048073E+03  0.21166625742E+02  0.99685755824E+02  0.13015399501E+04  0.95000000000E+03 0.  0.
<mgrwt>
<rscale>  0 0.27876835E+04</rscale>
<asrwt>0</asrwt>
<pdfrwt beam="2">  1        2 0.29114880E+00 0.27876835E+04</pdfrwt>
<pdfrwt beam="1">  1       -2 0.15793748E+00 0.27876835E+04</pdfrwt>
<totfact> 0.17427908E+00</totfact>
</mgrwt>
</event>
<event>
 4    1  0.1308745E-008  0.2600924E+04  0.7816531E-02  0.8367887E-01
         -1   -1    0    0    0  501 -0.00000000000E+00  0.00000000000E+00  0.87247035012E+03  0.87247035012E+03  0.00000000000E+00 0. -1.
          1   -1    0    0  501    0  0.00000000000E+00 -0.00000000000E+00 -0.19384063080E+04  0.19384063080E+04  0.00000000000E+00 0.  1.
    2000013    1    1    2    0    0 -0.60526272556E+03 -0.57335897879E+03 -0.20229783033E+03  0.12800421468E+04  0.95000000000E+03 0.  0.
   -2000013    1    1    2    0    0  0.60526272556E+03  0.57335897879E+03 -0.86363812752E+03  0.15308345112E+04  0.95000000000E+03 0.  0.
<mgrwt>
<rscale>  0 0.26009245E+04</rscale>
<asrwt>0</asrwt>
<pdfrwt beam="2">  1        1 0.29821635E+00 0.26009245E+04</pdfrwt>
<pdfrwt beam="1">  1       -1 0.13422621E+00 0.26009245E+04</pdfrwt>
<totfact> 0.13506696E+00</totfact>
</mgrwt>
</event>
<event>
 4    1  0.1308745E-008  0.4178785E+04  0.7816531E-02  0.7969420E-01
         -2   -1    0    0    0  501 -0.00000000000E+00  0.00000000000E+00  0.12413725646E+04  0.12413725646E+04  0.00000000000E+00 0. -1.
          2   -1    0    0  501    0  0.00000000000E+00 -0.00000000000E+00 -0.35167202832E+04  0.35167202832E+04  0.00000000000E+00 0.  1.
    2000013    1    1    2    0    0 -0.72252698368E+03  0.10692500179E+04 -0.26643392655E+04  0.31091067149E+04  0.95000000000E+03 0.  0.
   -2000013    1    1    2    0    0  0.72252698368E+03 -0.10692500179E+04  0.38899154700E+03  0.16489861329E+04  0.95000000000E+03 0.  0.
<mgrwt>
<rscale>  0 0.41787845E+04</rscale>
<asrwt>0</asrwt>
<pdfrwt beam="2">  1        2 0.54103388E+00 0.41787845E+04</pdfrwt>
<pdfrwt beam="1">  1       -2 0.19098040E+00 0.41787845E+04</pdfrwt>
<totfact> 0.93761097E-02</totfact>
</mgrwt>
</event>
<event>
 4    1  0.1308745E-008  0.2429500E+04  0.7816531E-02  0.8428541E-01
         -2   -1    0    0    0  501 -0.00000000000E+00  0.00000000000E+00  0.99996292646E+03  0.99996292646E+03  0.00000000000E+00 0. -1.
          2   -1    0    0  501    0  0.00000000000E+00 -0.00000000000E+00 -0.14756720400E+04  0.14756720400E+04  0.00000000000E+00 0.  1.
    2000013    1    1    2    0    0 -0.35788638909E+03  0.19648674984E+03 -0.88747748746E+03  0.13626466898E+04  0.95000000000E+03 0.  0.
   -2000013    1    1    2    0    0  0.35788638909E+03 -0.19648674984E+03  0.41176837391E+03  0.11129882767E+04  0.95000000000E+03 0.  0.
<mgrwt>
<rscale>  0 0.24294998E+04</rscale>
<asrwt>0</asrwt>
<pdfrwt beam="2">  1        2 0.22702647E+00 0.24294998E+04</pdfrwt>
<pdfrwt beam="1">  1       -2 0.15384045E+00 0.24294998E+04</pdfrwt>
<totfact> 0.32928490E+00</totfact>
</mgrwt>
</event>
<event>
 4    1  0.1308745E-008  0.2323351E+04  0.7816531E-02  0.8468771E-01
         -2   -1    0    0    0  501 -0.00000000000E+00  0.00000000000E+00  0.11422734068E+04  0.11422734068E+04  0.00000000000E+00 0. -1.
          2   -1    0    0  501    0  0.00000000000E+00 -0.00000000000E+00 -0.11814067814E+04  0.11814067814E+04  0.00000000000E+00 0.  1.
    2000013    1    1    2    0    0 -0.66989654291E+02  0.54598255847E+03 -0.39962714215E+03  0.11682407375E+04  0.95000000000E+03 0.  0.
   -2000013    1    1    2    0    0  0.66989654291E+02 -0.54598255847E+03  0.36049376753E+03  0.11554394508E+04  0.95000000000E+03 0.  0.
<mgrwt>
<rscale>  0 0.23233506E+04</rscale>
<asrwt>0</asrwt>
<pdfrwt beam="2">  1        2 0.18175489E+00 0.23233506E+04</pdfrwt>
<pdfrwt beam="1">  1       -2 0.17573437E+00 0.23233506E+04</pdfrwt>
<totfact> 0.34143855E+00</totfact>
</mgrwt>
</event>
<event>
 4    1  0.1308745E-008  0.3258636E+04  0.7816531E-02  0.8173501E-01
         -2   -1    0    0    0  501 -0.00000000000E+00  0.00000000000E+00  0.12461991176E+04  0.12461991176E+04  0.00000000000E+00 0. -1.
          2   -1    0    0  501    0  0.00000000000E+00 -0.00000000000E+00 -0.21302187602E+04  0.21302187602E+04  0.00000000000E+00 0.  1.
    2000013    1    1    2    0    0 -0.33256687848E+03 -0.11289128038E+04 -0.10698244477E+04  0.18525844640E+04  0.95000000000E+03 0.  0.
   -2000013    1    1    2    0    0  0.33256687848E+03  0.11289128038E+04  0.18580480519E+03  0.15238334138E+04  0.95000000000E+03 0.  0.
<mgrwt>
<rscale>  0 0.32586358E+04</rscale>
<asrwt>0</asrwt>
<pdfrwt beam="2">  1        2 0.32772596E+00 0.32586358E+04</pdfrwt>
<pdfrwt beam="1">  1       -2 0.19172294E+00 0.32586358E+04</pdfrwt>
<totfact> 0.71485630E-01</totfact>
</mgrwt>
</event>
<event>
 4    1  0.1308745E-008  0.3378045E+04  0.7816531E-02  0.8143316E-01
         -2   -1    0    0    0  501 -0.00000000000E+00  0.00000000000E+00  0.13520374778E+04  0.13520374778E+04  0.00000000000E+00 0. -1.
          2   -1    0    0  501    0  0.00000000000E+00 -0.00000000000E+00 -0.21099986097E+04  0.21099986097E+04  0.00000000000E+00 0.  1.
    2000013    1    1    2    0    0 -0.12006990939E+04  0.38715378390E+03  0.23485280854E+03  0.15966283876E+04  0.95000000000E+03 0.  0.
   -2000013    1    1    2    0    0  0.12006990939E+04 -0.38715378390E+03 -0.99281394046E+03  0.18654076999E+04  0.95000000000E+03 0.  0.
<mgrwt>
<rscale>  0 0.33780451E+04</rscale>
<asrwt>0</asrwt>
<pdfrwt beam="2">  1        2 0.32461517E+00 0.33780451E+04</pdfrwt>
<pdfrwt beam="1">  1       -2 0.20800577E+00 0.33780451E+04</pdfrwt>
<totfact> 0.56785150E-01</totfact>
</mgrwt>
</event>
<event>
 4    1  0.1308745E-008  0.2514893E+04  0.7816531E-02  0.8397699E-01
         -2   -1    0    0    0  501 -0.00000000000E+00  0.00000000000E+00  0.32715523875E+03  0.32715523875E+03  0.00000000000E+00 0. -1.
          2   -1    0    0  501    0  0.00000000000E+00 -0.00000000000E+00 -0.48330932039E+04  0.48330932039E+04  0.00000000000E+00 0.  1.
    2000013    1    1    2    0    0  0.39572939969E+03 -0.71978994747E+03 -0.23822930864E+04  0.26930502549E+04  0.95000000000E+03 0.  0.
   -2000013    1    1    2    0    0 -0.39572939969E+03  0.71978994747E+03 -0.21236448788E+04  0.24671981877E+04  0.95000000000E+03 0.  0.
<mgrwt>
<rscale>  0 0.25148930E+04</rscale>
<asrwt>0</asrwt>
<pdfrwt beam="2">  1        2 0.74355277E+00 0.25148930E+04</pdfrwt>
<pdfrwt beam="1">  1       -2 0.50331577E-01 0.25148930E+04</pdfrwt>
<totfact> 0.18292196E-01</totfact>
</mgrwt>
</event>
<event>
 4    1  0.1308745E-008  0.2325220E+04  0.7816531E-02  0.8468043E-01
         -2   -1    0    0    0  501 -0.00000000000E+00  0.00000000000E+00  0.69502961703E+03  0.69502961703E+03  0.00000000000E+00 0. -1.
          2   -1    0    0  501    0  0.00000000000E+00 -0.00000000000E+00 -0.19447544152E+04  0.19447544152E+04  0.00000000000E+00 0.  1.
    2000013    1    1    2    0    0  0.63798413536E+03  0.15603415299E+03 -0.47343283334E+03  0.12482023320E+04  0.95000000000E+03 0.  0.
   -2000013    1    1    2    0    0 -0.63798413536E+03 -0.15603415299E+03 -0.77629196488E+03  0.13915817003E+04  0.95000000000E+03 0.  0.
<mgrwt>
<rscale>  0 0.23252199E+04</rscale>
<asrwt>0</asrwt>
<pdfrwt beam="2">  1        2 0.29919298E+00 0.23252199E+04</pdfrwt>
<pdfrwt beam="1">  1       -2 0.10692763E+00 0.23252199E+04</pdfrwt>
<totfact> 0.45647529E+00</totfact>
</mgrwt>
</event>
<event>
 4    1  0.1308745E-008  0.2267775E+04  0.7816531E-02  0.8490736E-01
          2   -1    0    0  501    0  0.00000000000E+00  0.00000000000E+00  0.14208216648E+04  0.14208216648E+04  0.00000000000E+00 0.  1.
         -2   -1    0    0    0  501 -0.00000000000E+00 -0.00000000000E+00 -0.90489982767E+03  0.90489982767E+03  0.00000000000E+00 0. -1.
    2000013    1    1    2    0    0 -0.10651669232E+03  0.60020290653E+03  0.14744873627E+03  0.11383454944E+04  0.95000000000E+03 0.  0.
   -2000013    1    1    2    0    0  0.10651669232E+03 -0.60020290653E+03  0.36847310083E+03  0.11873759981E+04  0.95000000000E+03 0.  0.
<mgrwt>
<rscale>  0 0.22677754E+04</rscale>
<asrwt>0</asrwt>
<pdfrwt beam="1">  1        2 0.21858795E+00 0.22677754E+04</pdfrwt>
<pdfrwt beam="2">  1       -2 0.13921536E+00 0.22677754E+04</pdfrwt>
<totfact> 0.46649522E+00</totfact>
</mgrwt>
</event>
<event>
 4    1  0.1308745E-008  0.2754461E+04  0.7816531E-02  0.8317547E-01
          2   -1    0    0  501    0  0.00000000000E+00  0.00000000000E+00  0.15167633898E+04  0.15167633898E+04  0.00000000000E+00 0.  1.
         -2   -1    0    0    0  501 -0.00000000000E+00 -0.00000000000E+00 -0.12505338040E+04  0.12505338040E+04  0.00000000000E+00 0. -1.
    2000013    1    1    2    0    0 -0.94981732238E+03  0.25370207851E+03 -0.34233364388E+02  0.13675487610E+04  0.95000000000E+03 0.  0.
   -2000013    1    1    2    0    0  0.94981732238E+03 -0.25370207851E+03  0.30046295015E+03  0.13997484327E+04  0.95000000000E+03 0.  0.
<mgrwt>
<rscale>  0 0.27544610E+04</rscale>
<asrwt>0</asrwt>
<pdfrwt beam="1">  1        2 0.23334821E+00 0.27544610E+04</pdfrwt>
<pdfrwt beam="2">  1       -2 0.19238982E+00 0.27544610E+04</pdfrwt>
<totfact> 0.16207503E+00</totfact>
</mgrwt>
</event>
<event>
 4    1  0.1308745E-008  0.2482955E+04  0.7816531E-02  0.8409083E-01
         -2   -1    0    0    0  501 -0.00000000000E+00  0.00000000000E+00  0.52872905862E+03  0.52872905862E+03  0.00000000000E+00 0. -1.
          2   -1    0    0  501    0  0.00000000000E+00 -0.00000000000E+00 -0.29150395790E+04  0.29150395790E+04  0.00000000000E+00 0.  1.
    2000013    1    1    2    0    0 -0.16872705519E+03 -0.77220150521E+03 -0.13572756330E+04  0.18356091980E+04  0.95000000000E+03 0.  0.
   -2000013    1    1    2    0    0  0.16872705519E+03  0.77220150521E+03 -0.10290348873E+04  0.16081594396E+04  0.95000000000E+03 0.  0.
<mgrwt>
<rscale>  0 0.24829548E+04</rscale>
<asrwt>0</asrwt>
<pdfrwt beam="2">  1        2 0.44846763E+00 0.24829548E+04</pdfrwt>
<pdfrwt beam="1">  1       -2 0.81342932E-01 0.24829548E+04</pdfrwt>
<totfact> 0.23386863E+00</totfact>
</mgrwt>
</event>
<event>
 4    1  0.1308745E-008  0.2537002E+04  0.7816531E-02  0.8389921E-01
          2   -1    0    0  501    0  0.00000000000E+00  0.00000000000E+00  0.29395136065E+04  0.29395136065E+04  0.00000000000E+00 0.  1.
         -2   -1    0    0    0  501 -0.00000000000E+00 -0.00000000000E+00 -0.54740185806E+03  0.54740185806E+03  0.00000000000E+00 0. -1.
    2000013    1    1    2    0    0  0.24474864589E+03 -0.62504853299E+03  0.18914756177E+04  0.22205331749E+04  0.95000000000E+03 0.  0.
   -2000013    1    1    2    0    0 -0.24474864589E+03  0.62504853299E+03  0.50063613071E+03  0.12663822897E+04  0.95000000000E+03 0.  0.
<mgrwt>
<rscale>  0 0.25370023E+04</rscale>
<asrwt>0</asrwt>
<pdfrwt beam="1">  1        2 0.45223285E+00 0.25370023E+04</pdfrwt>
<pdfrwt beam="2">  1       -2 0.84215672E-01 0.25370023E+04</pdfrwt>
<totfact> 0.20781456E+00</totfact>
</mgrwt>
</event>
<event>
 4    1  0.1308745E-008  0.2378821E+04  0.7816531E-02  0.8447475E-01
         -1   -1    0    0    0  501 -0.00000000000E+00  0.00000000000E+00  0.61784317340E+03  0.61784317340E+03  0.00000000000E+00 0. -1.
          1   -1    0    0  501    0  0.00000000000E+00 -0.00000000000E+00 -0.22897355827E+04  0.22897355827E+04  0.00000000000E+00 0.  1.
    2000013    1    1    2    0    0 -0.42191372579E+03  0.52713308634E+03 -0.11260073224E+04  0.16205779749E+04  0.95000000000E+03 0.  0.
   -2000013    1    1    2    0    0  0.42191372579E+03 -0.52713308634E+03 -0.54588508697E+03  0.12870007812E+04  0.95000000000E+03 0.  0.
<mgrwt>
<rscale>  0 0.23788211E+04</rscale>
<asrwt>0</asrwt>
<pdfrwt beam="2">  1        1 0.35226701E+00 0.23788211E+04</pdfrwt>
<pdfrwt beam="1">  1       -1 0.95052796E-01 0.23788211E+04</pdfrwt>
<totfact> 0.18156043E+00</totfact>
</mgrwt>
</event>
<event>
 4    1  0.1308745E-008  0.3177732E+04  0.7816531E-02  0.8194723E-01
          1   -1    0    0  501    0  0.00000000000E+00  0.00000000000E+00  0.11392997793E+04  0.11392997793E+04  0.00000000000E+00 0.  1.
         -1   -1    0    0    0  501 -0.00000000000E+00 -0.00000000000E+00 -0.22158302089E+04  0.22158302089E+04  0.00000000000E+00 0. -1.
    2000013    1    1    2    0    0  0.63596357536E+03 -0.73044158464E+03 -0.14114783341E+04  0.19577450461E+04  0.95000000000E+03 0.  0.
   -2000013    1    1    2    0    0 -0.63596357536E+03  0.73044158464E+03  0.33494790445E+03  0.13973849421E+04  0.95000000000E+03 0.  0.
<mgrwt>
<rscale>  0 0.31777318E+04</rscale>
<asrwt>0</asrwt>
<pdfrwt beam="1">  1        1 0.17527689E+00 0.31777318E+04</pdfrwt>
<pdfrwt beam="2">  1       -1 0.34089695E+00 0.31777318E+04</pdfrwt>
<totfact> 0.17719916E-01</totfact>
</mgrwt>
</event>
<event>
 4    1  0.1308745E-008  0.2793394E+04  0.7816531E-02  0.8305322E-01
          2   -1    0    0  501    0  0.00000000000E+00  0.00000000000E+00  0.30239670162E+04  0.30239670162E+04  0.00000000000E+00 0.  1.
         -2   -1    0    0    0  501 -0.00000000000E+00 -0.00000000000E+00 -0.64510060807E+03  0.64510060807E+03  0.00000000000E+00 0. -1.
    2000013    1    1    2    0    0  0.75362338622E+03  0.65084690717E+03  0.15022319444E+04  0.20373391273E+04  0.95000000000E+03 0.  0.
   -2000013    1    1    2    0    0 -0.75362338622E+03 -0.65084690717E+03  0.87663446371E+03  0.16317284970E+04  0.95000000000E+03 0.  0.
<mgrwt>
<rscale>  0 0.27933943E+04</rscale>
<asrwt>0</asrwt>
<pdfrwt beam="1">  1        2 0.46522569E+00 0.27933943E+04</pdfrwt>
<pdfrwt beam="2">  1       -2 0.99246249E-01 0.27933943E+04</pdfrwt>
<totfact> 0.12308041E+00</totfact>
</mgrwt>
</event>
<event>
 4    1  0.1308745E-008  0.2019781E+04  0.7816531E-02  0.8597428E-01
         -2   -1    0    0    0  501 -0.00000000000E+00  0.00000000000E+00  0.49209712927E+03  0.49209712927E+03  0.00000000000E+00 0. -1.
          2   -1    0    0  501    0  0.00000000000E+00 -0.00000000000E+00 -0.20725143475E+04  0.20725143475E+04  0.00000000000E+00 0.  1.
    2000013    1    1    2    0    0  0.27464973353E+03 -0.20480096904E+03 -0.79219516766E+03  0.12835299360E+04  0.95000000000E+03 0.  0.
   -2000013    1    1    2    0    0 -0.27464973353E+03  0.20480096904E+03 -0.78822205061E+03  0.12810815408E+04  0.95000000000E+03 0.  0.
<mgrwt>
<rscale>  0 0.20197805E+04</rscale>
<asrwt>0</asrwt>
<pdfrwt beam="2">  1        2 0.31884837E+00 0.20197805E+04</pdfrwt>
<pdfrwt beam="1">  1       -2 0.75707249E-01 0.20197805E+04</pdfrwt>
<totfact> 0.88297033E+00</totfact>
</mgrwt>
</event>
<event>
 4    1  0.1308745E-008  0.2831150E+04  0.7816531E-02  0.8293662E-01
          2   -1    0    0  501    0  0.00000000000E+00  0.00000000000E+00  0.25548695236E+04  0.25548695236E+04  0.00000000000E+00 0.  1.
         -2   -1    0    0    0  501 -0.00000000000E+00 -0.00000000000E+00 -0.78432686845E+03  0.78432686845E+03  0.00000000000E+00 0. -1.
    2000013    1    1    2    0    0 -0.10063975064E+04 -0.26058564592E+03  0.10546033327E+04  0.17593831331E+04  0.95000000000E+03 0.  0.
   -2000013    1    1    2    0    0  0.10063975064E+04  0.26058564592E+03  0.71593932251E+03  0.15798132590E+04  0.95000000000E+03 0.  0.
<mgrwt>
<rscale>  0 0.28311502E+04</rscale>
<asrwt>0</asrwt>
<pdfrwt beam="1">  1        2 0.39305685E+00 0.28311502E+04</pdfrwt>
<pdfrwt beam="2">  1       -2 0.12066567E+00 0.28311502E+04</pdfrwt>
<totfact> 0.14698429E+00</totfact>
</mgrwt>
</event>
<event>
 4    1  0.1308745E-008  0.2299579E+04  0.7816531E-02  0.8478087E-01
         -2   -1    0    0    0  501 -0.00000000000E+00  0.00000000000E+00  0.43002023264E+03  0.43002023264E+03  0.00000000000E+00 0. -1.
          2   -1    0    0  501    0  0.00000000000E+00 -0.00000000000E+00 -0.30743120568E+04  0.30743120568E+04  0.00000000000E+00 0.  1.
    2000013    1    1    2    0    0 -0.47065929837E+03 -0.25185423236E+03 -0.76313024114E+03  0.13303452539E+04  0.95000000000E+03 0.  0.
   -2000013    1    1    2    0    0  0.47065929837E+03  0.25185423236E+03 -0.18811615830E+04  0.21739870356E+04  0.95000000000E+03 0.  0.
<mgrwt>
<rscale>  0 0.22995794E+04</rscale>
<asrwt>0</asrwt>
<pdfrwt beam="2">  1        2 0.47297108E+00 0.22995794E+04</pdfrwt>
<pdfrwt beam="1">  1       -2 0.66156960E-01 0.22995794E+04</pdfrwt>
<totfact> 0.29807440E+00</totfact>
</mgrwt>
</event>
<event>
 4    1  0.1308745E-008  0.2896175E+04  0.7816531E-02  0.8274016E-01
         -2   -1    0    0    0  501 -0.00000000000E+00  0.00000000000E+00  0.17897121402E+04  0.17897121402E+04  0.00000000000E+00 0. -1.
          2   -1    0    0  501    0  0.00000000000E+00 -0.00000000000E+00 -0.11716729183E+04  0.11716729183E+04  0.00000000000E+00 0.  1.
    2000013    1    1    2    0    0  0.49482663186E+03 -0.84887829799E+03  0.79834396680E+03  0.15828142183E+04  0.95000000000E+03 0.  0.
   -2000013    1    1    2    0    0 -0.49482663186E+03  0.84887829799E+03 -0.18030474485E+03  0.13785708402E+04  0.95000000000E+03 0.  0.
<mgrwt>
<rscale>  0 0.28961749E+04</rscale>
<asrwt>0</asrwt>
<pdfrwt beam="2">  1        2 0.18025737E+00 0.28961749E+04</pdfrwt>
<pdfrwt beam="1">  1       -2 0.27534033E+00 0.28961749E+04</pdfrwt>
<totfact> 0.76459375E-01</totfact>
</mgrwt>
</event>
<event>
 4    1  0.1308745E-008  0.1954129E+04  0.7816531E-02  0.8628372E-01
         -2   -1    0    0    0  501 -0.00000000000E+00  0.00000000000E+00  0.86011676896E+03  0.86011676896E+03  0.00000000000E+00 0. -1.
          2   -1    0    0  501    0  0.00000000000E+00 -0.00000000000E+00 -0.11099132661E+04  0.11099132661E+04  0.00000000000E+00 0.  1.
    2000013    1    1    2    0    0  0.97978989313E+02 -0.17991752466E+03 -0.22663929030E+03  0.99791561063E+03  0.95000000000E+03 0.  0.
   -2000013    1    1    2    0    0 -0.97978989313E+02  0.17991752466E+03 -0.23157206876E+02  0.97211442447E+03  0.95000000000E+03 0.  0.
<mgrwt>
<rscale>  0 0.19541290E+04</rscale>
<asrwt>0</asrwt>
<pdfrwt beam="2">  1        2 0.17075589E+00 0.19541290E+04</pdfrwt>
<pdfrwt beam="1">  1       -2 0.13232566E+00 0.19541290E+04</pdfrwt>
<totfact> 0.83173266E+00</totfact>
</mgrwt>
</event>
<event>
 4    1  0.1308745E-008  0.2846791E+04  0.7816531E-02  0.8288887E-01
         -2   -1    0    0    0  501 -0.00000000000E+00  0.00000000000E+00  0.89611083259E+03  0.89611083259E+03  0.00000000000E+00 0. -1.
          2   -1    0    0  501    0  0.00000000000E+00 -0.00000000000E+00 -0.22609420184E+04  0.22609420184E+04  0.00000000000E+00 0.  1.
    2000013    1    1    2    0    0 -0.90336841319E+03 -0.28448074847E+03 -0.12102638925E+04  0.18067214715E+04  0.95000000000E+03 0.  0.
   -2000013    1    1    2    0    0  0.90336841319E+03  0.28448074847E+03 -0.15456729332E+03  0.13503313795E+04  0.95000000000E+03 0.  0.
<mgrwt>
<rscale>  0 0.28467909E+04</rscale>
<asrwt>0</asrwt>
<pdfrwt beam="2">  1        2 0.34783723E+00 0.28467909E+04</pdfrwt>
<pdfrwt beam="1">  1       -2 0.13786321E+00 0.28467909E+04</pdfrwt>
<totfact> 0.15456306E+00</totfact>
</mgrwt>
</event>
<event>
 4    1  0.1308745E-008  0.2598690E+04  0.7816531E-02  0.8368646E-01
         -2   -1    0    0    0  501 -0.00000000000E+00  0.00000000000E+00  0.12075565632E+04  0.12075565632E+04  0.00000000000E+00 0. -1.
          2   -1    0    0  501    0  0.00000000000E+00 -0.00000000000E+00 -0.13981100627E+04  0.13981100627E+04  0.00000000000E+00 0.  1.
    2000013    1    1    2    0    0 -0.63977979244E+03 -0.60759266000E+03 -0.95489051445E+01  0.12965639995E+04  0.95000000000E+03 0.  0.
   -2000013    1    1    2    0    0  0.63977979244E+03  0.60759266000E+03 -0.18100459437E+03  0.13091026264E+04  0.95000000000E+03 0.  0.
<mgrwt>
<rscale>  0 0.25986897E+04</rscale>
<asrwt>0</asrwt>
<pdfrwt beam="2">  1        2 0.21509385E+00 0.25986897E+04</pdfrwt>
<pdfrwt beam="1">  1       -2 0.18577793E+00 0.25986897E+04</pdfrwt>
<totfact> 0.21244529E+00</totfact>
</mgrwt>
</event>
<event>
 4    1  0.1308745E-008  0.2031309E+04  0.7816531E-02  0.8592121E-01
          1   -1    0    0  501    0  0.00000000000E+00  0.00000000000E+00  0.19716948067E+04  0.19716948067E+04  0.00000000000E+00 0.  1.
         -1   -1    0    0    0  501 -0.00000000000E+00 -0.00000000000E+00 -0.52318155778E+03  0.52318155778E+03  0.00000000000E+00 0. -1.
    2000013    1    1    2    0    0 -0.27455145754E+03  0.22997481167E+03  0.68979127346E+03  0.12274277648E+04  0.95000000000E+03 0.  0.
   -2000013    1    1    2    0    0  0.27455145754E+03 -0.22997481167E+03  0.75872197549E+03  0.12674485997E+04  0.95000000000E+03 0.  0.
<mgrwt>
<rscale>  0 0.20313093E+04</rscale>
<asrwt>0</asrwt>
<pdfrwt beam="1">  1        1 0.30333766E+00 0.20313093E+04</pdfrwt>
<pdfrwt beam="2">  1       -1 0.80489471E-01 0.20313093E+04</pdfrwt>
<totfact> 0.44365038E+00</totfact>
</mgrwt>
</event>
<event>
 4    1  0.1308745E-008  0.2180151E+04  0.7816531E-02  0.8526735E-01
          2   -1    0    0  501    0  0.00000000000E+00  0.00000000000E+00  0.45956081140E+03  0.45956081140E+03  0.00000000000E+00 0.  1.
         -2   -1    0    0    0  501 -0.00000000000E+00 -0.00000000000E+00 -0.25856521747E+04  0.25856521747E+04  0.00000000000E+00 0. -1.
    2000013    1    1    2    0    0 -0.38502162714E+03 -0.32829316469E+03 -0.13039519044E+04  0.16908011782E+04  0.95000000000E+03 0.  0.
   -2000013    1    1    2    0    0  0.38502162714E+03  0.32829316469E+03 -0.82213945888E+03  0.13544118078E+04  0.95000000000E+03 0.  0.
<mgrwt>
<rscale>  0 0.21801508E+04</rscale>
<asrwt>0</asrwt>
<pdfrwt beam="1">  1        2 0.70701664E-01 0.21801508E+04</pdfrwt>
<pdfrwt beam="2">  1       -2 0.39779264E+00 0.21801508E+04</pdfrwt>
<totfact> 0.47775432E-01</totfact>
</mgrwt>
</event>
<event>
 4    1  0.1308745E-008  0.2481934E+04  0.7816531E-02  0.8409450E-01
          1   -1    0    0  501    0  0.00000000000E+00  0.00000000000E+00  0.20299725091E+04  0.20299725091E+04  0.00000000000E+00 0.  1.
         -1   -1    0    0    0  501 -0.00000000000E+00 -0.00000000000E+00 -0.75863076091E+03  0.75863076091E+03  0.00000000000E+00 0. -1.
    2000013    1    1    2    0    0  0.79842848626E+03  0.33892804905E+01  0.63593272510E+03  0.13944210145E+04  0.95000000000E+03 0.  0.
   -2000013    1    1    2    0    0 -0.79842848626E+03 -0.33892804905E+01  0.63540902310E+03  0.13941822555E+04  0.95000000000E+03 0.  0.
<mgrwt>
<rscale>  0 0.24819344E+04</rscale>
<asrwt>0</asrwt>
<pdfrwt beam="1">  1        1 0.31230346E+00 0.24819344E+04</pdfrwt>
<pdfrwt beam="2">  1       -1 0.11671243E+00 0.24819344E+04</pdfrwt>
<totfact> 0.16756662E+00</totfact>
</mgrwt>
</event>
<event>
 4    1  0.1308745E-008  0.2052273E+04  0.7816531E-02  0.8582564E-01
          2   -1    0    0  501    0  0.00000000000E+00  0.00000000000E+00  0.57975915470E+03  0.57975915470E+03  0.00000000000E+00 0. -1.
         -2   -1    0    0    0  501 -0.00000000000E+00 -0.00000000000E+00 -0.18161949333E+04  0.18161949333E+04  0.00000000000E+00 0.  1.
    2000013    1    1    2    0    0  0.97166967230E+02 -0.30783781125E+03 -0.36714500897E+03  0.10684104994E+04  0.95000000000E+03 0.  0.
   -2000013    1    1    2    0    0 -0.97166967230E+02  0.30783781125E+03 -0.86929076964E+03  0.13275435886E+04  0.95000000000E+03 0.  0.
<mgrwt>
<rscale>  0 0.20522725E+04</rscale>
<asrwt>0</asrwt>
<pdfrwt beam="1">  1        2 0.89193714E-01 0.20522725E+04</pdfrwt>
<pdfrwt beam="2">  1       -2 0.27941461E+00 0.20522725E+04</pdfrwt>
<totfact> 0.20313749E+00</totfact>
</mgrwt>
</event>
<event>
 4    1  0.1308745E-008  0.2068615E+04  0.7816531E-02  0.8575196E-01
          2   -1    0    0  501    0  0.00000000000E+00  0.00000000000E+00  0.15681101736E+04  0.15681101736E+04  0.00000000000E+00 0.  1.
         -2   -1    0    0    0  501 -0.00000000000E+00 -0.00000000000E+00 -0.68221753226E+03  0.68221753226E+03  0.00000000000E+00 0. -1.
    2000013    1    1    2    0    0 -0.16943064709E+03  0.37860677376E+01  0.37995301639E+02  0.96574568155E+03  0.95000000000E+03 0.  0.
   -2000013    1    1    2    0    0  0.16943064709E+03 -0.37860677376E+01  0.84789733966E+03  0.12845820243E+04  0.95000000000E+03 0.  0.
<mgrwt>
<rscale>  0 0.20686152E+04</rscale>
<asrwt>0</asrwt>
<pdfrwt beam="1">  1        2 0.24124772E+00 0.20686152E+04</pdfrwt>
<pdfrwt beam="2">  1       -2 0.10495654E+00 0.20686152E+04</pdfrwt>
<totfact> 0.79008258E+00</totfact>
</mgrwt>
</event>
<event>
 4    1  0.1308745E-008  0.4724626E+04  0.7816531E-02  0.7872450E-01
         -2   -1    0    0    0  501 -0.00000000000E+00  0.00000000000E+00  0.26270424569E+04  0.26270424569E+04  0.00000000000E+00 0. -1.
          2   -1    0    0  501    0  0.00000000000E+00 -0.00000000000E+00 -0.21242604313E+04  0.21242604313E+04  0.00000000000E+00 0.  1.
    2000013    1    1    2    0    0  0.14632778799E+04  0.15065995531E+04  0.77102707094E+03  0.24306392392E+04  0.95000000000E+03 0.  0.
   -2000013    1    1    2    0    0 -0.14632778799E+04 -0.15065995531E+04 -0.26824504539E+03  0.23206636489E+04  0.95000000000E+03 0.  0.
<mgrwt>
<rscale>  0 0.47246258E+04</rscale>
<asrwt>0</asrwt>
<pdfrwt beam="2">  1        2 0.32680930E+00 0.47246258E+04</pdfrwt>
<pdfrwt beam="1">  1       -2 0.40416038E+00 0.47246258E+04</pdfrwt>
<totfact> 0.29554725E-02</totfact>
</mgrwt>
</event>
<event>
 4    1  0.1308745E-008  0.3033515E+04  0.7816531E-02  0.8234225E-01
         -2   -1    0    0    0  501 -0.00000000000E+00  0.00000000000E+00  0.72570477507E+03  0.72570477507E+03  0.00000000000E+00 0. -1.
          2   -1    0    0  501    0  0.00000000000E+00 -0.00000000000E+00 -0.31700948340E+04  0.31700948340E+04  0.00000000000E+00 0.  1.
    2000013    1    1    2    0    0 -0.30018645752E+02  0.89132456699E+03 -0.22518772994E+03  0.13223350999E+04  0.95000000000E+03 0.  0.
   -2000013    1    1    2    0    0  0.30018645752E+02 -0.89132456699E+03 -0.22192023290E+04  0.25734645092E+04  0.95000000000E+03 0.  0.
<mgrwt>
<rscale>  0 0.30335148E+04</rscale>
<asrwt>0</asrwt>
<pdfrwt beam="2">  1        2 0.48770689E+00 0.30335148E+04</pdfrwt>
<pdfrwt beam="1">  1       -2 0.11164689E+00 0.30335148E+04</pdfrwt>
<totfact> 0.73317306E-01</totfact>
</mgrwt>
</event>
<event>
 4    1  0.1308745E-008  0.2641391E+04  0.7816531E-02  0.8354276E-01
          2   -1    0    0  501    0  0.00000000000E+00  0.00000000000E+00  0.18105838784E+04  0.18105838784E+04  0.00000000000E+00 0.  1.
         -2   -1    0    0    0  501 -0.00000000000E+00 -0.00000000000E+00 -0.96335563033E+03  0.96335563033E+03  0.00000000000E+00 0. -1.
    2000013    1    1    2    0    0  0.80613672619E+03  0.18192581386E+03  0.84208574008E+03  0.15147811118E+04  0.95000000000E+03 0.  0.
   -2000013    1    1    2    0    0 -0.80613672619E+03 -0.18192581386E+03  0.51425079566E+01  0.12591583969E+04  0.95000000000E+03 0.  0.
<mgrwt>
<rscale>  0 0.26413907E+04</rscale>
<asrwt>0</asrwt>
<pdfrwt beam="1">  1        2 0.27855137E+00 0.26413907E+04</pdfrwt>
<pdfrwt beam="2">  1       -2 0.14820856E+00 0.26413907E+04</pdfrwt>
<totfact> 0.23214913E+00</totfact>
</mgrwt>
</event>
<event>
 4    1  0.1308745E-008  0.2265534E+04  0.7816531E-02  0.8491636E-01
          1   -1    0    0  501    0  0.00000000000E+00  0.00000000000E+00  0.13170038856E+04  0.13170038856E+04  0.00000000000E+00 0.  1.
         -1   -1    0    0    0  501 -0.00000000000E+00 -0.00000000000E+00 -0.97430290866E+03  0.97430290866E+03  0.00000000000E+00 0. -1.
    2000013    1    1    2    0    0  0.38352389556E+03  0.46883225318E+03  0.52685172072E+02  0.11279051323E+04  0.95000000000E+03 0.  0.
   -2000013    1    1    2    0    0 -0.38352389556E+03 -0.46883225318E+03  0.29001580490E+03  0.11634016620E+04  0.95000000000E+03 0.  0.
<mgrwt>
<rscale>  0 0.22655337E+04</rscale>
<asrwt>0</asrwt>
<pdfrwt beam="1">  1        1 0.20261598E+00 0.22655337E+04</pdfrwt>
<pdfrwt beam="2">  1       -1 0.14989276E+00 0.22655337E+04</pdfrwt>
<totfact> 0.27878142E+00</totfact>
</mgrwt>
</event>
<event>
 4    1  0.1308745E-008  0.2920970E+04  0.7816531E-02  0.8266666E-01
         -2   -1    0    0    0  501 -0.00000000000E+00  0.00000000000E+00  0.21159487456E+04  0.21159487456E+04  0.00000000000E+00 0. -1.
          2   -1    0    0  501    0  0.00000000000E+00 -0.00000000000E+00 -0.10080661990E+04  0.10080661990E+04  0.00000000000E+00 0.  1.
    2000013    1    1    2    0    0  0.78751390889E+03  0.73994925236E+03  0.82198892635E+03  0.16570663378E+04  0.95000000000E+03 0.  0.
   -2000013    1    1    2    0    0 -0.78751390889E+03 -0.73994925236E+03  0.28589362024E+03  0.14669486068E+04  0.95000000000E+03 0.  0.
<mgrwt>
<rscale>  0 0.29209700E+04</rscale>
<asrwt>0</asrwt>
<pdfrwt beam="2">  1        2 0.15508711E+00 0.29209700E+04</pdfrwt>
<pdfrwt beam="1">  1       -2 0.32553057E+00 0.29209700E+04</pdfrwt>
<totfact> 0.47449181E-01</totfact>
</mgrwt>
</event>
<event>
 4    1  0.1308745E-008  0.2348249E+04  0.7816531E-02  0.8459137E-01
          3   -1    0    0  501    0  0.00000000000E+00  0.00000000000E+00  0.52785224081E+03  0.52785224081E+03  0.00000000000E+00 0.  1.
         -3   -1    0    0    0  501 -0.00000000000E+00 -0.00000000000E+00 -0.26116550699E+04  0.26116550699E+04  0.00000000000E+00 0. -1.
    2000013    1    1    2    0    0  0.66255967627E+03  0.12068114023E+03 -0.12425283533E+04  0.17029169008E+04  0.95000000000E+03 0.  0.
   -2000013    1    1    2    0    0 -0.66255967627E+03 -0.12068114023E+03 -0.84127447577E+03  0.14365904099E+04  0.95000000000E+03 0.  0.
<mgrwt>
<rscale>  0 0.23482487E+04</rscale>
<asrwt>0</asrwt>
<pdfrwt beam="1">  1        3 0.81208037E-01 0.23482487E+04</pdfrwt>
<pdfrwt beam="2">  1       -3 0.40179309E+00 0.23482487E+04</pdfrwt>
<totfact> 0.34301723E-02</totfact>
</mgrwt>
</event>
<event>
 4    1  0.1308745E-008  0.2930221E+04  0.7816531E-02  0.8263942E-01
         -2   -1    0    0    0  501 -0.00000000000E+00  0.00000000000E+00  0.10774917868E+04  0.10774917868E+04  0.00000000000E+00 0. -1.
          2   -1    0    0  501    0  0.00000000000E+00 -0.00000000000E+00 -0.19921721248E+04  0.19921721248E+04  0.00000000000E+00 0.  1.
    2000013    1    1    2    0    0  0.73367827308E+03 -0.83940626113E+03 -0.49305696485E+03  0.15454746359E+04  0.95000000000E+03 0.  0.
   -2000013    1    1    2    0    0 -0.73367827308E+03  0.83940626113E+03 -0.42162337315E+03  0.15241892758E+04  0.95000000000E+03 0.  0.
<mgrwt>
<rscale>  0 0.29302212E+04</rscale>
<asrwt>0</asrwt>
<pdfrwt beam="2">  1        2 0.30648801E+00 0.29302212E+04</pdfrwt>
<pdfrwt beam="1">  1       -2 0.16576797E+00 0.29302212E+04</pdfrwt>
<totfact> 0.13281212E+00</totfact>
</mgrwt>
</event>
<event>
 4    1  0.1308745E-008  0.2859524E+04  0.7816531E-02  0.8285023E-01
         -2   -1    0    0    0  501 -0.00000000000E+00  0.00000000000E+00  0.95040430304E+03  0.95040430304E+03  0.00000000000E+00 0. -1.
          2   -1    0    0  501    0  0.00000000000E+00 -0.00000000000E+00 -0.21508951991E+04  0.21508951991E+04  0.00000000000E+00 0.  1.
    2000013    1    1    2    0    0  0.74784696682E+03 -0.49610559483E+03  0.28723136824E+02  0.13071805023E+04  0.95000000000E+03 0.  0.
   -2000013    1    1    2    0    0 -0.74784696682E+03  0.49610559483E+03 -0.12292140329E+04  0.17941189999E+04  0.95000000000E+03 0.  0.
<mgrwt>
<rscale>  0 0.28595245E+04</rscale>
<asrwt>0</asrwt>
<pdfrwt beam="2">  1        2 0.33090695E+00 0.28595245E+04</pdfrwt>
<pdfrwt beam="1">  1       -2 0.14621605E+00 0.28595245E+04</pdfrwt>
<totfact> 0.15273876E+00</totfact>
</mgrwt>
</event>
<event>
 4    1  0.1308745E-008  0.3037099E+04  0.7816531E-02  0.8233216E-01
          2   -1    0    0  501    0  0.00000000000E+00  0.00000000000E+00  0.31113261917E+04  0.31113261917E+04  0.00000000000E+00 0.  1.
         -2   -1    0    0    0  501 -0.00000000000E+00 -0.00000000000E+00 -0.74116071568E+03  0.74116071568E+03  0.00000000000E+00 0. -1.
    2000013    1    1    2    0    0 -0.92221822908E+03  0.12167874592E+02  0.24191465457E+03  0.13459781645E+04  0.95000000000E+03 0.  0.
   -2000013    1    1    2    0    0  0.92221822908E+03 -0.12167874592E+02  0.21282508215E+04  0.25065087429E+04  0.95000000000E+03 0.  0.
<mgrwt>
<rscale>  0 0.30370991E+04</rscale>
<asrwt>0</asrwt>
<pdfrwt beam="1">  1        2 0.47866556E+00 0.30370991E+04</pdfrwt>
<pdfrwt beam="2">  1       -2 0.11402473E+00 0.30370991E+04</pdfrwt>
<totfact> 0.75983128E-01</totfact>
</mgrwt>
</event>
<event>
 4    1  0.1308745E-008  0.2326218E+04  0.7816531E-02  0.8467655E-01
         -2   -1    0    0    0  501 -0.00000000000E+00  0.00000000000E+00  0.98024255025E+03  0.98024255025E+03  0.00000000000E+00 0.  1.
          2   -1    0    0  501    0  0.00000000000E+00 -0.00000000000E+00 -0.13800896683E+04  0.13800896683E+04  0.00000000000E+00 0. -1.
    2000013    1    1    2    0    0 -0.37124785244E+02  0.56827359832E+03  0.16026036698E+03  0.11191499084E+04  0.95000000000E+03 0.  0.
   -2000013    1    1    2    0    0  0.37124785244E+02 -0.56827359832E+03 -0.56010748499E+03  0.12411823101E+04  0.95000000000E+03 0.  0.
<mgrwt>
<rscale>  0 0.23262181E+04</rscale>
<asrwt>0</asrwt>
<pdfrwt beam="2">  1        2 0.21232149E+00 0.23262181E+04</pdfrwt>
<pdfrwt beam="1">  1       -2 0.15080655E+00 0.23262181E+04</pdfrwt>
<totfact> 0.39706160E+00</totfact>
</mgrwt>
</event>
<event>
 4    1  0.1308745E-008  0.2147312E+04  0.7816531E-02  0.8540684E-01
          2   -1    0    0  501    0  0.00000000000E+00  0.00000000000E+00  0.26448515716E+04  0.26448515716E+04  0.00000000000E+00 0.  1.
         -2   -1    0    0    0  501 -0.00000000000E+00 -0.00000000000E+00 -0.43584199397E+03  0.43584199397E+03  0.00000000000E+00 0. -1.
    2000013    1    1    2    0    0  0.28159679020E+03 -0.17560820645E+03  0.16415070154E+04  0.19254039255E+04  0.95000000000E+03 0.  0.
   -2000013    1    1    2    0    0 -0.28159679020E+03  0.17560820645E+03  0.56750256218E+03  0.11552896401E+04  0.95000000000E+03 0.  0.
<mgrwt>
<rscale>  0 0.21473122E+04</rscale>
<asrwt>0</asrwt>
<pdfrwt beam="1">  1        2 0.40690023E+00 0.21473122E+04</pdfrwt>
<pdfrwt beam="2">  1       -2 0.67052616E-01 0.21473122E+04</pdfrwt>
<totfact> 0.53686383E+00</totfact>
</mgrwt>
</event>
<event>
 4    1  0.1308745E-008  0.2897339E+04  0.7816531E-02  0.8273669E-01
         -2   -1    0    0    0  501 -0.00000000000E+00  0.00000000000E+00  0.10760392120E+04  0.10760392120E+04  0.00000000000E+00 0. -1.
          2   -1    0    0  501    0  0.00000000000E+00 -0.00000000000E+00 -0.19503415569E+04  0.19503415569E+04  0.00000000000E+00 0.  1.
    2000013    1    1    2    0    0  0.99942458469E+03  0.26883308617E+03 -0.80648543805E+03  0.16198887278E+04  0.95000000000E+03 0.  0.
   -2000013    1    1    2    0    0 -0.99942458469E+03 -0.26883308617E+03 -0.67816906795E+02  0.14064920411E+04  0.95000000000E+03 0.  0.
<mgrwt>
<rscale>  0 0.28973395E+04</rscale>
<asrwt>0</asrwt>
<pdfrwt beam="2">  1        2 0.30005255E+00 0.28973395E+04</pdfrwt>
<pdfrwt beam="1">  1       -2 0.16554450E+00 0.28973395E+04</pdfrwt>
<totfact> 0.14102423E+00</totfact>
</mgrwt>
</event>
<event>
 4    1  0.1308745E-008  0.2501212E+04  0.7816531E-02  0.8402554E-01
         -2   -1    0    0    0  501 -0.00000000000E+00  0.00000000000E+00  0.14001550233E+04  0.14001550233E+04  0.00000000000E+00 0. -1.
          2   -1    0    0  501    0  0.00000000000E+00 -0.00000000000E+00 -0.11170297964E+04  0.11170297964E+04  0.00000000000E+00 0.  1.
    2000013    1    1    2    0    0 -0.80799728887E+03  0.92768482513E+02  0.13449849689E+03  0.12577978597E+04  0.95000000000E+03 0.  0.
   -2000013    1    1    2    0    0  0.80799728887E+03 -0.92768482513E+02  0.14862672996E+03  0.12593869600E+04  0.95000000000E+03 0.  0.
<mgrwt>
<rscale>  0 0.25012116E+04</rscale>
<asrwt>0</asrwt>
<pdfrwt beam="2">  1        2 0.17185074E+00 0.25012116E+04</pdfrwt>
<pdfrwt beam="1">  1       -2 0.21540847E+00 0.25012116E+04</pdfrwt>
<totfact> 0.20046496E+00</totfact>
</mgrwt>
</event>
<event>
 4    1  0.1308745E-008  0.3105540E+04  0.7816531E-02  0.8214219E-01
          2   -1    0    0  501    0  0.00000000000E+00  0.00000000000E+00  0.16470792876E+04  0.16470792876E+04  0.00000000000E+00 0.  1.
         -2   -1    0    0    0  501 -0.00000000000E+00 -0.00000000000E+00 -0.14638609126E+04  0.14638609126E+04  0.00000000000E+00 0. -1.
    2000013    1    1    2    0    0 -0.73457769084E+03  0.61973838605E+03  0.85773635589E+03  0.16005910493E+04  0.95000000000E+03 0.  0.
   -2000013    1    1    2    0    0  0.73457769084E+03 -0.61973838605E+03 -0.67451798085E+03  0.15103491509E+04  0.95000000000E+03 0.  0.
<mgrwt>
<rscale>  0 0.31055402E+04</rscale>
<asrwt>0</asrwt>
<pdfrwt beam="1">  1        2 0.25339681E+00 0.31055402E+04</pdfrwt>
<pdfrwt beam="2">  1       -2 0.22520937E+00 0.31055402E+04</pdfrwt>
<totfact> 0.81620420E-01</totfact>
</mgrwt>
</event>
<event>
 4    1  0.1308745E-008  0.2203375E+04  0.7816531E-02  0.8517025E-01
         -1   -1    0    0    0  501 -0.00000000000E+00  0.00000000000E+00  0.90107271374E+03  0.90107271374E+03  0.00000000000E+00 0. -1.
          1   -1    0    0  501    0  0.00000000000E+00 -0.00000000000E+00 -0.13469674551E+04  0.13469674551E+04  0.00000000000E+00 0.  1.
    2000013    1    1    2    0    0  0.14297157582E+03 -0.53637018067E+03 -0.27958646085E+03  0.11352543465E+04  0.95000000000E+03 0.  0.
   -2000013    1    1    2    0    0 -0.14297157582E+03  0.53637018067E+03 -0.16630828052E+03  0.11127858223E+04  0.95000000000E+03 0.  0.
<mgrwt>
<rscale>  0 0.22033752E+04</rscale>
<asrwt>0</asrwt>
<pdfrwt beam="2">  1        1 0.20722576E+00 0.22033752E+04</pdfrwt>
<pdfrwt beam="1">  1       -1 0.13862657E+00 0.22033752E+04</pdfrwt>
<totfact> 0.32832866E+00</totfact>
</mgrwt>
</event>
<event>
 4    1  0.1308745E-008  0.2667696E+04  0.7816531E-02  0.8345563E-01
          2   -1    0    0  501    0  0.00000000000E+00  0.00000000000E+00  0.21910265081E+04  0.21910265081E+04  0.00000000000E+00 0.  1.
         -2   -1    0    0    0  501 -0.00000000000E+00 -0.00000000000E+00 -0.81201670505E+03  0.81201670505E+03  0.00000000000E+00 0. -1.
    2000013    1    1    2    0    0 -0.78836645121E+03 -0.95347505213E+02  0.13113014008E+03  0.12451136180E+04  0.95000000000E+03 0.  0.
   -2000013    1    1    2    0    0  0.78836645121E+03  0.95347505213E+02  0.12478796630E+04  0.17579295951E+04  0.95000000000E+03 0.  0.
<mgrwt>
<rscale>  0 0.26676957E+04</rscale>
<asrwt>0</asrwt>
<pdfrwt beam="1">  1        2 0.33708100E+00 0.26676957E+04</pdfrwt>
<pdfrwt beam="2">  1       -2 0.12492565E+00 0.26676957E+04</pdfrwt>
<totfact> 0.22065161E+00</totfact>
</mgrwt>
</event>
<event>
 4    1  0.1308745E-008  0.2913070E+04  0.7816531E-02  0.8268999E-01
          2   -1    0    0  501    0  0.00000000000E+00  0.00000000000E+00  0.22062414918E+04  0.22062414918E+04  0.00000000000E+00 0.  1.
         -2   -1    0    0    0  501 -0.00000000000E+00 -0.00000000000E+00 -0.96158776632E+03  0.96158776632E+03  0.00000000000E+00 0. -1.
    2000013    1    1    2    0    0 -0.49695923316E+03 -0.37449637220E+03 -0.36945168214E+03  0.11942405778E+04  0.95000000000E+03 0.  0.
   -2000013    1    1    2    0    0  0.49695923316E+03  0.37449637220E+03  0.16141054076E+04  0.19735886803E+04  0.95000000000E+03 0.  0.
<mgrwt>
<rscale>  0 0.29130704E+04</rscale>
<asrwt>0</asrwt>
<pdfrwt beam="1">  1        2 0.33942177E+00 0.29130704E+04</pdfrwt>
<pdfrwt beam="2">  1       -2 0.14793658E+00 0.29130704E+04</pdfrwt>
<totfact> 0.13725197E+00</totfact>
</mgrwt>
</event>
<event>
 4    1  0.1308745E-008  0.2563188E+04  0.7816531E-02  0.8380814E-01
         -2   -1    0    0    0  501 -0.00000000000E+00  0.00000000000E+00  0.38573935013E+03  0.38573935013E+03  0.00000000000E+00 0. -1.
          2   -1    0    0  501    0  0.00000000000E+00 -0.00000000000E+00 -0.42580138016E+04  0.42580138016E+04  0.00000000000E+00 0.  1.
    2000013    1    1    2    0    0 -0.78412740503E+03  0.28299350208E+03 -0.23206397795E+04  0.26425007277E+04  0.95000000000E+03 0.  0.
   -2000013    1    1    2    0    0  0.78412740503E+03 -0.28299350208E+03 -0.15516346720E+04  0.20012524241E+04  0.95000000000E+03 0.  0.
<mgrwt>
<rscale>  0 0.25631882E+04</rscale>
<asrwt>0</asrwt>
<pdfrwt beam="2">  1        2 0.65507907E+00 0.25631882E+04</pdfrwt>
<pdfrwt beam="1">  1       -2 0.59344513E-01 0.25631882E+04</pdfrwt>
<totfact> 0.48826427E-01</totfact>
</mgrwt>
</event>
<event>
 4    1  0.1308745E-008  0.2136652E+04  0.7816531E-02  0.8545267E-01
         -2   -1    0    0    0  501 -0.00000000000E+00  0.00000000000E+00  0.62053254305E+03  0.62053254305E+03  0.00000000000E+00 0. -1.
          2   -1    0    0  501    0  0.00000000000E+00 -0.00000000000E+00 -0.18392598338E+04  0.18392598338E+04  0.00000000000E+00 0.  1.
    2000013    1    1    2    0    0  0.65691134058E+01 -0.47294444270E+03 -0.46789270553E+03  0.11598030794E+04  0.95000000000E+03 0.  0.
   -2000013    1    1    2    0    0 -0.65691134058E+01  0.47294444270E+03 -0.75083458526E+03  0.12999892975E+04  0.95000000000E+03 0.  0.
<mgrwt>
<rscale>  0 0.21366521E+04</rscale>
<asrwt>0</asrwt>
<pdfrwt beam="2">  1        2 0.28296305E+00 0.21366521E+04</pdfrwt>
<pdfrwt beam="1">  1       -2 0.95466545E-01 0.21366521E+04</pdfrwt>
<totfact> 0.69471089E+00</totfact>
</mgrwt>
</event>
<event>
 4    1  0.1308745E-008  0.3551377E+04  0.7816531E-02  0.8101721E-01
         -2   -1    0    0    0  501 -0.00000000000E+00  0.00000000000E+00  0.20037941237E+04  0.20037941237E+04  0.00000000000E+00 0. -1.
          2   -1    0    0  501    0  0.00000000000E+00 -0.00000000000E+00 -0.15735500134E+04  0.15735500134E+04  0.00000000000E+00 0.  1.
    2000013    1    1    2    0    0 -0.14102831920E+04  0.48743220067E+03  0.58805450801E+02  0.17698720047E+04  0.95000000000E+03 0.  0.
   -2000013    1    1    2    0    0  0.14102831920E+04 -0.48743220067E+03  0.37143865958E+03  0.18074721325E+04  0.95000000000E+03 0.  0.
<mgrwt>
<rscale>  0 0.35513773E+04</rscale>
<asrwt>0</asrwt>
<pdfrwt beam="2">  1        2 0.24208462E+00 0.35513773E+04</pdfrwt>
<pdfrwt beam="1">  1       -2 0.30827602E+00 0.35513773E+04</pdfrwt>
<totfact> 0.26696257E-01</totfact>
</mgrwt>
</event>
<event>
 4    1  0.1308745E-008  0.2707904E+04  0.7816531E-02  0.8332445E-01
         -2   -1    0    0    0  501 -0.00000000000E+00  0.00000000000E+00  0.91230041262E+03  0.91230041262E+03  0.00000000000E+00 0. -1.
          2   -1    0    0  501    0  0.00000000000E+00 -0.00000000000E+00 -0.20094110501E+04  0.20094110501E+04  0.00000000000E+00 0.  1.
    2000013    1    1    2    0    0  0.57762552777E+03  0.75272748486E+03 -0.73679109255E+03  0.15315387788E+04  0.95000000000E+03 0.  0.
   -2000013    1    1    2    0    0 -0.57762552777E+03 -0.75272748486E+03 -0.36031954495E+03  0.13901726840E+04  0.95000000000E+03 0.  0.
<mgrwt>
<rscale>  0 0.27079044E+04</rscale>
<asrwt>0</asrwt>
<pdfrwt beam="2">  1        2 0.30914016E+00 0.27079044E+04</pdfrwt>
<pdfrwt beam="1">  1       -2 0.14035391E+00 0.27079044E+04</pdfrwt>
<totfact> 0.20651001E+00</totfact>
</mgrwt>
</event>
<event>
 4    1  0.1308745E-008  0.2902124E+04  0.7816531E-02  0.8272246E-01
         -2   -1    0    0    0  501 -0.00000000000E+00  0.00000000000E+00  0.26052043159E+04  0.26052043159E+04  0.00000000000E+00 0. -1.
          2   -1    0    0  501    0  0.00000000000E+00 -0.00000000000E+00 -0.80822121499E+03  0.80822121499E+03  0.00000000000E+00 0.  1.
    2000013    1    1    2    0    0 -0.80619440531E+03 -0.72495811016E+03  0.70320388254E+03  0.16039044177E+04  0.95000000000E+03 0.  0.
   -2000013    1    1    2    0    0  0.80619440531E+03  0.72495811016E+03  0.10937792184E+04  0.18095211132E+04  0.95000000000E+03 0.  0.
<mgrwt>
<rscale>  0 0.29021243E+04</rscale>
<asrwt>0</asrwt>
<pdfrwt beam="2">  1        2 0.12434173E+00 0.29021243E+04</pdfrwt>
<pdfrwt beam="1">  1       -2 0.40080066E+00 0.29021243E+04</pdfrwt>
<totfact> 0.21489210E-01</totfact>
</mgrwt>
</event>
<event>
 4    1  0.1308745E-008  0.2300510E+04  0.7816531E-02  0.8477720E-01
          2   -1    0    0  501    0  0.00000000000E+00  0.00000000000E+00  0.28614814682E+04  0.28614814682E+04  0.00000000000E+00 0.  1.
         -2   -1    0    0    0  501 -0.00000000000E+00 -0.00000000000E+00 -0.46237803611E+03  0.46237803611E+03  0.00000000000E+00 0. -1.
    2000013    1    1    2    0    0 -0.63846201579E+03  0.27548094758E+02  0.13590968171E+04  0.17770866049E+04  0.95000000000E+03 0.  0.
   -2000013    1    1    2    0    0  0.63846201579E+03 -0.27548094758E+02  0.10400066150E+04  0.15467728994E+04  0.95000000000E+03 0.  0.
<mgrwt>
<rscale>  0 0.23005097E+04</rscale>
<asrwt>0</asrwt>
<pdfrwt beam="1">  1        2 0.44022790E+00 0.23005097E+04</pdfrwt>
<pdfrwt beam="2">  1       -2 0.71135085E-01 0.23005097E+04</pdfrwt>
<totfact> 0.34531416E+00</totfact>
</mgrwt>
</event>
<event>
 4    1  0.1308745E-008  0.2533107E+04  0.7816531E-02  0.8391285E-01
          2   -1    0    0  501    0  0.00000000000E+00  0.00000000000E+00  0.22084801401E+04  0.22084801401E+04  0.00000000000E+00 0.  1.
         -2   -1    0    0    0  501 -0.00000000000E+00 -0.00000000000E+00 -0.72636283256E+03  0.72636283256E+03  0.00000000000E+00 0. -1.
    2000013    1    1    2    0    0 -0.13457740348E+03  0.79510283416E+03  0.47849378304E+03  0.13348242936E+04  0.95000000000E+03 0.  0.
   -2000013    1    1    2    0    0  0.13457740348E+03 -0.79510283416E+03  0.10036235245E+04  0.16000186791E+04  0.95000000000E+03 0.  0.
<mgrwt>
<rscale>  0 0.25331071E+04</rscale>
<asrwt>0</asrwt>
<pdfrwt beam="1">  1        2 0.33976617E+00 0.25331071E+04</pdfrwt>
<pdfrwt beam="2">  1       -2 0.11174813E+00 0.25331071E+04</pdfrwt>
<totfact> 0.28722532E+00</totfact>
</mgrwt>
</event>
<event>
 4    1  0.1308745E-008  0.2394127E+04  0.7816531E-02  0.8441705E-01
         -2   -1    0    0    0  501 -0.00000000000E+00  0.00000000000E+00  0.75311386811E+03  0.75311386811E+03  0.00000000000E+00 0. -1.
          2   -1    0    0  501    0  0.00000000000E+00 -0.00000000000E+00 -0.19027157253E+04  0.19027157253E+04  0.00000000000E+00 0.  1.
    2000013    1    1    2    0    0  0.52467109918E+03  0.49203677283E+03 -0.44792354203E+03  0.12729946770E+04  0.95000000000E+03 0.  0.
   -2000013    1    1    2    0    0 -0.52467109918E+03 -0.49203677283E+03 -0.70167831515E+03  0.13828349164E+04  0.95000000000E+03 0.  0.
<mgrwt>
<rscale>  0 0.23941275E+04</rscale>
<asrwt>0</asrwt>
<pdfrwt beam="2">  1        2 0.29272550E+00 0.23941275E+04</pdfrwt>
<pdfrwt beam="1">  1       -2 0.11586367E+00 0.23941275E+04</pdfrwt>
<totfact> 0.39415760E+00</totfact>
</mgrwt>
</event>
<event>
 4    1  0.1308745E-008  0.2749613E+04  0.7816531E-02  0.8319085E-01
          2   -1    0    0  501    0  0.00000000000E+00  0.00000000000E+00  0.23903413803E+04  0.23903413803E+04  0.00000000000E+00 0.  1.
         -2   -1    0    0    0  501 -0.00000000000E+00 -0.00000000000E+00 -0.79072074415E+03  0.79072074415E+03  0.00000000000E+00 0. -1.
    2000013    1    1    2    0    0  0.76132309933E+03 -0.46999333591E+03  0.29940585653E+03  0.13388989746E+04  0.95000000000E+03 0.  0.
   -2000013    1    1    2    0    0 -0.76132309933E+03  0.46999333591E+03  0.13002147796E+04  0.18421631498E+04  0.95000000000E+03 0.  0.
<mgrwt>
<rscale>  0 0.27496127E+04</rscale>
<asrwt>0</asrwt>
<pdfrwt beam="1">  1        2 0.36774483E+00 0.27496127E+04</pdfrwt>
<pdfrwt beam="2">  1       -2 0.12164935E+00 0.27496127E+04</pdfrwt>
<totfact> 0.18053436E+00</totfact>
</mgrwt>
</event>
<event>
 4    1  0.1308745E-008  0.2182352E+04  0.7816531E-02  0.8525810E-01
         -2   -1    0    0    0  501 -0.00000000000E+00  0.00000000000E+00  0.11468707259E+04  0.11468707259E+04  0.00000000000E+00 0. -1.
          2   -1    0    0  501    0  0.00000000000E+00 -0.00000000000E+00 -0.10381855513E+04  0.10381855513E+04  0.00000000000E+00 0.  1.
    2000013    1    1    2    0    0  0.15711738132E+03  0.41145866961E+03 -0.25292618332E+03  0.10772445231E+04  0.95000000000E+03 0.  0.
   -2000013    1    1    2    0    0 -0.15711738132E+03 -0.41145866961E+03  0.36161135794E+03  0.11078117541E+04  0.95000000000E+03 0.  0.
<mgrwt>
<rscale>  0 0.21823516E+04</rscale>
<asrwt>0</asrwt>
<pdfrwt beam="2">  1        2 0.15972085E+00 0.21823516E+04</pdfrwt>
<pdfrwt beam="1">  1       -2 0.17644165E+00 0.21823516E+04</pdfrwt>
<totfact> 0.41837913E+00</totfact>
</mgrwt>
</event>
<event>
 4    1  0.1308745E-008  0.2059905E+04  0.7816531E-02  0.8579114E-01
         -2   -1    0    0    0  501 -0.00000000000E+00  0.00000000000E+00  0.61281522828E+03  0.61281522828E+03  0.00000000000E+00 0. -1.
          2   -1    0    0  501    0  0.00000000000E+00 -0.00000000000E+00 -0.17310311612E+04  0.17310311612E+04  0.00000000000E+00 0.  1.
    2000013    1    1    2    0    0 -0.32621402501E+03  0.56157865685E+02 -0.30792318173E+03  0.10520864897E+04  0.95000000000E+03 0.  0.
   -2000013    1    1    2    0    0  0.32621402501E+03 -0.56157865685E+02 -0.81029275119E+03  0.12917598998E+04  0.95000000000E+03 0.  0.
<mgrwt>
<rscale>  0 0.20599051E+04</rscale>
<asrwt>0</asrwt>
<pdfrwt beam="2">  1        2 0.26631249E+00 0.20599051E+04</pdfrwt>
<pdfrwt beam="1">  1       -2 0.94279265E-01 0.20599051E+04</pdfrwt>
<totfact> 0.82671196E+00</totfact>
</mgrwt>
</event>
<event>
 4    1  0.1308745E-008  0.2265171E+04  0.7816531E-02  0.8491782E-01
          2   -1    0    0  501    0  0.00000000000E+00  0.00000000000E+00  0.33956457367E+04  0.33956457367E+04  0.00000000000E+00 0.  1.
         -2   -1    0    0    0  501 -0.00000000000E+00 -0.00000000000E+00 -0.37776313465E+03  0.37776313465E+03  0.00000000000E+00 0. -1.
    2000013    1    1    2    0    0 -0.58799078895E+03  0.13096817551E+02  0.12002210047E+04  0.16397972907E+04  0.95000000000E+03 0.  0.
   -2000013    1    1    2    0    0  0.58799078895E+03 -0.13096817551E+02  0.18176615973E+04  0.21336115806E+04  0.95000000000E+03 0.  0.
<mgrwt>
<rscale>  0 0.22651709E+04</rscale>
<asrwt>0</asrwt>
<pdfrwt beam="1">  1        2 0.52240702E+00 0.22651709E+04</pdfrwt>
<pdfrwt beam="2">  1       -2 0.58117408E-01 0.22651709E+04</pdfrwt>
<totfact> 0.24236697E+00</totfact>
</mgrwt>
</event>
<event>
 4    1  0.1308745E-008  0.2233839E+04  0.7816531E-02  0.8504474E-01
         -2   -1    0    0    0  501 -0.00000000000E+00  0.00000000000E+00  0.58499026165E+03  0.58499026165E+03  0.00000000000E+00 0. -1.
          2   -1    0    0  501    0  0.00000000000E+00 -0.00000000000E+00 -0.21325292953E+04  0.21325292953E+04  0.00000000000E+00 0.  1.
    2000013    1    1    2    0    0 -0.47690391450E+03  0.21448238086E+03 -0.44832059626E+03  0.11734271994E+04  0.95000000000E+03 0.  0.
   -2000013    1    1    2    0    0  0.47690391450E+03 -0.21448238086E+03 -0.10992184374E+04  0.15440923575E+04  0.95000000000E+03 0.  0.
<mgrwt>
<rscale>  0 0.22338387E+04</rscale>
<asrwt>0</asrwt>
<pdfrwt beam="2">  1        2 0.32808142E+00 0.22338387E+04</pdfrwt>
<pdfrwt beam="1">  1       -2 0.89998504E-01 0.22338387E+04</pdfrwt>
<totfact> 0.54273242E+00</totfact>
</mgrwt>
</event>
<event>
 4    1  0.1308745E-008  0.2205994E+04  0.7816531E-02  0.8515938E-01
          2   -1    0    0  501    0  0.00000000000E+00  0.00000000000E+00  0.16137006549E+04  0.16137006549E+04  0.00000000000E+00 0.  1.
         -2   -1    0    0    0  501 -0.00000000000E+00 -0.00000000000E+00 -0.75392039852E+03  0.75392039852E+03  0.00000000000E+00 0. -1.
    2000013    1    1    2    0    0  0.38783649754E+02 -0.53347630700E+03  0.25029588931E+03  0.11185924968E+04  0.95000000000E+03 0.  0.
   -2000013    1    1    2    0    0 -0.38783649754E+02  0.53347630700E+03  0.60948436706E+03  0.12490285566E+04  0.95000000000E+03 0.  0.
<mgrwt>
<rscale>  0 0.22059935E+04</rscale>
<asrwt>0</asrwt>
<pdfrwt beam="1">  1        2 0.24826164E+00 0.22059935E+04</pdfrwt>
<pdfrwt beam="2">  1       -2 0.11598775E+00 0.22059935E+04</pdfrwt>
<totfact> 0.57809351E+00</totfact>
</mgrwt>
</event>
<event>
 4    1  0.1308745E-008  0.2297498E+04  0.7816531E-02  0.8478908E-01
         -2   -1    0    0    0  501 -0.00000000000E+00  0.00000000000E+00  0.11692095174E+04  0.11692095174E+04  0.00000000000E+00 0. -1.
          2   -1    0    0  501    0  0.00000000000E+00 -0.00000000000E+00 -0.11286461973E+04  0.11286461973E+04  0.00000000000E+00 0.  1.
    2000013    1    1    2    0    0 -0.59242506386E+03  0.12622638859E+03  0.24442218170E+03  0.11528845390E+04  0.95000000000E+03 0.  0.
   -2000013    1    1    2    0    0  0.59242506386E+03 -0.12622638859E+03 -0.20385886162E+03  0.11449711756E+04  0.95000000000E+03 0.  0.
<mgrwt>
<rscale>  0 0.22974977E+04</rscale>
<asrwt>0</asrwt>
<pdfrwt beam="2">  1        2 0.17363788E+00 0.22974977E+04</pdfrwt>
<pdfrwt beam="1">  1       -2 0.17987839E+00 0.22974977E+04</pdfrwt>
<totfact> 0.34463264E+00</totfact>
</mgrwt>
</event>
<event>
 4    1  0.1308745E-008  0.2318592E+04  0.7816531E-02  0.8470626E-01
          2   -1    0    0  501    0  0.00000000000E+00  0.00000000000E+00  0.20141421935E+04  0.20141421935E+04  0.00000000000E+00 0.  1.
         -2   -1    0    0    0  501 -0.00000000000E+00 -0.00000000000E+00 -0.66726544777E+03  0.66726544777E+03  0.00000000000E+00 0. -1.
    2000013    1    1    2    0    0  0.15761633627E+03  0.51637270824E+03  0.22555941938E+03  0.11157332723E+04  0.95000000000E+03 0.  0.
   -2000013    1    1    2    0    0 -0.15761633627E+03 -0.51637270824E+03  0.11213173264E+04  0.15656743690E+04  0.95000000000E+03 0.  0.
<mgrwt>
<rscale>  0 0.23185922E+04</rscale>
<asrwt>0</asrwt>
<pdfrwt beam="1">  1        2 0.30986803E+00 0.23185922E+04</pdfrwt>
<pdfrwt beam="2">  1       -2 0.10265622E+00 0.23185922E+04</pdfrwt>
<totfact> 0.46084661E+00</totfact>
</mgrwt>
</event>
<event>
 4    1  0.1308745E-008  0.2146301E+04  0.7816531E-02  0.8541117E-01
          2   -1    0    0  501    0  0.00000000000E+00  0.00000000000E+00  0.10047663763E+04  0.10047663763E+04  0.00000000000E+00 0.  1.
         -2   -1    0    0    0  501 -0.00000000000E+00 -0.00000000000E+00 -0.11461888245E+04  0.11461888245E+04  0.00000000000E+00 0. -1.
    2000013    1    1    2    0    0 -0.48464371357E+03  0.11937479659E+03 -0.65997775428E+02  0.10751676974E+04  0.95000000000E+03 0.  0.
   -2000013    1    1    2    0    0  0.48464371357E+03 -0.11937479659E+03 -0.75424672727E+02  0.10757875034E+04  0.95000000000E+03 0.  0.
<mgrwt>
<rscale>  0 0.21463010E+04</rscale>
<asrwt>0</asrwt>
<pdfrwt beam="1">  1        2 0.15457944E+00 0.21463010E+04</pdfrwt>
<pdfrwt beam="2">  1       -2 0.17633674E+00 0.21463010E+04</pdfrwt>
<totfact> 0.44144108E+00</totfact>
</mgrwt>
</event>
<event>
 4    1  0.1308745E-008  0.3910445E+04  0.7816531E-02  0.8022860E-01
          1   -1    0    0  501    0  0.00000000000E+00  0.00000000000E+00  0.29934290639E+04  0.29934290639E+04  0.00000000000E+00 0.  1.
         -1   -1    0    0    0  501 -0.00000000000E+00 -0.00000000000E+00 -0.12770955869E+04  0.12770955869E+04  0.00000000000E+00 0. -1.
    2000013    1    1    2    0    0  0.89719424178E+02 -0.16034303995E+04  0.22011030616E+03  0.18788260079E+04  0.95000000000E+03 0.  0.
   -2000013    1    1    2    0    0 -0.89719424178E+02  0.16034303995E+04  0.14962231708E+04  0.23916986428E+04  0.95000000000E+03 0.  0.
<mgrwt>
<rscale>  0 0.39104450E+04</rscale>
<asrwt>0</asrwt>
<pdfrwt beam="1">  1        1 0.46052755E+00 0.39104450E+04</pdfrwt>
<pdfrwt beam="2">  1       -1 0.19647625E+00 0.39104450E+04</pdfrwt>
<totfact> 0.75817781E-02</totfact>
</mgrwt>
</event>
<event>
 4    1  0.1308745E-008  0.2449251E+04  0.7816531E-02  0.8421291E-01
         -2   -1    0    0    0  501 -0.00000000000E+00  0.00000000000E+00  0.91019815626E+03  0.91019815626E+03  0.00000000000E+00 0. -1.
          2   -1    0    0  501    0  0.00000000000E+00 -0.00000000000E+00 -0.16476721179E+04  0.16476721179E+04  0.00000000000E+00 0.  1.
    2000013    1    1    2    0    0  0.67625417020E+03  0.22614265187E+03 -0.67985434011E+03  0.13686351323E+04  0.95000000000E+03 0.  0.
   -2000013    1    1    2    0    0 -0.67625417020E+03 -0.22614265187E+03 -0.57619621498E+02  0.11892351418E+04  0.95000000000E+03 0.  0.
<mgrwt>
<rscale>  0 0.24492514E+04</rscale>
<asrwt>0</asrwt>
<pdfrwt beam="2">  1        2 0.25348802E+00 0.24492514E+04</pdfrwt>
<pdfrwt beam="1">  1       -2 0.14003049E+00 0.24492514E+04</pdfrwt>
<totfact> 0.33723241E+00</totfact>
</mgrwt>
</event>
<event>
 4    1  0.1308745E-008  0.2062765E+04  0.7816531E-02  0.8577825E-01
          2   -1    0    0  501    0  0.00000000000E+00  0.00000000000E+00  0.65726703169E+03  0.65726703169E+03  0.00000000000E+00 0.  1.
         -2   -1    0    0    0  501 -0.00000000000E+00 -0.00000000000E+00 -0.16184438499E+04  0.16184438499E+04  0.00000000000E+00 0. -1.
    2000013    1    1    2    0    0  0.19699209795E+03  0.29582997691E+03 -0.27440322250E+03  0.10507703795E+04  0.95000000000E+03 0.  0.
   -2000013    1    1    2    0    0 -0.19699209795E+03 -0.29582997691E+03 -0.68677359567E+03  0.12249405021E+04  0.95000000000E+03 0.  0.
<mgrwt>
<rscale>  0 0.20627649E+04</rscale>
<asrwt>0</asrwt>
<pdfrwt beam="1">  1        2 0.10111801E+00 0.20627649E+04</pdfrwt>
<pdfrwt beam="2">  1       -2 0.24899136E+00 0.20627649E+04</pdfrwt>
<totfact> 0.26715329E+00</totfact>
</mgrwt>
</event>
<event>
 4    1  0.1308745E-008  0.2233217E+04  0.7816531E-02  0.8504728E-01
          2   -1    0    0  501    0  0.00000000000E+00  0.00000000000E+00  0.15097961550E+04  0.15097961550E+04  0.00000000000E+00 0.  1.
         -2   -1    0    0    0  501 -0.00000000000E+00 -0.00000000000E+00 -0.82581634030E+03  0.82581634030E+03  0.00000000000E+00 0. -1.
    2000013    1    1    2    0    0  0.33569862245E+03 -0.46994955786E+03  0.23346207728E+03  0.11360240726E+04  0.95000000000E+03 0.  0.
   -2000013    1    1    2    0    0 -0.33569862245E+03  0.46994955786E+03  0.45051773737E+03  0.11995884226E+04  0.95000000000E+03 0.  0.
<mgrwt>
<rscale>  0 0.22332168E+04</rscale>
<asrwt>0</asrwt>
<pdfrwt beam="1">  1        2 0.23227633E+00 0.22332168E+04</pdfrwt>
<pdfrwt beam="2">  1       -2 0.12704867E+00 0.22332168E+04</pdfrwt>
<totfact> 0.52592162E+00</totfact>
</mgrwt>
</event>
<event>
 4    1  0.1308745E-008  0.2801145E+04  0.7816531E-02  0.8302913E-01
         -2   -1    0    0    0  501 -0.00000000000E+00  0.00000000000E+00  0.96035709952E+03  0.96035709952E+03  0.00000000000E+00 0. -1.
          2   -1    0    0  501    0  0.00000000000E+00 -0.00000000000E+00 -0.20425769376E+04  0.20425769376E+04  0.00000000000E+00 0.  1.
    2000013    1    1    2    0    0  0.58578501354E+02  0.93294894501E+03 -0.79662480145E+02  0.13351671377E+04  0.95000000000E+03 0.  0.
   -2000013    1    1    2    0    0 -0.58578501354E+02 -0.93294894501E+03 -0.10025573579E+04  0.16677668994E+04  0.95000000000E+03 0.  0.
<mgrwt>
<rscale>  0 0.28011450E+04</rscale>
<asrwt>0</asrwt>
<pdfrwt beam="2">  1        2 0.31424260E+00 0.28011450E+04</pdfrwt>
<pdfrwt beam="1">  1       -2 0.14774725E+00 0.28011450E+04</pdfrwt>
<totfact> 0.17166557E+00</totfact>
</mgrwt>
</event>
<event>
 4    1  0.1308745E-008  0.2218824E+04  0.7816531E-02  0.8510634E-01
          2   -1    0    0  501    0  0.00000000000E+00  0.00000000000E+00  0.19186017846E+04  0.19186017846E+04  0.00000000000E+00 0.  1.
         -2   -1    0    0    0  501 -0.00000000000E+00 -0.00000000000E+00 -0.64150632008E+03  0.64150632008E+03  0.00000000000E+00 0. -1.
    2000013    1    1    2    0    0  0.27543110417E+03 -0.12344806869E+03  0.76611850114E+02  0.99973551222E+03  0.95000000000E+03 0.  0.
   -2000013    1    1    2    0    0 -0.27543110417E+03  0.12344806869E+03  0.12004836144E+04  0.15603725924E+04  0.95000000000E+03 0.  0.
<mgrwt>
<rscale>  0 0.22188242E+04</rscale>
<asrwt>0</asrwt>
<pdfrwt beam="1">  1        2 0.29516950E+00 0.22188242E+04</pdfrwt>
<pdfrwt beam="2">  1       -2 0.98693281E-01 0.22188242E+04</pdfrwt>
<totfact> 0.57660803E+00</totfact>
</mgrwt>
</event>
<event>
 4    1  0.1308745E-008  0.2648720E+04  0.7816531E-02  0.8351838E-01
         -2   -1    0    0    0  501 -0.00000000000E+00  0.00000000000E+00  0.62243679398E+03  0.62243679398E+03  0.00000000000E+00 0. -1.
          2   -1    0    0  501    0  0.00000000000E+00 -0.00000000000E+00 -0.28178430656E+04  0.28178430656E+04  0.00000000000E+00 0.  1.
    2000013    1    1    2    0    0  0.60726429766E+03 -0.18988203575E+03 -0.19657018766E+04  0.22740512268E+04  0.95000000000E+03 0.  0.
   -2000013    1    1    2    0    0 -0.60726429766E+03  0.18988203575E+03 -0.22970439503E+03  0.11662286327E+04  0.95000000000E+03 0.  0.
<mgrwt>
<rscale>  0 0.26487198E+04</rscale>
<asrwt>0</asrwt>
<pdfrwt beam="2">  1        2 0.43351431E+00 0.26487198E+04</pdfrwt>
<pdfrwt beam="1">  1       -2 0.95759508E-01 0.26487198E+04</pdfrwt>
<totfact> 0.18173304E+00</totfact>
</mgrwt>
</event>
<event>
 4    1  0.1308745E-008  0.2060026E+04  0.7816531E-02  0.8579059E-01
         -2   -1    0    0    0  501 -0.00000000000E+00  0.00000000000E+00  0.59938453353E+03  0.59938453353E+03  0.00000000000E+00 0. -1.
          2   -1    0    0  501    0  0.00000000000E+00 -0.00000000000E+00 -0.17700277078E+04  0.17700277078E+04  0.00000000000E+00 0.  1.
    2000013    1    1    2    0    0 -0.38412259540E+03  0.63874513915E+02 -0.68014814529E+03  0.12315565847E+04  0.95000000000E+03 0.  0.
   -2000013    1    1    2    0    0  0.38412259540E+03 -0.63874513915E+02 -0.49049502898E+03  0.11378556566E+04  0.95000000000E+03 0.  0.
<mgrwt>
<rscale>  0 0.20600264E+04</rscale>
<asrwt>0</asrwt>
<pdfrwt beam="2">  1        2 0.27231196E+00 0.20600264E+04</pdfrwt>
<pdfrwt beam="1">  1       -2 0.92213005E-01 0.20600264E+04</pdfrwt>
<totfact> 0.82809693E+00</totfact>
</mgrwt>
</event>
<event>
 4    1  0.1308745E-008  0.2482732E+04  0.7816531E-02  0.8409163E-01
          2   -1    0    0  501    0  0.00000000000E+00  0.00000000000E+00  0.16865722477E+04  0.16865722477E+04  0.00000000000E+00 0.  1.
         -2   -1    0    0    0  501 -0.00000000000E+00 -0.00000000000E+00 -0.91368132801E+03  0.91368132801E+03  0.00000000000E+00 0. -1.
    2000013    1    1    2    0    0 -0.59286192782E+03 -0.48182144501E+03  0.14115329463E+03  0.12272169421E+04  0.95000000000E+03 0.  0.
   -2000013    1    1    2    0    0  0.59286192782E+03  0.48182144501E+03  0.63173762503E+03  0.13730366336E+04  0.95000000000E+03 0.  0.
<mgrwt>
<rscale>  0 0.24827320E+04</rscale>
<asrwt>0</asrwt>
<pdfrwt beam="1">  1        2 0.25947265E+00 0.24827320E+04</pdfrwt>
<pdfrwt beam="2">  1       -2 0.14056636E+00 0.24827320E+04</pdfrwt>
<totfact> 0.31675592E+00</totfact>
</mgrwt>
</event>
<event>
 4    1  0.1308745E-008  0.2576041E+04  0.7816531E-02  0.8376385E-01
         -2   -1    0    0    0  501 -0.00000000000E+00  0.00000000000E+00  0.59248177445E+03  0.59248177445E+03  0.00000000000E+00 0. -1.
          2   -1    0    0  501    0  0.00000000000E+00 -0.00000000000E+00 -0.28000799993E+04  0.28000799993E+04  0.00000000000E+00 0.  1.
    2000013    1    1    2    0    0  0.12575985965E+03 -0.86042904733E+03 -0.11281782693E+04  0.17121448231E+04  0.95000000000E+03 0.  0.
   -2000013    1    1    2    0    0 -0.12575985965E+03  0.86042904733E+03 -0.10794199555E+04  0.16804169507E+04  0.95000000000E+03 0.  0.
<mgrwt>
<rscale>  0 0.25760407E+04</rscale>
<asrwt>0</asrwt>
<pdfrwt beam="2">  1        2 0.43078154E+00 0.25760407E+04</pdfrwt>
<pdfrwt beam="1">  1       -2 0.91151043E-01 0.25760407E+04</pdfrwt>
<totfact> 0.21026226E+00</totfact>
</mgrwt>
</event>
<event>
 4    1  0.1308745E-008  0.2318514E+04  0.7816531E-02  0.8470657E-01
         -2   -1    0    0    0  501 -0.00000000000E+00  0.00000000000E+00  0.62504732012E+03  0.62504732012E+03  0.00000000000E+00 0. -1.
          2   -1    0    0  501    0  0.00000000000E+00 -0.00000000000E+00 -0.21500391587E+04  0.21500391587E+04  0.00000000000E+00 0.  1.
    2000013    1    1    2    0    0  0.55347437219E+03 -0.27375288646E+03 -0.10559297863E+04  0.15487938007E+04  0.95000000000E+03 0.  0.
   -2000013    1    1    2    0    0 -0.55347437219E+03  0.27375288646E+03 -0.46906205228E+03  0.12262926781E+04  0.95000000000E+03 0.  0.
<mgrwt>
<rscale>  0 0.23185135E+04</rscale>
<asrwt>0</asrwt>
<pdfrwt beam="2">  1        2 0.33077525E+00 0.23185135E+04</pdfrwt>
<pdfrwt beam="1">  1       -2 0.96161127E-01 0.23185135E+04</pdfrwt>
<totfact> 0.45167022E+00</totfact>
</mgrwt>
</event>
<event>
 4    1  0.1308745E-008  0.3587055E+04  0.7816531E-02  0.8093463E-01
         -1   -1    0    0    0  501 -0.00000000000E+00  0.00000000000E+00  0.21768047365E+04  0.21768047365E+04  0.00000000000E+00 0. -1.
          1   -1    0    0  501    0  0.00000000000E+00 -0.00000000000E+00 -0.14777354121E+04  0.14777354121E+04  0.00000000000E+00 0.  1.
    2000013    1    1    2    0    0  0.82671098924E+03 -0.12754775018E+04  0.28552327885E+03  0.18150254709E+04  0.95000000000E+03 0.  0.
   -2000013    1    1    2    0    0 -0.82671098924E+03  0.12754775018E+04  0.41354604559E+03  0.18395146776E+04  0.95000000000E+03 0.  0.
<mgrwt>
<rscale>  0 0.35870553E+04</rscale>
<asrwt>0</asrwt>
<pdfrwt beam="2">  1        1 0.22734391E+00 0.35870553E+04</pdfrwt>
<pdfrwt beam="1">  1       -1 0.33489304E+00 0.35870553E+04</pdfrwt>
<totfact> 0.10730265E-01</totfact>
</mgrwt>
</event>
<event>
 4    1  0.1308745E-008  0.2685205E+04  0.7816531E-02  0.8339821E-01
          2   -1    0    0  501    0  0.00000000000E+00  0.00000000000E+00  0.36787740288E+04  0.36787740288E+04  0.00000000000E+00 0.  1.
         -2   -1    0    0    0  501 -0.00000000000E+00 -0.00000000000E+00 -0.48999516994E+03  0.48999516994E+03  0.00000000000E+00 0. -1.
    2000013    1    1    2    0    0 -0.69129298081E+03  0.64308127694E+03  0.17387130162E+04  0.21947807332E+04  0.95000000000E+03 0.  0.
   -2000013    1    1    2    0    0  0.69129298081E+03 -0.64308127694E+03  0.14500658426E+04  0.19739884655E+04  0.95000000000E+03 0.  0.
<mgrwt>
<rscale>  0 0.26852050E+04</rscale>
<asrwt>0</asrwt>
<pdfrwt beam="1">  1        2 0.56596522E+00 0.26852050E+04</pdfrwt>
<pdfrwt beam="2">  1       -2 0.75383875E-01 0.26852050E+04</pdfrwt>
<totfact> 0.83968157E-01</totfact>
</mgrwt>
</event>
<event>
 4    1  0.1308745E-008  0.3294702E+04  0.7816531E-02  0.8164245E-01
         -2   -1    0    0    0  501 -0.00000000000E+00  0.00000000000E+00  0.29688582327E+04  0.29688582327E+04  0.00000000000E+00 0. -1.
          2   -1    0    0  501    0  0.00000000000E+00 -0.00000000000E+00 -0.91407707247E+03  0.91407707247E+03  0.00000000000E+00 0.  1.
    2000013    1    1    2    0    0  0.13102561644E+04  0.65189833802E+01  0.66519052141E+03  0.17497977435E+04  0.95000000000E+03 0.  0.
   -2000013    1    1    2    0    0 -0.13102561644E+04 -0.65189833802E+01  0.13895906388E+04  0.21331375616E+04  0.95000000000E+03 0.  0.
<mgrwt>
<rscale>  0 0.32947020E+04</rscale>
<asrwt>0</asrwt>
<pdfrwt beam="2">  1        2 0.14062724E+00 0.32947020E+04</pdfrwt>
<pdfrwt beam="1">  1       -2 0.45674742E+00 0.32947020E+04</pdfrwt>
<totfact> 0.74974095E-02</totfact>
</mgrwt>
</event>
<event>
 4    1  0.1308745E-008  0.2521465E+04  0.7816531E-02  0.8395378E-01
          2   -1    0    0  501    0  0.00000000000E+00  0.00000000000E+00  0.11964991424E+04  0.11964991424E+04  0.00000000000E+00 0.  1.
         -2   -1    0    0    0  501 -0.00000000000E+00 -0.00000000000E+00 -0.13284139484E+04  0.13284139484E+04  0.00000000000E+00 0. -1.
    2000013    1    1    2    0    0 -0.73571687366E+03  0.38160730254E+03 -0.59414065593E+02  0.12621146868E+04  0.95000000000E+03 0.  0.
   -2000013    1    1    2    0    0  0.73571687366E+03 -0.38160730254E+03 -0.72500740450E+02  0.12627984039E+04  0.95000000000E+03 0.  0.
<mgrwt>
<rscale>  0 0.25214648E+04</rscale>
<asrwt>0</asrwt>
<pdfrwt beam="1">  1        2 0.18407679E+00 0.25214648E+04</pdfrwt>
<pdfrwt beam="2">  1       -2 0.20437138E+00 0.25214648E+04</pdfrwt>
<totfact> 0.21099995E+00</totfact>
</mgrwt>
</event>
<event>
 4    1  0.1308745E-008  0.2103688E+04  0.7816531E-02  0.8559620E-01
          1   -1    0    0  501    0  0.00000000000E+00  0.00000000000E+00  0.71062993929E+03  0.71062993929E+03  0.00000000000E+00 0. -1.
         -1   -1    0    0    0  501 -0.00000000000E+00 -0.00000000000E+00 -0.15568949244E+04  0.15568949244E+04  0.00000000000E+00 0.  1.
    2000013    1    1    2    0    0  0.11534883256E+03  0.43538143451E+03 -0.38881254822E+03  0.11209538547E+04  0.95000000000E+03 0.  0.
   -2000013    1    1    2    0    0 -0.11534883256E+03 -0.43538143451E+03 -0.45745243689E+03  0.11465710090E+04  0.95000000000E+03 0.  0.
<mgrwt>
<rscale>  0 0.21036883E+04</rscale>
<asrwt>0</asrwt>
<pdfrwt beam="1">  1        1 0.10932768E+00 0.21036883E+04</pdfrwt>
<pdfrwt beam="2">  1       -1 0.23952230E+00 0.21036883E+04</pdfrwt>
<totfact> 0.19987500E+00</totfact>
</mgrwt>
</event>
<event>
 4    1  0.1308745E-008  0.2448403E+04  0.7816531E-02  0.8421601E-01
          2   -1    0    0  501    0  0.00000000000E+00  0.00000000000E+00  0.12197966033E+04  0.12197966033E+04  0.00000000000E+00 0.  1.
         -2   -1    0    0    0  501 -0.00000000000E+00 -0.00000000000E+00 -0.12286222284E+04  0.12286222284E+04  0.00000000000E+00 0. -1.
    2000013    1    1    2    0    0  0.32151018952E+03  0.23278560915E+03  0.65786883312E+03  0.12218221407E+04  0.95000000000E+03 0.  0.
   -2000013    1    1    2    0    0 -0.32151018952E+03 -0.23278560915E+03 -0.66669445820E+03  0.12265966910E+04  0.95000000000E+03 0.  0.
<mgrwt>
<rscale>  0 0.24484029E+04</rscale>
<asrwt>0</asrwt>
<pdfrwt beam="1">  1        2 0.18766102E+00 0.24484029E+04</pdfrwt>
<pdfrwt beam="2">  1       -2 0.18901880E+00 0.24484029E+04</pdfrwt>
<totfact> 0.25981324E+00</totfact>
</mgrwt>
</event>
<event>
 4    1  0.1308745E-008  0.3723027E+04  0.7816531E-02  0.8062878E-01
         -2   -1    0    0    0  501 -0.00000000000E+00  0.00000000000E+00  0.11691380649E+04  0.11691380649E+04  0.00000000000E+00 0. -1.
          2   -1    0    0  501    0  0.00000000000E+00 -0.00000000000E+00 -0.29639208065E+04  0.29639208065E+04  0.00000000000E+00 0.  1.
    2000013    1    1    2    0    0 -0.14795616104E+04  0.11074471298E+03 -0.23004876447E+03  0.17767355978E+04  0.95000000000E+03 0.  0.
   -2000013    1    1    2    0    0  0.14795616104E+04 -0.11074471298E+03 -0.15647339771E+04  0.23563232736E+04  0.95000000000E+03 0.  0.
<mgrwt>
<rscale>  0 0.37230271E+04</rscale>
<asrwt>0</asrwt>
<pdfrwt beam="2">  1        2 0.45598781E+00 0.37230271E+04</pdfrwt>
<pdfrwt beam="1">  1       -2 0.17986740E+00 0.37230271E+04</pdfrwt>
<totfact> 0.26873318E-01</totfact>
</mgrwt>
</event>
<event>
 4    1  0.1308745E-008  0.2373082E+04  0.7816531E-02  0.8449651E-01
          2   -1    0    0  501    0  0.00000000000E+00  0.00000000000E+00  0.39481561453E+04  0.39481561453E+04  0.00000000000E+00 0.  1.
         -2   -1    0    0    0  501 -0.00000000000E+00 -0.00000000000E+00 -0.35659167225E+03  0.35659167225E+03  0.00000000000E+00 0. -1.
    2000013    1    1    2    0    0 -0.31698524385E+03 -0.63560598864E+03  0.17412120370E+04  0.21068445541E+04  0.95000000000E+03 0.  0.
   -2000013    1    1    2    0    0  0.31698524385E+03  0.63560598864E+03  0.18503524361E+04  0.21979032635E+04  0.95000000000E+03 0.  0.
<mgrwt>
<rscale>  0 0.23730820E+04</rscale>
<asrwt>0</asrwt>
<pdfrwt beam="1">  1        2 0.60740861E+00 0.23730820E+04</pdfrwt>
<pdfrwt beam="2">  1       -2 0.54860260E-01 0.23730820E+04</pdfrwt>
<totfact> 0.10655434E+00</totfact>
</mgrwt>
</event>
<event>
 4    1  0.1308745E-008  0.2096726E+04  0.7816531E-02  0.8562687E-01
         -2   -1    0    0    0  501 -0.00000000000E+00  0.00000000000E+00  0.83502855910E+03  0.83502855910E+03  0.00000000000E+00 0. -1.
          2   -1    0    0  501    0  0.00000000000E+00 -0.00000000000E+00 -0.13162001009E+04  0.13162001009E+04  0.00000000000E+00 0.  1.
    2000013    1    1    2    0    0 -0.72872769377E+02  0.40867128847E+03 -0.80840033199E+02  0.10398835384E+04  0.95000000000E+03 0.  0.
   -2000013    1    1    2    0    0  0.72872769377E+02 -0.40867128847E+03 -0.40033150865E+03  0.11113451216E+04  0.95000000000E+03 0.  0.
<mgrwt>
<rscale>  0 0.20967257E+04</rscale>
<asrwt>0</asrwt>
<pdfrwt beam="2">  1        2 0.20249232E+00 0.20967257E+04</pdfrwt>
<pdfrwt beam="1">  1       -2 0.12846593E+00 0.20967257E+04</pdfrwt>
<totfact> 0.66744769E+00</totfact>
</mgrwt>
</event>
<event>
 4    1  0.1308745E-008  0.2566975E+04  0.7816531E-02  0.8379506E-01
         -2   -1    0    0    0  501 -0.00000000000E+00  0.00000000000E+00  0.40612106198E+03  0.40612106198E+03  0.00000000000E+00 0. -1.
          2   -1    0    0  501    0  0.00000000000E+00 -0.00000000000E+00 -0.40562789858E+04  0.40562789858E+04  0.00000000000E+00 0.  1.
    2000013    1    1    2    0    0  0.56599153147E+03 -0.34708502893E+03 -0.27836010623E+04  0.30152527764E+04  0.95000000000E+03 0.  0.
   -2000013    1    1    2    0    0 -0.56599153147E+03  0.34708502893E+03 -0.86655686146E+03  0.14471472714E+04  0.95000000000E+03 0.  0.
<mgrwt>
<rscale>  0 0.25669751E+04</rscale>
<asrwt>0</asrwt>
<pdfrwt beam="2">  1        2 0.62404290E+00 0.25669751E+04</pdfrwt>
<pdfrwt beam="1">  1       -2 0.62480165E-01 0.25669751E+04</pdfrwt>
<totfact> 0.65049651E-01</totfact>
</mgrwt>
</event>
<event>
 4    1  0.1308745E-008  0.2107274E+04  0.7816531E-02  0.8558046E-01
         -2   -1    0    0    0  501 -0.00000000000E+00  0.00000000000E+00  0.44881653659E+03  0.44881653659E+03  0.00000000000E+00 0. -1.
          2   -1    0    0  501    0  0.00000000000E+00 -0.00000000000E+00 -0.24735078027E+04  0.24735078027E+04  0.00000000000E+00 0.  1.
    2000013    1    1    2    0    0  0.18258759734E+03 -0.64262489473E+02 -0.15844375761E+04  0.18575280161E+04  0.95000000000E+03 0.  0.
   -2000013    1    1    2    0    0 -0.18258759734E+03  0.64262489473E+02 -0.44025369006E+03  0.10647963232E+04  0.95000000000E+03 0.  0.
<mgrwt>
<rscale>  0 0.21072743E+04</rscale>
<asrwt>0</asrwt>
<pdfrwt beam="2">  1        2 0.38053965E+00 0.21072743E+04</pdfrwt>
<pdfrwt beam="1">  1       -2 0.69048700E-01 0.21072743E+04</pdfrwt>
<totfact> 0.63630475E+00</totfact>
</mgrwt>
</event>
<event>
 4    1  0.1308745E-008  0.2973286E+04  0.7816531E-02  0.8251401E-01
         -2   -1    0    0    0  501 -0.00000000000E+00  0.00000000000E+00  0.85863441347E+03  0.85863441347E+03  0.00000000000E+00 0. -1.
          2   -1    0    0  501    0  0.00000000000E+00 -0.00000000000E+00 -0.25739799437E+04  0.25739799437E+04  0.00000000000E+00 0.  1.
    2000013    1    1    2    0    0 -0.49966695617E+03 -0.10181395188E+04 -0.68905228720E+03  0.16320441787E+04  0.95000000000E+03 0.  0.
   -2000013    1    1    2    0    0  0.49966695617E+03  0.10181395188E+04 -0.10262932430E+04  0.18005701784E+04  0.95000000000E+03 0.  0.
<mgrwt>
<rscale>  0 0.29732862E+04</rscale>
<asrwt>0</asrwt>
<pdfrwt beam="2">  1        2 0.39599691E+00 0.29732862E+04</pdfrwt>
<pdfrwt beam="1">  1       -2 0.13209760E+00 0.29732862E+04</pdfrwt>
<totfact> 0.11273411E+00</totfact>
</mgrwt>
</event>
<event>
 4    1  0.1308745E-008  0.2135703E+04  0.7816531E-02  0.8545677E-01
          4   -1    0    0  501    0  0.00000000000E+00  0.00000000000E+00  0.19084903482E+04  0.19084903482E+04  0.00000000000E+00 0.  1.
         -4   -1    0    0    0  501 -0.00000000000E+00 -0.00000000000E+00 -0.59749131119E+03  0.59749131119E+03  0.00000000000E+00 0. -1.
    2000013    1    1    2    0    0  0.43758165210E+03 -0.21510387880E+03  0.66451388884E+03  0.12577066786E+04  0.95000000000E+03 0.  0.
   -2000013    1    1    2    0    0 -0.43758165210E+03  0.21510387880E+03  0.64648514821E+03  0.12482749808E+04  0.95000000000E+03 0.  0.
<mgrwt>
<rscale>  0 0.21357026E+04</rscale>
<asrwt>0</asrwt>
<pdfrwt beam="1">  1        4 0.29361390E+00 0.21357026E+04</pdfrwt>
<pdfrwt beam="2">  1       -4 0.91921741E-01 0.21357026E+04</pdfrwt>
<totfact> 0.62716096E-02</totfact>
</mgrwt>
</event>
<event>
 4    1  0.1308745E-008  0.2157336E+04  0.7816531E-02  0.8536399E-01
          2   -1    0    0  501    0  0.00000000000E+00  0.00000000000E+00  0.86651901877E+03  0.86651901877E+03  0.00000000000E+00 0.  1.
         -2   -1    0    0    0  501 -0.00000000000E+00 -0.00000000000E+00 -0.13427571868E+04  0.13427571868E+04  0.00000000000E+00 0. -1.
    2000013    1    1    2    0    0  0.14926416593E+03  0.44194763445E+03 -0.24710036720E+02  0.10586350121E+04  0.95000000000E+03 0.  0.
   -2000013    1    1    2    0    0 -0.14926416593E+03 -0.44194763445E+03 -0.45152813127E+03  0.11506411935E+04  0.95000000000E+03 0.  0.
<mgrwt>
<rscale>  0 0.21573360E+04</rscale>
<asrwt>0</asrwt>
<pdfrwt beam="1">  1        2 0.13331062E+00 0.21573360E+04</pdfrwt>
<pdfrwt beam="2">  1       -2 0.20657803E+00 0.21573360E+04</pdfrwt>
<totfact> 0.34147243E+00</totfact>
</mgrwt>
</event>
<event>
 4    1  0.1308745E-008  0.2584848E+04  0.7816531E-02  0.8373366E-01
         -2   -1    0    0    0  501 -0.00000000000E+00  0.00000000000E+00  0.63811194691E+03  0.63811194691E+03  0.00000000000E+00 0. -1.
          2   -1    0    0  501    0  0.00000000000E+00 -0.00000000000E+00 -0.26176597962E+04  0.26176597962E+04  0.00000000000E+00 0.  1.
    2000013    1    1    2    0    0  0.61475116543E+03 -0.61805284878E+03 -0.11020915928E+04  0.16961763465E+04  0.95000000000E+03 0.  0.
   -2000013    1    1    2    0    0 -0.61475116543E+03  0.61805284878E+03 -0.87745625646E+03  0.15595953967E+04  0.95000000000E+03 0.  0.
<mgrwt>
<rscale>  0 0.25848481E+04</rscale>
<asrwt>0</asrwt>
<pdfrwt beam="2">  1        2 0.40271690E+00 0.25848481E+04</pdfrwt>
<pdfrwt beam="1">  1       -2 0.98171067E-01 0.25848481E+04</pdfrwt>
<totfact> 0.22701410E+00</totfact>
</mgrwt>
</event>
<event>
 4    1  0.1308745E-008  0.3017584E+04  0.7816531E-02  0.8238728E-01
          1   -1    0    0  501    0  0.00000000000E+00  0.00000000000E+00  0.11488055261E+04  0.11488055261E+04  0.00000000000E+00 0.  1.
         -1   -1    0    0    0  501 -0.00000000000E+00 -0.00000000000E+00 -0.19815824975E+04  0.19815824975E+04  0.00000000000E+00 0. -1.
    2000013    1    1    2    0    0  0.45640592886E+03 -0.16179716206E+03 -0.15237513400E+04  0.18597856973E+04  0.95000000000E+03 0.  0.
   -2000013    1    1    2    0    0 -0.45640592886E+03  0.16179716206E+03  0.69097436860E+03  0.12706023263E+04  0.95000000000E+03 0.  0.
<mgrwt>
<rscale>  0 0.30175838E+04</rscale>
<asrwt>0</asrwt>
<pdfrwt beam="1">  1        1 0.17673931E+00 0.30175838E+04</pdfrwt>
<pdfrwt beam="2">  1       -1 0.30485884E+00 0.30175838E+04</pdfrwt>
<totfact> 0.30416214E-01</totfact>
</mgrwt>
</event>
<event>
 4    1  0.1308745E-008  0.2416913E+04  0.7816531E-02  0.8433199E-01
         -2   -1    0    0    0  501 -0.00000000000E+00  0.00000000000E+00  0.13280813578E+04  0.13280813578E+04  0.00000000000E+00 0. -1.
          2   -1    0    0  501    0  0.00000000000E+00 -0.00000000000E+00 -0.10996062995E+04  0.10996062995E+04  0.00000000000E+00 0.  1.
    2000013    1    1    2    0    0  0.31131849038E+03 -0.40632369514E+03  0.66058197910E+03  0.12652615140E+04  0.95000000000E+03 0.  0.
   -2000013    1    1    2    0    0 -0.31131849038E+03  0.40632369514E+03 -0.43210692080E+03  0.11624261433E+04  0.95000000000E+03 0.  0.
<mgrwt>
<rscale>  0 0.24169126E+04</rscale>
<asrwt>0</asrwt>
<pdfrwt beam="2">  1        2 0.16917020E+00 0.24169126E+04</pdfrwt>
<pdfrwt beam="1">  1       -2 0.20432021E+00 0.24169126E+04</pdfrwt>
<totfact> 0.24391416E+00</totfact>
</mgrwt>
</event>
<event>
 4    1  0.1308745E-008  0.3057352E+04  0.7816531E-02  0.8227541E-01
          2   -1    0    0  501    0  0.00000000000E+00  0.00000000000E+00  0.34442886263E+04  0.34442886263E+04  0.00000000000E+00 0.  1.
         -2   -1    0    0    0  501 -0.00000000000E+00 -0.00000000000E+00 -0.67847127224E+03  0.67847127224E+03  0.00000000000E+00 0. -1.
    2000013    1    1    2    0    0 -0.94938665026E+03 -0.67023877340E+03  0.17732583603E+04  0.23232520822E+04  0.95000000000E+03 0.  0.
   -2000013    1    1    2    0    0  0.94938665026E+03  0.67023877340E+03  0.99255899381E+03  0.17995078164E+04  0.95000000000E+03 0.  0.
<mgrwt>
<rscale>  0 0.30573524E+04</rscale>
<asrwt>0</asrwt>
<pdfrwt beam="1">  1        2 0.52989055E+00 0.30573524E+04</pdfrwt>
<pdfrwt beam="2">  1       -2 0.10438020E+00 0.30573524E+04</pdfrwt>
<totfact> 0.56413619E-01</totfact>
</mgrwt>
</event>
<event>
 4    1  0.1308745E-008  0.2033307E+04  0.7816531E-02  0.8591205E-01
          2   -1    0    0  501    0  0.00000000000E+00  0.00000000000E+00  0.74180222898E+03  0.74180222898E+03  0.00000000000E+00 0.  1.
         -2   -1    0    0    0  501 -0.00000000000E+00 -0.00000000000E+00 -0.13933423142E+04  0.13933423142E+04  0.00000000000E+00 0. -1.
    2000013    1    1    2    0    0 -0.19520109576E+03  0.19448966632E+03 -0.79157187459E+02  0.99231827476E+03  0.95000000000E+03 0.  0.
   -2000013    1    1    2    0    0  0.19520109576E+03 -0.19448966632E+03 -0.57238289772E+03  0.11428262684E+04  0.95000000000E+03 0.  0.
<mgrwt>
<rscale>  0 0.20333071E+04</rscale>
<asrwt>0</asrwt>
<pdfrwt beam="1">  1        2 0.11412342E+00 0.20333071E+04</pdfrwt>
<pdfrwt beam="2">  1       -2 0.21436035E+00 0.20333071E+04</pdfrwt>
<totfact> 0.37818000E+00</totfact>
</mgrwt>
</event>
<event>
 4    1  0.1308745E-008  0.2163952E+04  0.7816531E-02  0.8533584E-01
          2   -1    0    0  501    0  0.00000000000E+00  0.00000000000E+00  0.99175132669E+03  0.99175132669E+03  0.00000000000E+00 0.  1.
         -2   -1    0    0    0  501 -0.00000000000E+00 -0.00000000000E+00 -0.11804092145E+04  0.11804092145E+04  0.00000000000E+00 0. -1.
    2000013    1    1    2    0    0 -0.20871938056E+03  0.40015767176E+03 -0.34922612976E+03  0.11082187653E+04  0.95000000000E+03 0.  0.
   -2000013    1    1    2    0    0  0.20871938056E+03 -0.40015767176E+03  0.16056824197E+03  0.10639417759E+04  0.95000000000E+03 0.  0.
<mgrwt>
<rscale>  0 0.21639523E+04</rscale>
<asrwt>0</asrwt>
<pdfrwt beam="1">  1        2 0.15257713E+00 0.21639523E+04</pdfrwt>
<pdfrwt beam="2">  1       -2 0.18160142E+00 0.21639523E+04</pdfrwt>
<totfact> 0.41313345E+00</totfact>
</mgrwt>
</event>
<event>
 4    1  0.1308745E-008  0.2830984E+04  0.7816531E-02  0.8293713E-01
         -2   -1    0    0    0  501 -0.00000000000E+00  0.00000000000E+00  0.85259307967E+03  0.85259307967E+03  0.00000000000E+00 0. -1.
          2   -1    0    0  501    0  0.00000000000E+00 -0.00000000000E+00 -0.23500285380E+04  0.23500285380E+04  0.00000000000E+00 0.  1.
    2000013    1    1    2    0    0 -0.56370745746E+03  0.43922541685E+03 -0.16179853006E+04  0.20077503573E+04  0.95000000000E+03 0.  0.
   -2000013    1    1    2    0    0  0.56370745746E+03 -0.43922541685E+03  0.12054984223E+03  0.11948712604E+04  0.95000000000E+03 0.  0.
<mgrwt>
<rscale>  0 0.28309843E+04</rscale>
<asrwt>0</asrwt>
<pdfrwt beam="2">  1        2 0.36154285E+00 0.28309843E+04</pdfrwt>
<pdfrwt beam="1">  1       -2 0.13116817E+00 0.28309843E+04</pdfrwt>
<totfact> 0.15643847E+00</totfact>
</mgrwt>
</event>
<event>
 4    1  0.1308745E-008  0.2471532E+04  0.7816531E-02  0.8413198E-01
          2   -1    0    0  501    0  0.00000000000E+00  0.00000000000E+00  0.12142236244E+04  0.12142236244E+04  0.00000000000E+00 0.  1.
         -2   -1    0    0    0  501 -0.00000000000E+00 -0.00000000000E+00 -0.12576909137E+04  0.12576909137E+04  0.00000000000E+00 0. -1.
    2000013    1    1    2    0    0  0.53137184982E+03  0.38305141841E+03 -0.46399382607E+03  0.12437341768E+04  0.95000000000E+03 0.  0.
   -2000013    1    1    2    0    0 -0.53137184982E+03 -0.38305141841E+03  0.42052653678E+03  0.12281803614E+04  0.95000000000E+03 0.  0.
<mgrwt>
<rscale>  0 0.24715323E+04</rscale>
<asrwt>0</asrwt>
<pdfrwt beam="1">  1        2 0.18680363E+00 0.24715323E+04</pdfrwt>
<pdfrwt beam="2">  1       -2 0.19349091E+00 0.24715323E+04</pdfrwt>
<totfact> 0.24388303E+00</totfact>
</mgrwt>
</event>
<event>
 4    1  0.1308745E-008  0.2255964E+04  0.7816531E-02  0.8495489E-01
          1   -1    0    0  501    0  0.00000000000E+00  0.00000000000E+00  0.31476181585E+04  0.31476181585E+04  0.00000000000E+00 0.  1.
         -1   -1    0    0    0  501 -0.00000000000E+00 -0.00000000000E+00 -0.40422416312E+03  0.40422416312E+03  0.00000000000E+00 0. -1.
    2000013    1    1    2    0    0  0.34076065319E+03  0.43132934097E+02  0.21618395907E+04  0.23862163961E+04  0.95000000000E+03 0.  0.
   -2000013    1    1    2    0    0 -0.34076065319E+03 -0.43132934097E+02  0.58155440463E+03  0.11656259255E+04  0.95000000000E+03 0.  0.
<mgrwt>
<rscale>  0 0.22559639E+04</rscale>
<asrwt>0</asrwt>
<pdfrwt beam="1">  1        1 0.48424893E+00 0.22559639E+04</pdfrwt>
<pdfrwt beam="2">  1       -1 0.62188335E-01 0.22559639E+04</pdfrwt>
<totfact> 0.11081953E+00</totfact>
</mgrwt>
</event>
<event>
 4    1  0.1308745E-008  0.2212674E+04  0.7816531E-02  0.8513171E-01
         -2   -1    0    0    0  501 -0.00000000000E+00  0.00000000000E+00  0.47973361794E+03  0.47973361794E+03  0.00000000000E+00 0. -1.
          2   -1    0    0  501    0  0.00000000000E+00 -0.00000000000E+00 -0.25513780674E+04  0.25513780674E+04  0.00000000000E+00 0.  1.
    2000013    1    1    2    0    0 -0.25702614663E+02 -0.24351038827E+03 -0.17363738540E+04  0.19943550573E+04  0.95000000000E+03 0.  0.
   -2000013    1    1    2    0    0  0.25702614663E+02  0.24351038827E+03 -0.33527059540E+03  0.10367566280E+04  0.95000000000E+03 0.  0.
<mgrwt>
<rscale>  0 0.22126742E+04</rscale>
<asrwt>0</asrwt>
<pdfrwt beam="2">  1        2 0.39251970E+00 0.22126742E+04</pdfrwt>
<pdfrwt beam="1">  1       -2 0.73805172E-01 0.22126742E+04</pdfrwt>
<totfact> 0.49101873E+00</totfact>
</mgrwt>
</event>
<event>
 4    1  0.1308745E-008  0.2612862E+04  0.7816531E-02  0.8363845E-01
         -2   -1    0    0    0  501 -0.00000000000E+00  0.00000000000E+00  0.11444888343E+04  0.11444888343E+04  0.00000000000E+00 0. -1.
          2   -1    0    0  501    0  0.00000000000E+00 -0.00000000000E+00 -0.14912880801E+04  0.14912880801E+04  0.00000000000E+00 0.  1.
    2000013    1    1    2    0    0  0.83930564290E+03 -0.26691438538E+03 -0.28449916565E+01  0.12954479323E+04  0.95000000000E+03 0.  0.
   -2000013    1    1    2    0    0 -0.83930564290E+03  0.26691438538E+03 -0.34395425412E+03  0.13403289821E+04  0.95000000000E+03 0.  0.
<mgrwt>
<rscale>  0 0.26128625E+04</rscale>
<asrwt>0</asrwt>
<pdfrwt beam="2">  1        2 0.22942893E+00 0.26128625E+04</pdfrwt>
<pdfrwt beam="1">  1       -2 0.17607521E+00 0.26128625E+04</pdfrwt>
<totfact> 0.21909005E+00</totfact>
</mgrwt>
</event>
<event>
 4    1  0.1308745E-008  0.3202992E+04  0.7816531E-02  0.8188027E-01
         -2   -1    0    0    0  501 -0.00000000000E+00  0.00000000000E+00  0.11950840737E+04  0.11950840737E+04  0.00000000000E+00 0. -1.
          2   -1    0    0  501    0  0.00000000000E+00 -0.00000000000E+00 -0.21461162976E+04  0.21461162976E+04  0.00000000000E+00 0.  1.
    2000013    1    1    2    0    0 -0.62243050124E+03  0.10233706643E+04 -0.97315668231E+03  0.18122475476E+04  0.95000000000E+03 0.  0.
   -2000013    1    1    2    0    0  0.62243050124E+03 -0.10233706643E+04  0.22124458351E+02  0.15289528237E+04  0.95000000000E+03 0.  0.
<mgrwt>
<rscale>  0 0.32029920E+04</rscale>
<asrwt>0</asrwt>
<pdfrwt beam="2">  1        2 0.33017174E+00 0.32029920E+04</pdfrwt>
<pdfrwt beam="1">  1       -2 0.18385909E+00 0.32029920E+04</pdfrwt>
<totfact> 0.79511470E-01</totfact>
</mgrwt>
</event>
<event>
 4    1  0.1308745E-008  0.2264911E+04  0.7816531E-02  0.8491886E-01
          2   -1    0    0  501    0  0.00000000000E+00  0.00000000000E+00  0.47775698516E+03  0.47775698516E+03  0.00000000000E+00 0.  1.
         -2   -1    0    0    0  501 -0.00000000000E+00 -0.00000000000E+00 -0.26843258149E+04  0.26843258149E+04  0.00000000000E+00 0. -1.
    2000013    1    1    2    0    0  0.12486212583E+03  0.51076124885E+03 -0.15524088591E+04  0.18944500177E+04  0.95000000000E+03 0.  0.
   -2000013    1    1    2    0    0 -0.12486212583E+03 -0.51076124885E+03 -0.65415997071E+03  0.12676327824E+04  0.95000000000E+03 0.  0.
<mgrwt>
<rscale>  0 0.22649110E+04</rscale>
<asrwt>0</asrwt>
<pdfrwt beam="1">  1        2 0.73501075E-01 0.22649110E+04</pdfrwt>
<pdfrwt beam="2">  1       -2 0.41297320E+00 0.22649110E+04</pdfrwt>
<totfact> 0.36048307E-01</totfact>
</mgrwt>
</event>
<event>
 4    1  0.1308745E-008  0.2427201E+04  0.7816531E-02  0.8429389E-01
         -2   -1    0    0    0  501 -0.00000000000E+00  0.00000000000E+00  0.13473973745E+04  0.13473973745E+04  0.00000000000E+00 0. -1.
          2   -1    0    0  501    0  0.00000000000E+00 -0.00000000000E+00 -0.10930899353E+04  0.10930899353E+04  0.00000000000E+00 0.  1.
    2000013    1    1    2    0    0 -0.38689056298E+03  0.64262234087E+03  0.39045706225E+02  0.12110624872E+04  0.95000000000E+03 0.  0.
   -2000013    1    1    2    0    0  0.38689056298E+03 -0.64262234087E+03  0.21526173300E+03  0.12294248226E+04  0.95000000000E+03 0.  0.
<mgrwt>
<rscale>  0 0.24272013E+04</rscale>
<asrwt>0</asrwt>
<pdfrwt beam="2">  1        2 0.16816768E+00 0.24272013E+04</pdfrwt>
<pdfrwt beam="1">  1       -2 0.20729190E+00 0.24272013E+04</pdfrwt>
<totfact> 0.23529769E+00</totfact>
</mgrwt>
</event>
<event>
 4    1  0.1308745E-008  0.2368252E+04  0.7816531E-02  0.8451486E-01
          2   -1    0    0  501    0  0.00000000000E+00  0.00000000000E+00  0.72931968441E+03  0.72931968441E+03  0.00000000000E+00 0.  1.
         -2   -1    0    0    0  501 -0.00000000000E+00 -0.00000000000E+00 -0.19225518568E+04  0.19225518568E+04  0.00000000000E+00 0. -1.
    2000013    1    1    2    0    0  0.63326921632E+03 -0.29420550396E+03 -0.71962725931E+03  0.13812856950E+04  0.95000000000E+03 0.  0.
   -2000013    1    1    2    0    0 -0.63326921632E+03  0.29420550396E+03 -0.47360491310E+03  0.12705858462E+04  0.95000000000E+03 0.  0.
<mgrwt>
<rscale>  0 0.23682524E+04</rscale>
<asrwt>0</asrwt>
<pdfrwt beam="1">  1        2 0.11220303E+00 0.23682524E+04</pdfrwt>
<pdfrwt beam="2">  1       -2 0.29577720E+00 0.23682524E+04</pdfrwt>
<totfact> 0.11827466E+00</totfact>
</mgrwt>
</event>
<event>
 4    1  0.1308745E-008  0.2560473E+04  0.7816531E-02  0.8381753E-01
          2   -1    0    0  501    0  0.00000000000E+00  0.00000000000E+00  0.15345612050E+04  0.15345612050E+04  0.00000000000E+00 0.  1.
         -2   -1    0    0    0  501 -0.00000000000E+00 -0.00000000000E+00 -0.10680612705E+04  0.10680612705E+04  0.00000000000E+00 0. -1.
    2000013    1    1    2    0    0 -0.71639587463E+03  0.45866086053E+03  0.34875398735E+03  0.13220144394E+04  0.95000000000E+03 0.  0.
   -2000013    1    1    2    0    0  0.71639587463E+03 -0.45866086053E+03  0.11774594706E+03  0.12806080361E+04  0.95000000000E+03 0.  0.
<mgrwt>
<rscale>  0 0.25604729E+04</rscale>
<asrwt>0</asrwt>
<pdfrwt beam="1">  1        2 0.23608634E+00 0.25604729E+04</pdfrwt>
<pdfrwt beam="2">  1       -2 0.16431712E+00 0.25604729E+04</pdfrwt>
<totfact> 0.25226210E+00</totfact>
</mgrwt>
</event>
<event>
 4    1  0.1308745E-008  0.2664464E+04  0.7816531E-02  0.8346628E-01
          2   -1    0    0  501    0  0.00000000000E+00  0.00000000000E+00  0.13765651881E+04  0.13765651881E+04  0.00000000000E+00 0.  1.
         -2   -1    0    0    0  501 -0.00000000000E+00 -0.00000000000E+00 -0.12893268448E+04  0.12893268448E+04  0.00000000000E+00 0. -1.
    2000013    1    1    2    0    0 -0.30237021257E+03 -0.87162482173E+03  0.18924741598E+03  0.13377115383E+04  0.95000000000E+03 0.  0.
   -2000013    1    1    2    0    0  0.30237021257E+03  0.87162482173E+03 -0.10200907264E+03  0.13281804946E+04  0.95000000000E+03 0.  0.
<mgrwt>
<rscale>  0 0.26644643E+04</rscale>
<asrwt>0</asrwt>
<pdfrwt beam="1">  1        2 0.21177926E+00 0.26644643E+04</pdfrwt>
<pdfrwt beam="2">  1       -2 0.19835798E+00 0.26644643E+04</pdfrwt>
<totfact> 0.17908382E+00</totfact>
</mgrwt>
</event>
<event>
 4    1  0.1308745E-008  0.3029701E+04  0.7816531E-02  0.8235300E-01
         -2   -1    0    0    0  501 -0.00000000000E+00  0.00000000000E+00  0.16186449549E+04  0.16186449549E+04  0.00000000000E+00 0. -1.
          2   -1    0    0  501    0  0.00000000000E+00 -0.00000000000E+00 -0.14177121283E+04  0.14177121283E+04  0.00000000000E+00 0.  1.
    2000013    1    1    2    0    0 -0.81778186974E+03  0.51092836833E+02  0.95138694884E+03  0.15744887395E+04  0.95000000000E+03 0.  0.
   -2000013    1    1    2    0    0  0.81778186974E+03 -0.51092836833E+02 -0.75045412222E+03  0.14618683436E+04  0.95000000000E+03 0.  0.
<mgrwt>
<rscale>  0 0.30297014E+04</rscale>
<asrwt>0</asrwt>
<pdfrwt beam="2">  1        2 0.21810956E+00 0.30297014E+04</pdfrwt>
<pdfrwt beam="1">  1       -2 0.24902230E+00 0.30297014E+04</pdfrwt>
<totfact> 0.78660470E-01</totfact>
</mgrwt>
</event>
<event>
 4    1  0.1308745E-008  0.3063671E+04  0.7816531E-02  0.8225779E-01
         -2   -1    0    0    0  501 -0.00000000000E+00  0.00000000000E+00  0.97835458561E+03  0.97835458561E+03  0.00000000000E+00 0. -1.
          2   -1    0    0  501    0  0.00000000000E+00 -0.00000000000E+00 -0.23984347795E+04  0.23984347795E+04  0.00000000000E+00 0.  1.
    2000013    1    1    2    0    0 -0.52930225516E+03 -0.29270453911E+03  0.43443957822E+03  0.12070934395E+04  0.95000000000E+03 0.  0.
   -2000013    1    1    2    0    0  0.52930225516E+03  0.29270453911E+03 -0.18545197721E+04  0.21696959256E+04  0.95000000000E+03 0.  0.
<mgrwt>
<rscale>  0 0.30636708E+04</rscale>
<asrwt>0</asrwt>
<pdfrwt beam="2">  1        2 0.36898997E+00 0.30636708E+04</pdfrwt>
<pdfrwt beam="1">  1       -2 0.15051609E+00 0.30636708E+04</pdfrwt>
<totfact> 0.10070477E+00</totfact>
</mgrwt>
</event>
<event>
 4    1  0.1308745E-008  0.3294895E+04  0.7816531E-02  0.8164196E-01
          2   -1    0    0  501    0  0.00000000000E+00  0.00000000000E+00  0.13677461782E+04  0.13677461782E+04  0.00000000000E+00 0.  1.
         -2   -1    0    0    0  501 -0.00000000000E+00 -0.00000000000E+00 -0.19843468048E+04  0.19843468048E+04  0.00000000000E+00 0. -1.
    2000013    1    1    2    0    0 -0.11582093155E+04 -0.68504564896E+03 -0.33789829277E+03  0.16814908908E+04  0.95000000000E+03 0.  0.
   -2000013    1    1    2    0    0  0.11582093155E+04  0.68504564896E+03 -0.27870233385E+03  0.16706020922E+04  0.95000000000E+03 0.  0.
<mgrwt>
<rscale>  0 0.32948947E+04</rscale>
<asrwt>0</asrwt>
<pdfrwt beam="1">  1        2 0.21042249E+00 0.32948947E+04</pdfrwt>
<pdfrwt beam="2">  1       -2 0.30528412E+00 0.32948947E+04</pdfrwt>
<totfact> 0.37217197E-01</totfact>
</mgrwt>
</event>
<event>
 4    1  0.1308745E-008  0.2090656E+04  0.7816531E-02  0.8565371E-01
         -2   -1    0    0    0  501 -0.00000000000E+00  0.00000000000E+00  0.48318389915E+03  0.48318389915E+03  0.00000000000E+00 0. -1.
          2   -1    0    0  501    0  0.00000000000E+00 -0.00000000000E+00 -0.22614787569E+04  0.22614787569E+04  0.00000000000E+00 0.  1.
    2000013    1    1    2    0    0  0.38489337409E+03 -0.17897386601E+03 -0.10206631001E+04  0.14575416694E+04  0.95000000000E+03 0.  0.
   -2000013    1    1    2    0    0 -0.38489337409E+03  0.17897386601E+03 -0.75763175767E+03  0.12871209867E+04  0.95000000000E+03 0.  0.
<mgrwt>
<rscale>  0 0.20906555E+04</rscale>
<asrwt>0</asrwt>
<pdfrwt beam="2">  1        2 0.34791980E+00 0.20906555E+04</pdfrwt>
<pdfrwt beam="1">  1       -2 0.74335986E-01 0.20906555E+04</pdfrwt>
<totfact> 0.71604374E+00</totfact>
</mgrwt>
</event>
<event>
 4    1  0.1308745E-008  0.2737533E+04  0.7816531E-02  0.8322929E-01
          1   -1    0    0  501    0  0.00000000000E+00  0.00000000000E+00  0.11965130271E+04  0.11965130271E+04  0.00000000000E+00 0. -1.
         -1   -1    0    0    0  501 -0.00000000000E+00 -0.00000000000E+00 -0.15658178225E+04  0.15658178225E+04  0.00000000000E+00 0.  1.
    2000013    1    1    2    0    0  0.51923880538E+03 -0.36521454147E+03  0.57585303019E+03  0.12794910358E+04  0.95000000000E+03 0.  0.
   -2000013    1    1    2    0    0 -0.51923880538E+03  0.36521454147E+03 -0.94515782561E+03  0.14828398139E+04  0.95000000000E+03 0.  0.
<mgrwt>
<rscale>  0 0.27375328E+04</rscale>
<asrwt>0</asrwt>
<pdfrwt beam="1">  1        1 0.18407893E+00 0.27375328E+04</pdfrwt>
<pdfrwt beam="2">  1       -1 0.24089505E+00 0.27375328E+04</pdfrwt>
<totfact> 0.74824131E-01</totfact>
</mgrwt>
</event>
<event>
 4    1  0.1308745E-008  0.2578870E+04  0.7816531E-02  0.8375414E-01
          2   -1    0    0  501    0  0.00000000000E+00  0.00000000000E+00  0.18376039459E+04  0.18376039459E+04  0.00000000000E+00 0.  1.
         -2   -1    0    0    0  501 -0.00000000000E+00 -0.00000000000E+00 -0.90478824205E+03  0.90478824205E+03  0.00000000000E+00 0. -1.
    2000013    1    1    2    0    0 -0.14860197400E+03  0.78415710231E+03  0.93217307249E+02  0.12442565548E+04  0.95000000000E+03 0.  0.
   -2000013    1    1    2    0    0  0.14860197400E+03 -0.78415710231E+03  0.83959839663E+03  0.14981356332E+04  0.95000000000E+03 0.  0.
<mgrwt>
<rscale>  0 0.25788699E+04</rscale>
<asrwt>0</asrwt>
<pdfrwt beam="1">  1        2 0.28270830E+00 0.25788699E+04</pdfrwt>
<pdfrwt beam="2">  1       -2 0.13919819E+00 0.25788699E+04</pdfrwt>
<totfact> 0.26569378E+00</totfact>
</mgrwt>
</event>
<event>
 4    1  0.1308745E-008  0.2214712E+04  0.7816531E-02  0.8512330E-01
          2   -1    0    0  501    0  0.00000000000E+00  0.00000000000E+00  0.29378322827E+03  0.29378322827E+03  0.00000000000E+00 0.  1.
         -2   -1    0    0    0  501 -0.00000000000E+00 -0.00000000000E+00 -0.41739512516E+04  0.41739512516E+04  0.00000000000E+00 0. -1.
    2000013    1    1    2    0    0  0.27120679823E+03 -0.37807302348E+03 -0.26007132006E+04  0.28076149113E+04  0.95000000000E+03 0.  0.
   -2000013    1    1    2    0    0 -0.27120679823E+03  0.37807302348E+03 -0.12794548228E+04  0.16601195686E+04  0.95000000000E+03 0.  0.
<mgrwt>
<rscale>  0 0.22147116E+04</rscale>
<asrwt>0</asrwt>
<pdfrwt beam="1">  1        2 0.45197423E-01 0.22147116E+04</pdfrwt>
<pdfrwt beam="2">  1       -2 0.64214630E+00 0.22147116E+04</pdfrwt>
<totfact> 0.35950951E-02</totfact>
</mgrwt>
</event>
<event>
 4    1  0.1308745E-008  0.2226028E+04  0.7816531E-02  0.8507672E-01
          2   -1    0    0  501    0  0.00000000000E+00  0.00000000000E+00  0.22070113388E+04  0.22070113388E+04  0.00000000000E+00 0.  1.
         -2   -1    0    0    0  501 -0.00000000000E+00 -0.00000000000E+00 -0.56130238139E+03  0.56130238139E+03  0.00000000000E+00 0. -1.
    2000013    1    1    2    0    0 -0.28726940355E+03 -0.35996833551E+03  0.12611278113E+04  0.16447018785E+04  0.95000000000E+03 0.  0.
   -2000013    1    1    2    0    0  0.28726940355E+03  0.35996833551E+03  0.38458114611E+03  0.11236118417E+04  0.95000000000E+03 0.  0.
<mgrwt>
<rscale>  0 0.22260285E+04</rscale>
<asrwt>0</asrwt>
<pdfrwt beam="1">  1        2 0.33954020E+00 0.22260285E+04</pdfrwt>
<pdfrwt beam="2">  1       -2 0.86354214E-01 0.22260285E+04</pdfrwt>
<totfact> 0.54235527E+00</totfact>
</mgrwt>
</event>
<event>
 4    1  0.1308745E-008  0.2305559E+04  0.7816531E-02  0.8475732E-01
          2   -1    0    0  501    0  0.00000000000E+00  0.00000000000E+00  0.13797758806E+04  0.13797758806E+04  0.00000000000E+00 0.  1.
         -2   -1    0    0    0  501 -0.00000000000E+00 -0.00000000000E+00 -0.96312805106E+03  0.96312805106E+03  0.00000000000E+00 0. -1.
    2000013    1    1    2    0    0 -0.55484897772E+03 -0.33274021952E+03  0.11841819561E+03  0.11554636778E+04  0.95000000000E+03 0.  0.
   -2000013    1    1    2    0    0  0.55484897772E+03  0.33274021952E+03  0.29822963390E+03  0.11874402538E+04  0.95000000000E+03 0.  0.
<mgrwt>
<rscale>  0 0.23055592E+04</rscale>
<asrwt>0</asrwt>
<pdfrwt beam="1">  1        2 0.21227321E+00 0.23055592E+04</pdfrwt>
<pdfrwt beam="2">  1       -2 0.14817355E+00 0.23055592E+04</pdfrwt>
<totfact> 0.41692011E+00</totfact>
</mgrwt>
</event>
<event>
 4    1  0.1308745E-008  0.2244963E+04  0.7816531E-02  0.8499943E-01
         -2   -1    0    0    0  501 -0.00000000000E+00  0.00000000000E+00  0.55861967926E+03  0.55861967926E+03  0.00000000000E+00 0.  1.
          2   -1    0    0  501    0  0.00000000000E+00 -0.00000000000E+00 -0.22554968081E+04  0.22554968081E+04  0.00000000000E+00 0. -1.
    2000013    1    1    2    0    0  0.52918704954E+03 -0.22386151558E+03 -0.64127682974E+03  0.12821423025E+04  0.95000000000E+03 0.  0.
   -2000013    1    1    2    0    0 -0.52918704954E+03  0.22386151558E+03 -0.10556002992E+04  0.15319741849E+04  0.95000000000E+03 0.  0.
<mgrwt>
<rscale>  0 0.22449632E+04</rscale>
<asrwt>0</asrwt>
<pdfrwt beam="2">  1        2 0.34699950E+00 0.22449632E+04</pdfrwt>
<pdfrwt beam="1">  1       -2 0.85941492E-01 0.22449632E+04</pdfrwt>
<totfact> 0.51405748E+00</totfact>
</mgrwt>
</event>
<event>
 4    1  0.1308745E-008  0.2416305E+04  0.7816531E-02  0.8433424E-01
         -2   -1    0    0    0  501 -0.00000000000E+00  0.00000000000E+00  0.12108646784E+04  0.12108646784E+04  0.00000000000E+00 0. -1.
          2   -1    0    0  501    0  0.00000000000E+00 -0.00000000000E+00 -0.12054463664E+04  0.12054463664E+04  0.00000000000E+00 0.  1.
    2000013    1    1    2    0    0  0.64693672865E+03  0.24596332278E+03 -0.27676845055E+03  0.12075288246E+04  0.95000000000E+03 0.  0.
   -2000013    1    1    2    0    0 -0.64693672865E+03 -0.24596332278E+03  0.28218676252E+03  0.12087822202E+04  0.95000000000E+03 0.  0.
<mgrwt>
<rscale>  0 0.24163050E+04</rscale>
<asrwt>0</asrwt>
<pdfrwt beam="2">  1        2 0.18545329E+00 0.24163050E+04</pdfrwt>
<pdfrwt beam="1">  1       -2 0.18628687E+00 0.24163050E+04</pdfrwt>
<totfact> 0.27722332E+00</totfact>
</mgrwt>
</event>
<event>
 4    1  0.1308745E-008  0.2707042E+04  0.7816531E-02  0.8332724E-01
         -2   -1    0    0    0  501 -0.00000000000E+00  0.00000000000E+00  0.15335978751E+04  0.15335978751E+04  0.00000000000E+00 0. -1.
          2   -1    0    0  501    0  0.00000000000E+00 -0.00000000000E+00 -0.11945893112E+04  0.11945893112E+04  0.00000000000E+00 0.  1.
    2000013    1    1    2    0    0 -0.58343099853E+03  0.75849589019E+03  0.51062327622E+02  0.13493758212E+04  0.95000000000E+03 0.  0.
   -2000013    1    1    2    0    0  0.58343099853E+03 -0.75849589019E+03  0.28794623633E+03  0.13788113651E+04  0.95000000000E+03 0.  0.
<mgrwt>
<rscale>  0 0.27070424E+04</rscale>
<asrwt>0</asrwt>
<pdfrwt beam="2">  1        2 0.18378297E+00 0.27070424E+04</pdfrwt>
<pdfrwt beam="1">  1       -2 0.23593813E+00 0.27070424E+04</pdfrwt>
<totfact> 0.13134646E+00</totfact>
</mgrwt>
</event>
<event>
 4    1  0.1308745E-008  0.2570943E+04  0.7816531E-02  0.8378139E-01
          2   -1    0    0  501    0  0.00000000000E+00  0.00000000000E+00  0.18812218724E+04  0.18812218724E+04  0.00000000000E+00 0.  1.
         -2   -1    0    0    0  501 -0.00000000000E+00 -0.00000000000E+00 -0.87838479034E+03  0.87838479034E+03  0.00000000000E+00 0. -1.
    2000013    1    1    2    0    0  0.61226755112E+03  0.61073492812E+03  0.45260646844E+03  0.13620650946E+04  0.95000000000E+03 0.  0.
   -2000013    1    1    2    0    0 -0.61226755112E+03 -0.61073492812E+03  0.55023061361E+03  0.13975415682E+04  0.95000000000E+03 0.  0.
<mgrwt>
<rscale>  0 0.25709428E+04</rscale>
<asrwt>0</asrwt>
<pdfrwt beam="1">  1        2 0.28941875E+00 0.25709428E+04</pdfrwt>
<pdfrwt beam="2">  1       -2 0.13513612E+00 0.25709428E+04</pdfrwt>
<totfact> 0.27140384E+00</totfact>
</mgrwt>
</event>
<event>
 4    1  0.1308745E-008  0.3049301E+04  0.7816531E-02  0.8229791E-01
          2   -1    0    0  501    0  0.00000000000E+00  0.00000000000E+00  0.21480770312E+04  0.21480770312E+04  0.00000000000E+00 0.  1.
         -2   -1    0    0    0  501 -0.00000000000E+00 -0.00000000000E+00 -0.10821582477E+04  0.10821582477E+04  0.00000000000E+00 0. -1.
    2000013    1    1    2    0    0 -0.34811833488E+03  0.11026325355E+04  0.84194146026E+03  0.17170760920E+04  0.95000000000E+03 0.  0.
   -2000013    1    1    2    0    0  0.34811833488E+03 -0.11026325355E+04  0.22397732328E+03  0.15131591868E+04  0.95000000000E+03 0.  0.
<mgrwt>
<rscale>  0 0.30493011E+04</rscale>
<asrwt>0</asrwt>
<pdfrwt beam="1">  1        2 0.33047339E+00 0.30493011E+04</pdfrwt>
<pdfrwt beam="2">  1       -2 0.16648588E+00 0.30493011E+04</pdfrwt>
<totfact> 0.10634452E+00</totfact>
</mgrwt>
</event>
<event>
 4    1  0.1308745E-008  0.2038373E+04  0.7816531E-02  0.8588887E-01
          2   -1    0    0  501    0  0.00000000000E+00  0.00000000000E+00  0.12359033573E+04  0.12359033573E+04  0.00000000000E+00 0.  1.
         -2   -1    0    0    0  501 -0.00000000000E+00 -0.00000000000E+00 -0.84047107194E+03  0.84047107194E+03  0.00000000000E+00 0. -1.
    2000013    1    1    2    0    0  0.23350654312E+03 -0.27915094263E+03  0.13500159624E+03  0.10262436287E+04  0.95000000000E+03 0.  0.
   -2000013    1    1    2    0    0 -0.23350654312E+03  0.27915094263E+03  0.26043068914E+03  0.10501308006E+04  0.95000000000E+03 0.  0.
<mgrwt>
<rscale>  0 0.20383729E+04</rscale>
<asrwt>0</asrwt>
<pdfrwt beam="1">  1        2 0.19013898E+00 0.20383729E+04</pdfrwt>
<pdfrwt beam="2">  1       -2 0.12930324E+00 0.20383729E+04</pdfrwt>
<totfact> 0.73532268E+00</totfact>
</mgrwt>
</event>
<event>
 4    1  0.1308745E-008  0.2490992E+04  0.7816531E-02  0.8406202E-01
          1   -1    0    0  501    0  0.00000000000E+00  0.00000000000E+00  0.77433029947E+03  0.77433029947E+03  0.00000000000E+00 0.  1.
         -1   -1    0    0    0  501 -0.00000000000E+00 -0.00000000000E+00 -0.20033567238E+04  0.20033567238E+04  0.00000000000E+00 0. -1.
    2000013    1    1    2    0    0  0.61669917004E+03 -0.46229196797E+03 -0.87537841830E+03  0.15042669661E+04  0.95000000000E+03 0.  0.
   -2000013    1    1    2    0    0 -0.61669917004E+03  0.46229196797E+03 -0.35364800607E+03  0.12734200572E+04  0.95000000000E+03 0.  0.
<mgrwt>
<rscale>  0 0.24909916E+04</rscale>
<asrwt>0</asrwt>
<pdfrwt beam="1">  1        1 0.11912774E+00 0.24909916E+04</pdfrwt>
<pdfrwt beam="2">  1       -1 0.30820872E+00 0.24909916E+04</pdfrwt>
<totfact> 0.60498677E-01</totfact>
</mgrwt>
</event>
<event>
 4    1  0.1308745E-008  0.2836866E+04  0.7816531E-02  0.8291914E-01
         -1   -1    0    0    0  501 -0.00000000000E+00  0.00000000000E+00  0.24754271139E+04  0.24754271139E+04  0.00000000000E+00 0. -1.
          1   -1    0    0  501    0  0.00000000000E+00 -0.00000000000E+00 -0.81276944452E+03  0.81276944452E+03  0.00000000000E+00 0.  1.
    2000013    1    1    2    0    0  0.40654120915E+03  0.62015724212E+03  0.16983913394E+04  0.20825234456E+04  0.95000000000E+03 0.  0.
   -2000013    1    1    2    0    0 -0.40654120915E+03 -0.62015724212E+03 -0.35733670060E+02  0.12056731128E+04  0.95000000000E+03 0.  0.
<mgrwt>
<rscale>  0 0.28368655E+04</rscale>
<asrwt>0</asrwt>
<pdfrwt beam="2">  1        1 0.12504145E+00 0.28368655E+04</pdfrwt>
<pdfrwt beam="1">  1       -1 0.38083494E+00 0.28368655E+04</pdfrwt>
<totfact> 0.17956077E-01</totfact>
</mgrwt>
</event>
<event>
 4    1  0.1308745E-008  0.2806843E+04  0.7816531E-02  0.8301147E-01
         -2   -1    0    0    0  501 -0.00000000000E+00  0.00000000000E+00  0.78786337281E+03  0.78786337281E+03  0.00000000000E+00 0. -1.
          2   -1    0    0  501    0  0.00000000000E+00 -0.00000000000E+00 -0.24999155460E+04  0.24999155460E+04  0.00000000000E+00 0.  1.
    2000013    1    1    2    0    0 -0.98995744854E+03 -0.22397776912E+03 -0.63098743650E+03  0.15267046001E+04  0.95000000000E+03 0.  0.
   -2000013    1    1    2    0    0  0.98995744854E+03  0.22397776912E+03 -0.10810647367E+04  0.17610743187E+04  0.95000000000E+03 0.  0.
<mgrwt>
<rscale>  0 0.28068430E+04</rscale>
<asrwt>0</asrwt>
<pdfrwt beam="2">  1        2 0.38460239E+00 0.28068430E+04</pdfrwt>
<pdfrwt beam="1">  1       -2 0.12120975E+00 0.28068430E+04</pdfrwt>
<totfact> 0.15677181E+00</totfact>
</mgrwt>
</event>
<event>
 4    1  0.1308745E-008  0.3583229E+04  0.7816531E-02  0.8094344E-01
         -1   -1    0    0    0  501 -0.00000000000E+00  0.00000000000E+00  0.11664337039E+04  0.11664337039E+04  0.00000000000E+00 0. -1.
          1   -1    0    0  501    0  0.00000000000E+00 -0.00000000000E+00 -0.27518769375E+04  0.27518769375E+04  0.00000000000E+00 0.  1.
    2000013    1    1    2    0    0 -0.12713400928E+04 -0.58866854614E+03 -0.15085060361E+03  0.16994387878E+04  0.95000000000E+03 0.  0.
   -2000013    1    1    2    0    0  0.12713400928E+04  0.58866854614E+03 -0.14345926300E+04  0.22188718537E+04  0.95000000000E+03 0.  0.
<mgrwt>
<rscale>  0 0.35832287E+04</rscale>
<asrwt>0</asrwt>
<pdfrwt beam="2">  1        1 0.42336568E+00 0.35832287E+04</pdfrwt>
<pdfrwt beam="1">  1       -1 0.17945134E+00 0.35832287E+04</pdfrwt>
<totfact> 0.15337660E-01</totfact>
</mgrwt>
</event>
<event>
 4    1  0.1308745E-008  0.2417350E+04  0.7816531E-02  0.8433036E-01
          2   -1    0    0  501    0  0.00000000000E+00  0.00000000000E+00  0.37020606621E+04  0.37020606621E+04  0.00000000000E+00 0.  1.
         -2   -1    0    0    0  501 -0.00000000000E+00 -0.00000000000E+00 -0.39461691249E+03  0.39461691249E+03  0.00000000000E+00 0. -1.
    2000013    1    1    2    0    0  0.32478118632E+03 -0.63384082071E+03  0.12704101443E+04  0.17388728935E+04  0.95000000000E+03 0.  0.
   -2000013    1    1    2    0    0 -0.32478118632E+03  0.63384082071E+03  0.20370336052E+04  0.23578046810E+04  0.95000000000E+03 0.  0.
<mgrwt>
<rscale>  0 0.24173504E+04</rscale>
<asrwt>0</asrwt>
<pdfrwt beam="1">  1        2 0.56954777E+00 0.24173504E+04</pdfrwt>
<pdfrwt beam="2">  1       -2 0.60710297E-01 0.24173504E+04</pdfrwt>
<totfact> 0.13230102E+00</totfact>
</mgrwt>
</event>
<event>
 4    1  0.1308745E-008  0.2680476E+04  0.7816531E-02  0.8341368E-01
          2   -1    0    0  501    0  0.00000000000E+00  0.00000000000E+00  0.16312945609E+04  0.16312945609E+04  0.00000000000E+00 0.  1.
         -2   -1    0    0    0  501 -0.00000000000E+00 -0.00000000000E+00 -0.11011122473E+04  0.11011122473E+04  0.00000000000E+00 0. -1.
    2000013    1    1    2    0    0 -0.17626092928E+03 -0.88462924226E+03 -0.23414273017E+02  0.13102232785E+04  0.95000000000E+03 0.  0.
   -2000013    1    1    2    0    0  0.17626092928E+03  0.88462924226E+03  0.55359658665E+03  0.14221835297E+04  0.95000000000E+03 0.  0.
<mgrwt>
<rscale>  0 0.26804764E+04</rscale>
<asrwt>0</asrwt>
<pdfrwt beam="1">  1        2 0.25096839E+00 0.26804764E+04</pdfrwt>
<pdfrwt beam="2">  1       -2 0.16940188E+00 0.26804764E+04</pdfrwt>
<totfact> 0.20261551E+00</totfact>
</mgrwt>
</event>
<event>
 4    1  0.1308745E-008  0.2676210E+04  0.7816531E-02  0.8342766E-01
         -3   -1    0    0    0  501 -0.00000000000E+00  0.00000000000E+00  0.15074273853E+04  0.15074273853E+04  0.00000000000E+00 0. -1.
          3   -1    0    0  501    0  0.00000000000E+00 -0.00000000000E+00 -0.11878016609E+04  0.11878016609E+04  0.00000000000E+00 0.  1.
    2000013    1    1    2    0    0  0.87906366936E+02  0.53343729690E+03 -0.61751562064E+03  0.12554315675E+04  0.95000000000E+03 0.  0.
   -2000013    1    1    2    0    0 -0.87906366936E+02 -0.53343729690E+03  0.93714134497E+03  0.14397974786E+04  0.95000000000E+03 0.  0.
<mgrwt>
<rscale>  0 0.26762098E+04</rscale>
<asrwt>0</asrwt>
<pdfrwt beam="2">  1        3 0.18273872E+00 0.26762098E+04</pdfrwt>
<pdfrwt beam="1">  1       -3 0.23191191E+00 0.26762098E+04</pdfrwt>
<totfact> 0.40643624E-02</totfact>
</mgrwt>
</event>
<event>
 4    1  0.1308745E-008  0.2564892E+04  0.7816531E-02  0.8380225E-01
         -2   -1    0    0    0  501 -0.00000000000E+00  0.00000000000E+00  0.17261508433E+04  0.17261508433E+04  0.00000000000E+00 0.  1.
          2   -1    0    0  501    0  0.00000000000E+00 -0.00000000000E+00 -0.95279515661E+03  0.95279515661E+03  0.00000000000E+00 0. -1.
    2000013    1    1    2    0    0  0.31975835368E+02  0.72462282412E+03 -0.98822471861E+02  0.11993192120E+04  0.95000000000E+03 0.  0.
   -2000013    1    1    2    0    0 -0.31975835368E+02 -0.72462282412E+03  0.87217815853E+03  0.14796267879E+04  0.95000000000E+03 0.  0.
<mgrwt>
<rscale>  0 0.25648923E+04</rscale>
<asrwt>0</asrwt>
<pdfrwt beam="2">  1        2 0.14658387E+00 0.25648923E+04</pdfrwt>
<pdfrwt beam="1">  1       -2 0.26556167E+00 0.25648923E+04</pdfrwt>
<totfact> 0.12372522E+00</totfact>
</mgrwt>
</event>
<event>
 4    1  0.1308745E-008  0.4124771E+04  0.7816531E-02  0.7979839E-01
          2   -1    0    0  501    0  0.00000000000E+00  0.00000000000E+00  0.24859588906E+04  0.24859588906E+04  0.00000000000E+00 0.  1.
         -2   -1    0    0    0  501 -0.00000000000E+00 -0.00000000000E+00 -0.17109829310E+04  0.17109829310E+04  0.00000000000E+00 0. -1.
    2000013    1    1    2    0    0 -0.82869358265E+02  0.86138382050E+03  0.20288099545E+04  0.24015451793E+04  0.95000000000E+03 0.  0.
   -2000013    1    1    2    0    0  0.82869358265E+02 -0.86138382050E+03 -0.12538339949E+04  0.17953966424E+04  0.95000000000E+03 0.  0.
<mgrwt>
<rscale>  0 0.41247707E+04</rscale>
<asrwt>0</asrwt>
<pdfrwt beam="1">  1        2 0.38245522E+00 0.41247707E+04</pdfrwt>
<pdfrwt beam="2">  1       -2 0.26322814E+00 0.41247707E+04</pdfrwt>
<totfact> 0.14768685E-01</totfact>
</mgrwt>
</event>
<event>
 4    1  0.1308745E-008  0.2453246E+04  0.7816531E-02  0.8419834E-01
          2   -1    0    0  501    0  0.00000000000E+00  0.00000000000E+00  0.26469015828E+04  0.26469015828E+04  0.00000000000E+00 0. -1.
         -2   -1    0    0    0  501 -0.00000000000E+00 -0.00000000000E+00 -0.56843973385E+03  0.56843973385E+03  0.00000000000E+00 0.  1.
    2000013    1    1    2    0    0 -0.50303608422E+03 -0.51831126236E+03  0.66757004416E+03  0.13674215263E+04  0.95000000000E+03 0.  0.
   -2000013    1    1    2    0    0  0.50303608422E+03  0.51831126236E+03  0.14108918048E+04  0.18479197903E+04  0.95000000000E+03 0.  0.
<mgrwt>
<rscale>  0 0.24532460E+04</rscale>
<asrwt>0</asrwt>
<pdfrwt beam="1">  1        2 0.40721562E+00 0.24532460E+04</pdfrwt>
<pdfrwt beam="2">  1       -2 0.87452268E-01 0.24532460E+04</pdfrwt>
<totfact> 0.28861802E+00</totfact>
</mgrwt>
</event>
<event>
 4    1  0.1308745E-008  0.2178906E+04  0.7816531E-02  0.8527260E-01
         -2   -1    0    0    0  501 -0.00000000000E+00  0.00000000000E+00  0.28231035485E+03  0.28231035485E+03  0.00000000000E+00 0.  1.
          2   -1    0    0  501    0  0.00000000000E+00 -0.00000000000E+00 -0.42042644024E+04  0.42042644024E+04  0.00000000000E+00 0. -1.
    2000013    1    1    2    0    0  0.39501404591E+03  0.34050548140E+03 -0.17314336183E+04  0.20426312575E+04  0.95000000000E+03 0.  0.
   -2000013    1    1    2    0    0 -0.39501404591E+03 -0.34050548140E+03 -0.21905204293E+04  0.24439434998E+04  0.95000000000E+03 0.  0.
<mgrwt>
<rscale>  0 0.21789056E+04</rscale>
<asrwt>0</asrwt>
<pdfrwt beam="2">  1        2 0.64680993E+00 0.21789056E+04</pdfrwt>
<pdfrwt beam="1">  1       -2 0.43432361E-01 0.21789056E+04</pdfrwt>
<totfact> 0.10710594E+00</totfact>
</mgrwt>
</event>
<event>
 4    1  0.1308745E-008  0.2596200E+04  0.7816531E-02  0.8369493E-01
          1   -1    0    0  501    0  0.00000000000E+00  0.00000000000E+00  0.32493189799E+04  0.32493189799E+04  0.00000000000E+00 0. -1.
         -1   -1    0    0    0  501 -0.00000000000E+00 -0.00000000000E+00 -0.51858978594E+03  0.51858978594E+03  0.00000000000E+00 0.  1.
    2000013    1    1    2    0    0  0.20994761679E+03  0.77076105135E+03  0.19168898800E+04  0.22836631564E+04  0.95000000000E+03 0.  0.
   -2000013    1    1    2    0    0 -0.20994761679E+03 -0.77076105135E+03  0.81383931399E+03  0.14842456094E+04  0.95000000000E+03 0.  0.
<mgrwt>
<rscale>  0 0.25962000E+04</rscale>
<asrwt>0</asrwt>
<pdfrwt beam="1">  1        1 0.49989521E+00 0.25962000E+04</pdfrwt>
<pdfrwt beam="2">  1       -1 0.79783046E-01 0.25962000E+04</pdfrwt>
<totfact> 0.53940550E-01</totfact>
</mgrwt>
</event>
<event>
 4    1  0.1308745E-008  0.2054088E+04  0.7816531E-02  0.8581742E-01
         -2   -1    0    0    0  501 -0.00000000000E+00  0.00000000000E+00  0.44990858911E+03  0.44990858911E+03  0.00000000000E+00 0. -1.
          2   -1    0    0  501    0  0.00000000000E+00 -0.00000000000E+00 -0.23445194141E+04  0.23445194141E+04  0.00000000000E+00 0.  1.
    2000013    1    1    2    0    0  0.29091555199E+03  0.26016745675E+03 -0.94822589317E+03  0.13978380838E+04  0.95000000000E+03 0.  0.
   -2000013    1    1    2    0    0 -0.29091555199E+03 -0.26016745675E+03 -0.94638493185E+03  0.13965899195E+04  0.95000000000E+03 0.  0.
<mgrwt>
<rscale>  0 0.20540880E+04</rscale>
<asrwt>0</asrwt>
<pdfrwt beam="2">  1        2 0.36069530E+00 0.20540880E+04</pdfrwt>
<pdfrwt beam="1">  1       -2 0.69216705E-01 0.20540880E+04</pdfrwt>
<totfact> 0.75378756E+00</totfact>
</mgrwt>
</event>
<event>
 4    1  0.1308745E-008  0.2259838E+04  0.7816531E-02  0.8493927E-01
         -2   -1    0    0    0  501 -0.00000000000E+00  0.00000000000E+00  0.62175177651E+03  0.62175177651E+03  0.00000000000E+00 0.  1.
          2   -1    0    0  501    0  0.00000000000E+00 -0.00000000000E+00 -0.20534199586E+04  0.20534199586E+04  0.00000000000E+00 0. -1.
    2000013    1    1    2    0    0  0.32039020987E+03 -0.51353899691E+03 -0.82068678054E+03  0.13936997452E+04  0.95000000000E+03 0.  0.
   -2000013    1    1    2    0    0 -0.32039020987E+03  0.51353899691E+03 -0.61098140154E+03  0.12814719899E+04  0.95000000000E+03 0.  0.
<mgrwt>
<rscale>  0 0.22598385E+04</rscale>
<asrwt>0</asrwt>
<pdfrwt beam="2">  1        2 0.31591076E+00 0.22598385E+04</pdfrwt>
<pdfrwt beam="1">  1       -2 0.95654120E-01 0.22598385E+04</pdfrwt>
<totfact> 0.52039587E+00</totfact>
</mgrwt>
</event>
<event>
 4    1  0.1308745E-008  0.3084921E+04  0.7816531E-02  0.8219888E-01
         -2   -1    0    0    0  501 -0.00000000000E+00  0.00000000000E+00  0.18625752654E+04  0.18625752654E+04  0.00000000000E+00 0. -1.
          2   -1    0    0  501    0  0.00000000000E+00 -0.00000000000E+00 -0.12773626258E+04  0.12773626258E+04  0.00000000000E+00 0.  1.
    2000013    1    1    2    0    0  0.93996234440E+03 -0.34401505381E+03 -0.40874605296E+03  0.14392528971E+04  0.95000000000E+03 0.  0.
   -2000013    1    1    2    0    0 -0.93996234440E+03  0.34401505381E+03  0.99395869256E+03  0.17006849940E+04  0.95000000000E+03 0.  0.
<mgrwt>
<rscale>  0 0.30849208E+04</rscale>
<asrwt>0</asrwt>
<pdfrwt beam="2">  1        2 0.19651733E+00 0.30849208E+04</pdfrwt>
<pdfrwt beam="1">  1       -2 0.28655004E+00 0.30849208E+04</pdfrwt>
<totfact> 0.55645170E-01</totfact>
</mgrwt>
</event>
<event>
 4    1  0.1308745E-008  0.2474329E+04  0.7816531E-02  0.8412188E-01
          2   -1    0    0  501    0  0.00000000000E+00  0.00000000000E+00  0.15240408272E+04  0.15240408272E+04  0.00000000000E+00 0.  1.
         -2   -1    0    0    0  501 -0.00000000000E+00 -0.00000000000E+00 -0.10042880017E+04  0.10042880017E+04  0.00000000000E+00 0. -1.
    2000013    1    1    2    0    0 -0.14766738867E+03 -0.67531383476E+03  0.65591923515E+03  0.13455796060E+04  0.95000000000E+03 0.  0.
   -2000013    1    1    2    0    0  0.14766738867E+03  0.67531383476E+03 -0.13616640965E+03  0.11827492229E+04  0.95000000000E+03 0.  0.
<mgrwt>
<rscale>  0 0.24743289E+04</rscale>
<asrwt>0</asrwt>
<pdfrwt beam="1">  1        2 0.23446782E+00 0.24743289E+04</pdfrwt>
<pdfrwt beam="2">  1       -2 0.15450585E+00 0.24743289E+04</pdfrwt>
<totfact> 0.30451887E+00</totfact>
</mgrwt>
</event>
<event>
 4    1  0.1308745E-008  0.2919327E+04  0.7816531E-02  0.8267150E-01
         -2   -1    0    0    0  501 -0.00000000000E+00  0.00000000000E+00  0.16923688226E+04  0.16923688226E+04  0.00000000000E+00 0. -1.
          2   -1    0    0  501    0  0.00000000000E+00 -0.00000000000E+00 -0.12589559177E+04  0.12589559177E+04  0.00000000000E+00 0.  1.
    2000013    1    1    2    0    0 -0.46253051284E+03  0.10069993174E+04  0.20493218620E+03  0.14739332758E+04  0.95000000000E+03 0.  0.
   -2000013    1    1    2    0    0  0.46253051284E+03 -0.10069993174E+04  0.22848071868E+03  0.14773914645E+04  0.95000000000E+03 0.  0.
<mgrwt>
<rscale>  0 0.29193271E+04</rscale>
<asrwt>0</asrwt>
<pdfrwt beam="2">  1        2 0.19368553E+00 0.29193271E+04</pdfrwt>
<pdfrwt beam="1">  1       -2 0.26036443E+00 0.29193271E+04</pdfrwt>
<totfact> 0.83576690E-01</totfact>
</mgrwt>
</event>
<event>
 4    1  0.1308745E-008  0.2251793E+04  0.7816531E-02  0.8497175E-01
         -2   -1    0    0    0  501 -0.00000000000E+00  0.00000000000E+00  0.17974266447E+04  0.17974266447E+04  0.00000000000E+00 0. -1.
          2   -1    0    0  501    0  0.00000000000E+00 -0.00000000000E+00 -0.70525451636E+03  0.70525451636E+03  0.00000000000E+00 0.  1.
    2000013    1    1    2    0    0  0.15810614163E+03 -0.58043021820E+03  0.48275998256E+03  0.12237050261E+04  0.95000000000E+03 0.  0.
   -2000013    1    1    2    0    0 -0.15810614163E+03  0.58043021820E+03  0.60941214574E+03  0.12789761349E+04  0.95000000000E+03 0.  0.
<mgrwt>
<rscale>  0 0.22517933E+04</rscale>
<asrwt>0</asrwt>
<pdfrwt beam="2">  1        2 0.10850070E+00 0.22517933E+04</pdfrwt>
<pdfrwt beam="1">  1       -2 0.27652718E+00 0.22517933E+04</pdfrwt>
<totfact> 0.16335947E+00</totfact>
</mgrwt>
</event>
<event>
 4    1  0.1308745E-008  0.2296476E+04  0.7816531E-02  0.8479312E-01
         -2   -1    0    0    0  501 -0.00000000000E+00  0.00000000000E+00  0.89454292928E+03  0.89454292928E+03  0.00000000000E+00 0. -1.
          2   -1    0    0  501    0  0.00000000000E+00 -0.00000000000E+00 -0.14738819616E+04  0.14738819616E+04  0.00000000000E+00 0.  1.
    2000013    1    1    2    0    0 -0.58160825338E+03 -0.71098003930E+02 -0.11731134575E+02  0.11162260999E+04  0.95000000000E+03 0.  0.
   -2000013    1    1    2    0    0  0.58160825338E+03  0.71098003930E+02 -0.56760789776E+03  0.12521987910E+04  0.95000000000E+03 0.  0.
<mgrwt>
<rscale>  0 0.22964762E+04</rscale>
<asrwt>0</asrwt>
<pdfrwt beam="2">  1        2 0.22675107E+00 0.22964762E+04</pdfrwt>
<pdfrwt beam="1">  1       -2 0.13762199E+00 0.22964762E+04</pdfrwt>
<totfact> 0.44729737E+00</totfact>
</mgrwt>
</event>
<event>
 4    1  0.1308745E-008  0.2732284E+04  0.7816531E-02  0.8324605E-01
         -2   -1    0    0    0  501 -0.00000000000E+00  0.00000000000E+00  0.92658375229E+03  0.92658375229E+03  0.00000000000E+00 0. -1.
          2   -1    0    0  501    0  0.00000000000E+00 -0.00000000000E+00 -0.20142200690E+04  0.20142200690E+04  0.00000000000E+00 0.  1.
    2000013    1    1    2    0    0 -0.65394952876E+03 -0.72246770666E+03 -0.41540663877E+03  0.14229097824E+04  0.95000000000E+03 0.  0.
   -2000013    1    1    2    0    0  0.65394952876E+03  0.72246770666E+03 -0.67222967791E+03  0.15178940389E+04  0.95000000000E+03 0.  0.
<mgrwt>
<rscale>  0 0.27322837E+04</rscale>
<asrwt>0</asrwt>
<pdfrwt beam="2">  1        2 0.30988001E+00 0.27322837E+04</pdfrwt>
<pdfrwt beam="1">  1       -2 0.14255135E+00 0.27322837E+04</pdfrwt>
<totfact> 0.19669669E+00</totfact>
</mgrwt>
</event>
<event>
 4    1  0.1308745E-008  0.2445017E+04  0.7816531E-02  0.8422840E-01
          2   -1    0    0  501    0  0.00000000000E+00  0.00000000000E+00  0.11947080609E+04  0.11947080609E+04  0.00000000000E+00 0.  1.
         -2   -1    0    0    0  501 -0.00000000000E+00 -0.00000000000E+00 -0.12509553824E+04  0.12509553824E+04  0.00000000000E+00 0. -1.
    2000013    1    1    2    0    0 -0.58366752287E+03 -0.49532684065E+03  0.49421187820E+02  0.12210482833E+04  0.95000000000E+03 0.  0.
   -2000013    1    1    2    0    0  0.58366752287E+03  0.49532684065E+03 -0.10566850937E+03  0.12246151600E+04  0.95000000000E+03 0.  0.
<mgrwt>
<rscale>  0 0.24450165E+04</rscale>
<asrwt>0</asrwt>
<pdfrwt beam="1">  1        2 0.18380124E+00 0.24450165E+04</pdfrwt>
<pdfrwt beam="2">  1       -2 0.19245467E+00 0.24450165E+04</pdfrwt>
<totfact> 0.25510235E+00</totfact>
</mgrwt>
</event>
<event>
 4    1  0.1308745E-008  0.2195713E+04  0.7816531E-02  0.8520215E-01
         -2   -1    0    0    0  501 -0.00000000000E+00  0.00000000000E+00  0.10226069415E+04  0.10226069415E+04  0.00000000000E+00 0. -1.
          2   -1    0    0  501    0  0.00000000000E+00 -0.00000000000E+00 -0.11786432710E+04  0.11786432710E+04  0.00000000000E+00 0.  1.
    2000013    1    1    2    0    0 -0.25438987964E+03  0.43220261172E+03 -0.30503012171E+03  0.11167169219E+04  0.95000000000E+03 0.  0.
   -2000013    1    1    2    0    0  0.25438987964E+03 -0.43220261172E+03  0.14899379214E+03  0.10845332907E+04  0.95000000000E+03 0.  0.
<mgrwt>
<rscale>  0 0.21957129E+04</rscale>
<asrwt>0</asrwt>
<pdfrwt beam="2">  1        2 0.18132973E+00 0.21957129E+04</pdfrwt>
<pdfrwt beam="1">  1       -2 0.15732414E+00 0.21957129E+04</pdfrwt>
<totfact> 0.47041311E+00</totfact>
</mgrwt>
</event>
<event>
 4    1  0.1308745E-008  0.2442763E+04  0.7816531E-02  0.8423665E-01
         -2   -1    0    0    0  501 -0.00000000000E+00  0.00000000000E+00  0.10004236331E+04  0.10004236331E+04  0.00000000000E+00 0. -1.
          2   -1    0    0  501    0  0.00000000000E+00 -0.00000000000E+00 -0.14911409302E+04  0.14911409302E+04  0.00000000000E+00 0.  1.
    2000013    1    1    2    0    0 -0.71787825726E+03 -0.25970506673E+03 -0.32744447168E+03  0.12619492050E+04  0.95000000000E+03 0.  0.
   -2000013    1    1    2    0    0  0.71787825726E+03  0.25970506673E+03 -0.16327282533E+03  0.12296153583E+04  0.95000000000E+03 0.  0.
<mgrwt>
<rscale>  0 0.24427629E+04</rscale>
<asrwt>0</asrwt>
<pdfrwt beam="2">  1        2 0.22940630E+00 0.24427629E+04</pdfrwt>
<pdfrwt beam="1">  1       -2 0.15391133E+00 0.24427629E+04</pdfrwt>
<totfact> 0.32196088E+00</totfact>
</mgrwt>
</event>
<event>
 4    1  0.1308745E-008  0.2317605E+04  0.7816531E-02  0.8471012E-01
          2   -1    0    0  501    0  0.00000000000E+00  0.00000000000E+00  0.95094668026E+03  0.95094668026E+03  0.00000000000E+00 0.  1.
         -2   -1    0    0    0  501 -0.00000000000E+00 -0.00000000000E+00 -0.14120915477E+04  0.14120915477E+04  0.00000000000E+00 0. -1.
    2000013    1    1    2    0    0  0.49070693382E+02 -0.63346860128E+03 -0.35421935356E+02  0.11434356629E+04  0.95000000000E+03 0.  0.
   -2000013    1    1    2    0    0 -0.49070693382E+02  0.63346860128E+03 -0.42572293210E+03  0.12196025651E+04  0.95000000000E+03 0.  0.
<mgrwt>
<rscale>  0 0.23176055E+04</rscale>
<asrwt>0</asrwt>
<pdfrwt beam="1">  1        2 0.14629949E+00 0.23176055E+04</pdfrwt>
<pdfrwt beam="2">  1       -2 0.21724485E+00 0.23176055E+04</pdfrwt>
<totfact> 0.25249260E+00</totfact>
</mgrwt>
</event>
<event>
 4    1  0.1308745E-008  0.1987137E+04  0.7816531E-02  0.8612658E-01
          2   -1    0    0  501    0  0.00000000000E+00  0.00000000000E+00  0.15347901556E+04  0.15347901556E+04  0.00000000000E+00 0. -1.
         -2   -1    0    0    0  501 -0.00000000000E+00 -0.00000000000E+00 -0.64320073103E+03  0.64320073103E+03  0.00000000000E+00 0.  1.
    2000013    1    1    2    0    0  0.17432099631E+03  0.10242377748E+03  0.67517913054E+03  0.11828969939E+04  0.95000000000E+03 0.  0.
   -2000013    1    1    2    0    0 -0.17432099631E+03 -0.10242377748E+03  0.21641029405E+03  0.99509389271E+03  0.95000000000E+03 0.  0.
<mgrwt>
<rscale>  0 0.19871368E+04</rscale>
<asrwt>0</asrwt>
<pdfrwt beam="1">  1        2 0.23612156E+00 0.19871368E+04</pdfrwt>
<pdfrwt beam="2">  1       -2 0.98953958E-01 0.19871368E+04</pdfrwt>
<totfact> 0.95563250E+00</totfact>
</mgrwt>
</event>
<event>
 4    1  0.1308745E-008  0.2683428E+04  0.7816531E-02  0.8340402E-01
         -2   -1    0    0    0  501 -0.00000000000E+00  0.00000000000E+00  0.91620785322E+03  0.91620785322E+03  0.00000000000E+00 0. -1.
          2   -1    0    0  501    0  0.00000000000E+00 -0.00000000000E+00 -0.19648340646E+04  0.19648340646E+04  0.00000000000E+00 0.  1.
    2000013    1    1    2    0    0  0.83797266380E+03 -0.40026739211E+03 -0.72598712679E+03  0.15139251893E+04  0.95000000000E+03 0.  0.
   -2000013    1    1    2    0    0 -0.83797266380E+03  0.40026739211E+03 -0.32263908455E+03  0.13671167285E+04  0.95000000000E+03 0.  0.
<mgrwt>
<rscale>  0 0.26834280E+04</rscale>
<asrwt>0</asrwt>
<pdfrwt beam="2">  1        2 0.30228217E+00 0.26834280E+04</pdfrwt>
<pdfrwt beam="1">  1       -2 0.14095505E+00 0.26834280E+04</pdfrwt>
<totfact> 0.21666309E+00</totfact>
</mgrwt>
</event>
<event>
 4    1  0.1308745E-008  0.2062552E+04  0.7816531E-02  0.8577921E-01
          2   -1    0    0  501    0  0.00000000000E+00  0.00000000000E+00  0.16968863772E+04  0.16968863772E+04  0.00000000000E+00 0.  1.
         -2   -1    0    0    0  501 -0.00000000000E+00 -0.00000000000E+00 -0.62675398633E+03  0.62675398633E+03  0.00000000000E+00 0. -1.
    2000013    1    1    2    0    0  0.28577893521E+03 -0.27995301041E+03  0.57045985805E+03  0.11781204257E+04  0.95000000000E+03 0.  0.
   -2000013    1    1    2    0    0 -0.28577893521E+03  0.27995301041E+03  0.49967253281E+03  0.11455199378E+04  0.95000000000E+03 0.  0.
<mgrwt>
<rscale>  0 0.20625521E+04</rscale>
<asrwt>0</asrwt>
<pdfrwt beam="1">  1        2 0.26105944E+00 0.20625521E+04</pdfrwt>
<pdfrwt beam="2">  1       -2 0.96423691E-01 0.20625521E+04</pdfrwt>
<totfact> 0.81922141E+00</totfact>
</mgrwt>
</event>
<event>
 4    1  0.1308745E-008  0.2474465E+04  0.7816531E-02  0.8412139E-01
         -2   -1    0    0    0  501 -0.00000000000E+00  0.00000000000E+00  0.52954089229E+03  0.52954089229E+03  0.00000000000E+00 0. -1.
          2   -1    0    0  501    0  0.00000000000E+00 -0.00000000000E+00 -0.28907000550E+04  0.28907000550E+04  0.00000000000E+00 0.  1.
    2000013    1    1    2    0    0 -0.41301392982E+02  0.67459213807E+03 -0.17529290950E+04  0.21052412617E+04  0.95000000000E+03 0.  0.
   -2000013    1    1    2    0    0  0.41301392982E+02 -0.67459213807E+03 -0.60823006767E+03  0.13149996856E+04  0.95000000000E+03 0.  0.
<mgrwt>
<rscale>  0 0.24744647E+04</rscale>
<asrwt>0</asrwt>
<pdfrwt beam="2">  1        2 0.44472309E+00 0.24744647E+04</pdfrwt>
<pdfrwt beam="1">  1       -2 0.81467829E-01 0.24744647E+04</pdfrwt>
<totfact> 0.24141583E+00</totfact>
</mgrwt>
</event>
<event>
 4    1  0.1308745E-008  0.2917227E+04  0.7816531E-02  0.8267770E-01
          2   -1    0    0  501    0  0.00000000000E+00  0.00000000000E+00  0.17908091512E+04  0.17908091512E+04  0.00000000000E+00 0.  1.
         -2   -1    0    0    0  501 -0.00000000000E+00 -0.00000000000E+00 -0.11880399281E+04  0.11880399281E+04  0.00000000000E+00 0. -1.
    2000013    1    1    2    0    0 -0.24392986541E+03 -0.65827857641E+03  0.11751588176E+04  0.16662324897E+04  0.95000000000E+03 0.  0.
   -2000013    1    1    2    0    0  0.24392986541E+03  0.65827857641E+03 -0.57238959437E+03  0.13126165895E+04  0.95000000000E+03 0.  0.
<mgrwt>
<rscale>  0 0.29172266E+04</rscale>
<asrwt>0</asrwt>
<pdfrwt beam="1">  1        2 0.27550910E+00 0.29172266E+04</pdfrwt>
<pdfrwt beam="2">  1       -2 0.18277537E+00 0.29172266E+04</pdfrwt>
<totfact> 0.13058500E+00</totfact>
</mgrwt>
</event>
<event>
 4    1  0.1308745E-008  0.2238817E+04  0.7816531E-02  0.8502443E-01
          2   -1    0    0  501    0  0.00000000000E+00  0.00000000000E+00  0.10409199812E+04  0.10409199812E+04  0.00000000000E+00 0.  1.
         -2   -1    0    0    0  501 -0.00000000000E+00 -0.00000000000E+00 -0.12038155337E+04  0.12038155337E+04  0.00000000000E+00 0. -1.
    2000013    1    1    2    0    0 -0.27865235978E+03 -0.32970533961E+03 -0.48776327501E+03  0.11518531855E+04  0.95000000000E+03 0.  0.
   -2000013    1    1    2    0    0  0.27865235978E+03  0.32970533961E+03  0.32486772256E+03  0.10928823293E+04  0.95000000000E+03 0.  0.
<mgrwt>
<rscale>  0 0.22388172E+04</rscale>
<asrwt>0</asrwt>
<pdfrwt beam="1">  1        2 0.16014154E+00 0.22388172E+04</pdfrwt>
<pdfrwt beam="2">  1       -2 0.18520239E+00 0.22388172E+04</pdfrwt>
<totfact> 0.36090107E+00</totfact>
</mgrwt>
</event>
<event>
 4    1  0.1308745E-008  0.2768803E+04  0.7816531E-02  0.8313020E-01
          2   -1    0    0  501    0  0.00000000000E+00  0.00000000000E+00  0.14503582072E+04  0.14503582072E+04  0.00000000000E+00 0.  1.
         -2   -1    0    0    0  501 -0.00000000000E+00 -0.00000000000E+00 -0.13214446497E+04  0.13214446497E+04  0.00000000000E+00 0. -1.
    2000013    1    1    2    0    0  0.16912992114E+03 -0.78357518906E+03  0.67460295276E+03  0.14142786681E+04  0.95000000000E+03 0.  0.
   -2000013    1    1    2    0    0 -0.16912992114E+03  0.78357518906E+03 -0.54568939523E+03  0.13575241888E+04  0.95000000000E+03 0.  0.
<mgrwt>
<rscale>  0 0.27688034E+04</rscale>
<asrwt>0</asrwt>
<pdfrwt beam="1">  1        2 0.22313203E+00 0.27688034E+04</pdfrwt>
<pdfrwt beam="2">  1       -2 0.20329918E+00 0.27688034E+04</pdfrwt>
<totfact> 0.14953155E+00</totfact>
</mgrwt>
</event>
<event>
 4    1  0.1308745E-008  0.2256354E+04  0.7816531E-02  0.8495332E-01
         -2   -1    0    0    0  501 -0.00000000000E+00  0.00000000000E+00  0.48219057826E+03  0.48219057826E+03  0.00000000000E+00 0. -1.
          2   -1    0    0  501    0  0.00000000000E+00 -0.00000000000E+00 -0.26395845486E+04  0.26395845486E+04  0.00000000000E+00 0.  1.
    2000013    1    1    2    0    0  0.29515331291E+03 -0.52046224939E+03 -0.92533905334E+03  0.14549050810E+04  0.95000000000E+03 0.  0.
   -2000013    1    1    2    0    0 -0.29515331291E+03  0.52046224939E+03 -0.12320549170E+04  0.16668700458E+04  0.95000000000E+03 0.  0.
<mgrwt>
<rscale>  0 0.22563535E+04</rscale>
<asrwt>0</asrwt>
<pdfrwt beam="2">  1        2 0.40608994E+00 0.22563535E+04</pdfrwt>
<pdfrwt beam="1">  1       -2 0.74183165E-01 0.22563535E+04</pdfrwt>
<totfact> 0.42939154E+00</totfact>
</mgrwt>
</event>
<event>
 4    1  0.1308745E-008  0.2554334E+04  0.7816531E-02  0.8383880E-01
          2   -1    0    0  501    0  0.00000000000E+00  0.00000000000E+00  0.31617669672E+04  0.31617669672E+04  0.00000000000E+00 0.  1.
         -2   -1    0    0    0  501 -0.00000000000E+00 -0.00000000000E+00 -0.51589994782E+03  0.51589994782E+03  0.00000000000E+00 0. -1.
    2000013    1    1    2    0    0 -0.79111738372E+03  0.22895426464E+03  0.16460617032E+04  0.20713053615E+04  0.95000000000E+03 0.  0.
   -2000013    1    1    2    0    0  0.79111738372E+03 -0.22895426464E+03  0.99980531619E+03  0.16063615534E+04  0.95000000000E+03 0.  0.
<mgrwt>
<rscale>  0 0.25543339E+04</rscale>
<asrwt>0</asrwt>
<pdfrwt beam="1">  1        2 0.48642567E+00 0.25543339E+04</pdfrwt>
<pdfrwt beam="2">  1       -2 0.79369225E-01 0.25543339E+04</pdfrwt>
<totfact> 0.17160644E+00</totfact>
</mgrwt>
</event>
<event>
 4    1  0.1308745E-008  0.2435843E+04  0.7816531E-02  0.8426205E-01
          2   -1    0    0  501    0  0.00000000000E+00  0.00000000000E+00  0.21621812990E+04  0.21621812990E+04  0.00000000000E+00 0.  1.
         -2   -1    0    0    0  501 -0.00000000000E+00 -0.00000000000E+00 -0.68603536364E+03  0.68603536364E+03  0.00000000000E+00 0. -1.
    2000013    1    1    2    0    0 -0.59880801884E+03 -0.11073871259E+03  0.20223676307E+03  0.11464003726E+04  0.95000000000E+03 0.  0.
   -2000013    1    1    2    0    0  0.59880801884E+03  0.11073871259E+03  0.12739091723E+04  0.17018162901E+04  0.95000000000E+03 0.  0.
<mgrwt>
<rscale>  0 0.24358430E+04</rscale>
<asrwt>0</asrwt>
<pdfrwt beam="1">  1        2 0.33264327E+00 0.24358430E+04</pdfrwt>
<pdfrwt beam="2">  1       -2 0.10554390E+00 0.24358430E+04</pdfrwt>
<totfact> 0.35295693E+00</totfact>
</mgrwt>
</event>
<event>
 4    1  0.1308745E-008  0.3078212E+04  0.7816531E-02  0.8221743E-01
          2   -1    0    0  501    0  0.00000000000E+00  0.00000000000E+00  0.24103067207E+04  0.24103067207E+04  0.00000000000E+00 0.  1.
         -2   -1    0    0    0  501 -0.00000000000E+00 -0.00000000000E+00 -0.98279931553E+03  0.98279931553E+03  0.00000000000E+00 0. -1.
    2000013    1    1    2    0    0 -0.73251570945E+03 -0.87336359788E+03  0.26328666444E+03  0.15070378583E+04  0.95000000000E+03 0.  0.
   -2000013    1    1    2    0    0  0.73251570945E+03  0.87336359788E+03  0.11642207408E+04  0.18860681780E+04  0.95000000000E+03 0.  0.
<mgrwt>
<rscale>  0 0.30782123E+04</rscale>
<asrwt>0</asrwt>
<pdfrwt beam="1">  1        2 0.37081642E+00 0.30782123E+04</pdfrwt>
<pdfrwt beam="2">  1       -2 0.15119990E+00 0.30782123E+04</pdfrwt>
<totfact> 0.97832619E-01</totfact>
</mgrwt>
</event>
<event>
 4    1  0.1308745E-008  0.2851492E+04  0.7816531E-02  0.8287458E-01
         -2   -1    0    0    0  501 -0.00000000000E+00  0.00000000000E+00  0.58499410207E+03  0.58499410207E+03  0.00000000000E+00 0. -1.
          2   -1    0    0  501    0  0.00000000000E+00 -0.00000000000E+00 -0.34748236567E+04  0.34748236567E+04  0.00000000000E+00 0.  1.
    2000013    1    1    2    0    0  0.37475953673E+03 -0.27344592340E+03 -0.82990312488E+02  0.10604738447E+04  0.95000000000E+03 0.  0.
   -2000013    1    1    2    0    0 -0.37475953673E+03  0.27344592340E+03 -0.28068392421E+04  0.29993439140E+04  0.95000000000E+03 0.  0.
<mgrwt>
<rscale>  0 0.28514918E+04</rscale>
<asrwt>0</asrwt>
<pdfrwt beam="2">  1        2 0.53458825E+00 0.28514918E+04</pdfrwt>
<pdfrwt beam="1">  1       -2 0.89999093E-01 0.28514918E+04</pdfrwt>
<totfact> 0.77495985E-01</totfact>
</mgrwt>
</event>
<event>
 4    1  0.1308745E-008  0.3128019E+04  0.7816531E-02  0.8208090E-01
         -2   -1    0    0    0  501 -0.00000000000E+00  0.00000000000E+00  0.14397222095E+04  0.14397222095E+04  0.00000000000E+00 0. -1.
          2   -1    0    0  501    0  0.00000000000E+00 -0.00000000000E+00 -0.16990264517E+04  0.16990264517E+04  0.00000000000E+00 0.  1.
    2000013    1    1    2    0    0 -0.91328426615E+03 -0.61453124298E+03  0.44842230897E+03  0.15216173522E+04  0.95000000000E+03 0.  0.
   -2000013    1    1    2    0    0  0.91328426615E+03  0.61453124298E+03 -0.70772655115E+03  0.16171313090E+04  0.95000000000E+03 0.  0.
<mgrwt>
<rscale>  0 0.31280193E+04</rscale>
<asrwt>0</asrwt>
<pdfrwt beam="2">  1        2 0.26138869E+00 0.31280193E+04</pdfrwt>
<pdfrwt beam="1">  1       -2 0.22149572E+00 0.31280193E+04</pdfrwt>
<totfact> 0.80438971E-01</totfact>
</mgrwt>
</event>
<event>
 4    1  0.1308745E-008  0.2234852E+04  0.7816531E-02  0.8504060E-01
          2   -1    0    0  501    0  0.00000000000E+00  0.00000000000E+00  0.13999802497E+04  0.13999802497E+04  0.00000000000E+00 0.  1.
         -2   -1    0    0    0  501 -0.00000000000E+00 -0.00000000000E+00 -0.89189897365E+03  0.89189897365E+03  0.00000000000E+00 0. -1.
    2000013    1    1    2    0    0 -0.33142238298E+03  0.20401076289E+03 -0.19844348712E+03  0.10456294778E+04  0.95000000000E+03 0.  0.
   -2000013    1    1    2    0    0  0.33142238298E+03 -0.20401076289E+03  0.70652476320E+03  0.12462497456E+04  0.95000000000E+03 0.  0.
<mgrwt>
<rscale>  0 0.22348521E+04</rscale>
<asrwt>0</asrwt>
<pdfrwt beam="1">  1        2 0.21538158E+00 0.22348521E+04</pdfrwt>
<pdfrwt beam="2">  1       -2 0.13721523E+00 0.22348521E+04</pdfrwt>
<totfact> 0.49913912E+00</totfact>
</mgrwt>
</event>
<event>
 4    1  0.1308745E-008  0.2261728E+04  0.7816531E-02  0.8493166E-01
         -2   -1    0    0    0  501 -0.00000000000E+00  0.00000000000E+00  0.50859008944E+03  0.50859008944E+03  0.00000000000E+00 0. -1.
          2   -1    0    0  501    0  0.00000000000E+00 -0.00000000000E+00 -0.25145063127E+04  0.25145063127E+04  0.00000000000E+00 0.  1.
    2000013    1    1    2    0    0  0.10752833894E+03 -0.50604586168E+03 -0.56225825757E+03  0.12191304713E+04  0.95000000000E+03 0.  0.
   -2000013    1    1    2    0    0 -0.10752833894E+03  0.50604586168E+03 -0.14436579657E+04  0.18039659308E+04  0.95000000000E+03 0.  0.
<mgrwt>
<rscale>  0 0.22617276E+04</rscale>
<asrwt>0</asrwt>
<pdfrwt beam="2">  1        2 0.38684713E+00 0.22617276E+04</pdfrwt>
<pdfrwt beam="1">  1       -2 0.78244629E-01 0.22617276E+04</pdfrwt>
<totfact> 0.45115370E+00</totfact>
</mgrwt>
</event>
<event>
 4    1  0.1308745E-008  0.2326546E+04  0.7816531E-02  0.8467528E-01
         -1   -1    0    0    0  501 -0.00000000000E+00  0.00000000000E+00  0.57036238270E+03  0.57036238270E+03  0.00000000000E+00 0. -1.
          1   -1    0    0  501    0  0.00000000000E+00 -0.00000000000E+00 -0.23725329116E+04  0.23725329116E+04  0.00000000000E+00 0.  1.
    2000013    1    1    2    0    0 -0.13584255377E+03 -0.65320798502E+03 -0.99548642600E+03  0.15292570403E+04  0.95000000000E+03 0.  0.
   -2000013    1    1    2    0    0  0.13584255377E+03  0.65320798502E+03 -0.80668410287E+03  0.14136382539E+04  0.95000000000E+03 0.  0.
<mgrwt>
<rscale>  0 0.23265455E+04</rscale>
<asrwt>0</asrwt>
<pdfrwt beam="2">  1        1 0.36500506E+00 0.23265455E+04</pdfrwt>
<pdfrwt beam="1">  1       -1 0.87748059E-01 0.23265455E+04</pdfrwt>
<totfact> 0.19110510E+00</totfact>
</mgrwt>
</event>
<event>
 4    1  0.1308745E-008  0.3292581E+04  0.7816531E-02  0.8164786E-01
         -2   -1    0    0    0  501 -0.00000000000E+00  0.00000000000E+00  0.15029537611E+04  0.15029537611E+04  0.00000000000E+00 0. -1.
          2   -1    0    0  501    0  0.00000000000E+00 -0.00000000000E+00 -0.18032970930E+04  0.18032970930E+04  0.00000000000E+00 0.  1.
    2000013    1    1    2    0    0 -0.11947799674E+04 -0.54286306229E+03  0.14357091389E+03  0.16264415397E+04  0.95000000000E+03 0.  0.
   -2000013    1    1    2    0    0  0.11947799674E+04  0.54286306229E+03 -0.44391424576E+03  0.16798093143E+04  0.95000000000E+03 0.  0.
<mgrwt>
<rscale>  0 0.32925808E+04</rscale>
<asrwt>0</asrwt>
<pdfrwt beam="2">  1        2 0.27743032E+00 0.32925808E+04</pdfrwt>
<pdfrwt beam="1">  1       -2 0.23122366E+00 0.32925808E+04</pdfrwt>
<totfact> 0.60326617E-01</totfact>
</mgrwt>
</event>
<event>
 4    1  0.1308745E-008  0.2104229E+04  0.7816531E-02  0.8559383E-01
          2   -1    0    0  501    0  0.00000000000E+00  0.00000000000E+00  0.26618698290E+04  0.26618698290E+04  0.00000000000E+00 0.  1.
         -2   -1    0    0    0  501 -0.00000000000E+00 -0.00000000000E+00 -0.41585227726E+03  0.41585227726E+03  0.00000000000E+00 0. -1.
    2000013    1    1    2    0    0 -0.39482016983E+03 -0.19262387413E+03  0.96644715430E+03  0.14246076742E+04  0.95000000000E+03 0.  0.
   -2000013    1    1    2    0    0  0.39482016983E+03  0.19262387413E+03  0.12795703974E+04  0.16531144320E+04  0.95000000000E+03 0.  0.
<mgrwt>
<rscale>  0 0.21042287E+04</rscale>
<asrwt>0</asrwt>
<pdfrwt beam="1">  1        2 0.40951842E+00 0.21042287E+04</pdfrwt>
<pdfrwt beam="2">  1       -2 0.63977275E-01 0.21042287E+04</pdfrwt>
<totfact> 0.58257358E+00</totfact>
</mgrwt>
</event>
<event>
 4    1  0.1308745E-008  0.2157614E+04  0.7816531E-02  0.8536280E-01
         -2   -1    0    0    0  501 -0.00000000000E+00  0.00000000000E+00  0.33242006997E+03  0.33242006997E+03  0.00000000000E+00 0. -1.
          2   -1    0    0  501    0  0.00000000000E+00 -0.00000000000E+00 -0.35010642319E+04  0.35010642319E+04  0.00000000000E+00 0.  1.
    2000013    1    1    2    0    0 -0.38317189849E+03 -0.23766712534E+03 -0.20122790524E+04  0.22704786612E+04  0.95000000000E+03 0.  0.
   -2000013    1    1    2    0    0  0.38317189849E+03  0.23766712534E+03 -0.11563651096E+04  0.15630056407E+04  0.95000000000E+03 0.  0.
<mgrwt>
<rscale>  0 0.21576135E+04</rscale>
<asrwt>0</asrwt>
<pdfrwt beam="2">  1        2 0.53862527E+00 0.21576135E+04</pdfrwt>
<pdfrwt beam="1">  1       -2 0.51141549E-01 0.21576135E+04</pdfrwt>
<totfact> 0.27003944E+00</totfact>
</mgrwt>
</event>
<event>
 4    1  0.1308745E-008  0.2690866E+04  0.7816531E-02  0.8337975E-01
          4   -1    0    0  501    0  0.00000000000E+00  0.00000000000E+00  0.14554452209E+04  0.14554452209E+04  0.00000000000E+00 0.  1.
         -4   -1    0    0    0  501 -0.00000000000E+00 -0.00000000000E+00 -0.12437358977E+04  0.12437358977E+04  0.00000000000E+00 0. -1.
    2000013    1    1    2    0    0 -0.50367052289E+03 -0.39535548238E+03  0.81351299220E+03  0.14050954920E+04  0.95000000000E+03 0.  0.
   -2000013    1    1    2    0    0  0.50367052289E+03  0.39535548238E+03 -0.60180366894E+03  0.12940856266E+04  0.95000000000E+03 0.  0.
<mgrwt>
<rscale>  0 0.26908656E+04</rscale>
<asrwt>0</asrwt>
<pdfrwt beam="1">  1        4 0.22391465E+00 0.26908656E+04</pdfrwt>
<pdfrwt beam="2">  1       -4 0.19134399E+00 0.26908656E+04</pdfrwt>
<totfact> 0.24204698E-02</totfact>
</mgrwt>
</event>
<event>
 4    1  0.1308745E-008  0.2361533E+04  0.7816531E-02  0.8454047E-01
          2   -1    0    0  501    0  0.00000000000E+00  0.00000000000E+00  0.27624152090E+04  0.27624152090E+04  0.00000000000E+00 0.  1.
         -2   -1    0    0    0  501 -0.00000000000E+00 -0.00000000000E+00 -0.50470675603E+03  0.50470675603E+03  0.00000000000E+00 0. -1.
    2000013    1    1    2    0    0 -0.84096898619E+02 -0.30451473456E+03  0.19949450520E+04  0.22320634562E+04  0.95000000000E+03 0.  0.
   -2000013    1    1    2    0    0  0.84096898619E+02  0.30451473456E+03  0.26276340101E+03  0.10350585089E+04  0.95000000000E+03 0.  0.
<mgrwt>
<rscale>  0 0.23615331E+04</rscale>
<asrwt>0</asrwt>
<pdfrwt beam="1">  1        2 0.42498695E+00 0.23615331E+04</pdfrwt>
<pdfrwt beam="2">  1       -2 0.77647195E-01 0.23615331E+04</pdfrwt>
<totfact> 0.32490781E+00</totfact>
</mgrwt>
</event>
<event>
 4    1  0.1308745E-008  0.2273279E+04  0.7816531E-02  0.8488532E-01
          2   -1    0    0  501    0  0.00000000000E+00  0.00000000000E+00  0.22474165461E+04  0.22474165461E+04  0.00000000000E+00 0.  1.
         -2   -1    0    0    0  501 -0.00000000000E+00 -0.00000000000E+00 -0.57485990182E+03  0.57485990182E+03  0.00000000000E+00 0. -1.
    2000013    1    1    2    0    0  0.19267369541E+03  0.56010476556E+03  0.59233333284E+03  0.12665698869E+04  0.95000000000E+03 0.  0.
   -2000013    1    1    2    0    0 -0.19267369541E+03 -0.56010476556E+03  0.10802233115E+04  0.15557065610E+04  0.95000000000E+03 0.  0.
<mgrwt>
<rscale>  0 0.22732793E+04</rscale>
<asrwt>0</asrwt>
<pdfrwt beam="1">  1        2 0.34575639E+00 0.22732793E+04</pdfrwt>
<pdfrwt beam="2">  1       -2 0.88439986E-01 0.22732793E+04</pdfrwt>
<totfact> 0.48533324E+00</totfact>
</mgrwt>
</event>
<event>
 4    1  0.1308745E-008  0.2164275E+04  0.7816531E-02  0.8533447E-01
         -2   -1    0    0    0  501 -0.00000000000E+00  0.00000000000E+00  0.62320593472E+03  0.62320593472E+03  0.00000000000E+00 0. -1.
          2   -1    0    0  501    0  0.00000000000E+00 -0.00000000000E+00 -0.18790280677E+04  0.18790280677E+04  0.00000000000E+00 0.  1.
    2000013    1    1    2    0    0  0.14124272279E+03  0.48178124849E+03 -0.77623598751E+03  0.13255583678E+04  0.95000000000E+03 0.  0.
   -2000013    1    1    2    0    0 -0.14124272279E+03 -0.48178124849E+03 -0.47958614544E+03  0.11766756346E+04  0.95000000000E+03 0.  0.
<mgrwt>
<rscale>  0 0.21642749E+04</rscale>
<asrwt>0</asrwt>
<pdfrwt beam="2">  1        2 0.28908124E+00 0.21642749E+04</pdfrwt>
<pdfrwt beam="1">  1       -2 0.95877837E-01 0.21642749E+04</pdfrwt>
<totfact> 0.65218231E+00</totfact>
</mgrwt>
</event>
<event>
 4    1  0.1308745E-008  0.2199847E+04  0.7816531E-02  0.8518492E-01
         -2   -1    0    0    0  501 -0.00000000000E+00  0.00000000000E+00  0.66370195066E+03  0.66370195066E+03  0.00000000000E+00 0. -1.
          2   -1    0    0  501    0  0.00000000000E+00 -0.00000000000E+00 -0.18228544798E+04  0.18228544798E+04  0.00000000000E+00 0.  1.
    2000013    1    1    2    0    0 -0.49735790374E+03 -0.72604000721E+02 -0.84392848321E+03  0.13665107062E+04  0.95000000000E+03 0.  0.
   -2000013    1    1    2    0    0  0.49735790374E+03  0.72604000721E+02 -0.31522404592E+03  0.11200457243E+04  0.95000000000E+03 0.  0.
<mgrwt>
<rscale>  0 0.21998473E+04</rscale>
<asrwt>0</asrwt>
<pdfrwt beam="2">  1        2 0.28043914E+00 0.21998473E+04</pdfrwt>
<pdfrwt beam="1">  1       -2 0.10210800E+00 0.21998473E+04</pdfrwt>
<totfact> 0.60205018E+00</totfact>
</mgrwt>
</event>
<event>
 4    1  0.1308745E-008  0.3279810E+04  0.7816531E-02  0.8168052E-01
          4   -1    0    0  501    0  0.00000000000E+00  0.00000000000E+00  0.18000491749E+04  0.18000491749E+04  0.00000000000E+00 0. -1.
         -4   -1    0    0    0  501 -0.00000000000E+00 -0.00000000000E+00 -0.14940083178E+04  0.14940083178E+04  0.00000000000E+00 0.  1.
    2000013    1    1    2    0    0 -0.11795385808E+04 -0.62853567260E+03  0.13243543623E+03  0.16451162573E+04  0.95000000000E+03 0.  0.
   -2000013    1    1    2    0    0  0.11795385808E+04  0.62853567260E+03  0.17360542090E+03  0.16489412353E+04  0.95000000000E+03 0.  0.
<mgrwt>
<rscale>  0 0.32798100E+04</rscale>
<asrwt>0</asrwt>
<pdfrwt beam="1">  1        4 0.27693064E+00 0.32798100E+04</pdfrwt>
<pdfrwt beam="2">  1       -4 0.22984743E+00 0.32798100E+04</pdfrwt>
<totfact> 0.60060346E-03</totfact>
</mgrwt>
</event>
<event>
 4    1  0.1308745E-008  0.2348757E+04  0.7816531E-02  0.8458941E-01
          2   -1    0    0  501    0  0.00000000000E+00  0.00000000000E+00  0.17097897961E+04  0.17097897961E+04  0.00000000000E+00 0.  1.
         -2   -1    0    0    0  501 -0.00000000000E+00 -0.00000000000E+00 -0.80662862849E+03  0.80662862849E+03  0.00000000000E+00 0. -1.
    2000013    1    1    2    0    0 -0.44092188485E+03  0.45720470118E+03  0.74148250742E+03  0.13622571549E+04  0.95000000000E+03 0.  0.
   -2000013    1    1    2    0    0  0.44092188485E+03 -0.45720470118E+03  0.16167866022E+03  0.11541612697E+04  0.95000000000E+03 0.  0.
<mgrwt>
<rscale>  0 0.23487575E+04</rscale>
<asrwt>0</asrwt>
<pdfrwt beam="1">  1        2 0.26304458E+00 0.23487575E+04</pdfrwt>
<pdfrwt beam="2">  1       -2 0.12409671E+00 0.23487575E+04</pdfrwt>
<totfact> 0.42707651E+00</totfact>
</mgrwt>
</event>
<event>
 4    1  0.1308745E-008  0.2957433E+04  0.7816531E-02  0.8255992E-01
          2   -1    0    0  501    0  0.00000000000E+00  0.00000000000E+00  0.20851432948E+04  0.20851432948E+04  0.00000000000E+00 0.  1.
         -2   -1    0    0    0  501 -0.00000000000E+00 -0.00000000000E+00 -0.10486584158E+04  0.10486584158E+04  0.00000000000E+00 0. -1.
    2000013    1    1    2    0    0  0.19448722786E+03 -0.92392531354E+03  0.11822204549E+04  0.17865073386E+04  0.95000000000E+03 0.  0.
   -2000013    1    1    2    0    0 -0.19448722786E+03  0.92392531354E+03 -0.14573557584E+03  0.13472943720E+04  0.95000000000E+03 0.  0.
<mgrwt>
<rscale>  0 0.29574334E+04</rscale>
<asrwt>0</asrwt>
<pdfrwt beam="1">  1        2 0.32079128E+00 0.29574334E+04</pdfrwt>
<pdfrwt beam="2">  1       -2 0.16133206E+00 0.29574334E+04</pdfrwt>
<totfact> 0.12670050E+00</totfact>
</mgrwt>
</event>
<event>
 4    1  0.1308745E-008  0.2307194E+04  0.7816531E-02  0.8475090E-01
          2   -1    0    0  501    0  0.00000000000E+00  0.00000000000E+00  0.20676119831E+04  0.20676119831E+04  0.00000000000E+00 0.  1.
         -2   -1    0    0    0  501 -0.00000000000E+00 -0.00000000000E+00 -0.64363424731E+03  0.64363424731E+03  0.00000000000E+00 0. -1.
    2000013    1    1    2    0    0  0.73292763038E+02  0.54577742863E+03  0.29645044993E+03  0.11373775538E+04  0.95000000000E+03 0.  0.
   -2000013    1    1    2    0    0 -0.73292763038E+02 -0.54577742863E+03  0.11275272859E+04  0.15738686766E+04  0.95000000000E+03 0.  0.
<mgrwt>
<rscale>  0 0.23071939E+04</rscale>
<asrwt>0</asrwt>
<pdfrwt beam="1">  1        2 0.31809415E+00 0.23071939E+04</pdfrwt>
<pdfrwt beam="2">  1       -2 0.99020654E-01 0.23071939E+04</pdfrwt>
<totfact> 0.46924174E+00</totfact>
</mgrwt>
</event>
<event>
 4    1  0.1308745E-008  0.3869151E+04  0.7816531E-02  0.8031476E-01
          2   -1    0    0  501    0  0.00000000000E+00  0.00000000000E+00  0.23868284169E+04  0.23868284169E+04  0.00000000000E+00 0.  1.
         -2   -1    0    0    0  501 -0.00000000000E+00 -0.00000000000E+00 -0.15680152240E+04  0.15680152240E+04  0.00000000000E+00 0. -1.
    2000013    1    1    2    0    0 -0.15919508111E+04  0.54708018734E+03  0.49168266983E+03  0.19944563079E+04  0.95000000000E+03 0.  0.
   -2000013    1    1    2    0    0  0.15919508111E+04 -0.54708018734E+03  0.32713052305E+03  0.19603873330E+04  0.95000000000E+03 0.  0.
<mgrwt>
<rscale>  0 0.38691515E+04</rscale>
<asrwt>0</asrwt>
<pdfrwt beam="1">  1        2 0.36720437E+00 0.38691515E+04</pdfrwt>
<pdfrwt beam="2">  1       -2 0.24123311E+00 0.38691515E+04</pdfrwt>
<totfact> 0.23475163E-01</totfact>
</mgrwt>
</event>
<event>
 4    1  0.1308745E-008  0.3593929E+04  0.7816531E-02  0.8091884E-01
         -2   -1    0    0    0  501 -0.00000000000E+00  0.00000000000E+00  0.12149058906E+04  0.12149058906E+04  0.00000000000E+00 0. -1.
          2   -1    0    0  501    0  0.00000000000E+00 -0.00000000000E+00 -0.26578866329E+04  0.26578866329E+04  0.00000000000E+00 0.  1.
    2000013    1    1    2    0    0  0.65422080322E+03 -0.96015645909E+03  0.34346187830E+03  0.15396010351E+04  0.95000000000E+03 0.  0.
   -2000013    1    1    2    0    0 -0.65422080322E+03  0.96015645909E+03 -0.17864426206E+04  0.23331914885E+04  0.95000000000E+03 0.  0.
<mgrwt>
<rscale>  0 0.35939294E+04</rscale>
<asrwt>0</asrwt>
<pdfrwt beam="2">  1        2 0.40890564E+00 0.35939294E+04</pdfrwt>
<pdfrwt beam="1">  1       -2 0.18690860E+00 0.35939294E+04</pdfrwt>
<totfact> 0.37295187E-01</totfact>
</mgrwt>
</event>
<event>
 4    1  0.1308745E-008  0.2368137E+04  0.7816531E-02  0.8451530E-01
         -2   -1    0    0    0  501 -0.00000000000E+00  0.00000000000E+00  0.10154080461E+04  0.10154080461E+04  0.00000000000E+00 0. -1.
          2   -1    0    0  501    0  0.00000000000E+00 -0.00000000000E+00 -0.13807431472E+04  0.13807431472E+04  0.00000000000E+00 0.  1.
    2000013    1    1    2    0    0  0.27523342102E+03 -0.60563397173E+03  0.58843653026E+02  0.11612529954E+04  0.95000000000E+03 0.  0.
   -2000013    1    1    2    0    0 -0.27523342102E+03  0.60563397173E+03 -0.42417875410E+03  0.12348981979E+04  0.95000000000E+03 0.  0.
<mgrwt>
<rscale>  0 0.23681366E+04</rscale>
<asrwt>0</asrwt>
<pdfrwt beam="2">  1        2 0.21242202E+00 0.23681366E+04</pdfrwt>
<pdfrwt beam="1">  1       -2 0.15621662E+00 0.23681366E+04</pdfrwt>
<totfact> 0.35977302E+00</totfact>
</mgrwt>
</event>
<event>
 4    1  0.1308745E-008  0.2429583E+04  0.7816531E-02  0.8428510E-01
         -2   -1    0    0    0  501 -0.00000000000E+00  0.00000000000E+00  0.15421227149E+04  0.15421227149E+04  0.00000000000E+00 0. -1.
          2   -1    0    0  501    0  0.00000000000E+00 -0.00000000000E+00 -0.95693966798E+03  0.95693966798E+03  0.00000000000E+00 0.  1.
    2000013    1    1    2    0    0  0.51593157147E+03  0.53092123960E+03  0.12945052161E+03  0.12113299248E+04  0.95000000000E+03 0.  0.
   -2000013    1    1    2    0    0 -0.51593157147E+03 -0.53092123960E+03  0.45573252535E+03  0.12877324581E+04  0.95000000000E+03 0.  0.
<mgrwt>
<rscale>  0 0.24295830E+04</rscale>
<asrwt>0</asrwt>
<pdfrwt beam="2">  1        2 0.14722149E+00 0.24295830E+04</pdfrwt>
<pdfrwt beam="1">  1       -2 0.23724965E+00 0.24295830E+04</pdfrwt>
<totfact> 0.18564317E+00</totfact>
</mgrwt>
</event>
<event>
 4    1  0.1308745E-008  0.3130870E+04  0.7816531E-02  0.8207317E-01
          2   -1    0    0  501    0  0.00000000000E+00  0.00000000000E+00  0.12530008919E+04  0.12530008919E+04  0.00000000000E+00 0.  1.
         -2   -1    0    0    0  501 -0.00000000000E+00 -0.00000000000E+00 -0.19557743248E+04  0.19557743248E+04  0.00000000000E+00 0. -1.
    2000013    1    1    2    0    0 -0.10353183221E+04  0.15425124079E+03 -0.10407372193E+04  0.17553664668E+04  0.95000000000E+03 0.  0.
   -2000013    1    1    2    0    0  0.10353183221E+04 -0.15425124079E+03  0.33796378634E+03  0.14534087499E+04  0.95000000000E+03 0.  0.
<mgrwt>
<rscale>  0 0.31308701E+04</rscale>
<asrwt>0</asrwt>
<pdfrwt beam="1">  1        2 0.19276937E+00 0.31308701E+04</pdfrwt>
<pdfrwt beam="2">  1       -2 0.30088835E+00 0.31308701E+04</pdfrwt>
<totfact> 0.46820239E-01</totfact>
</mgrwt>
</event>
<event>
 4    1  0.1308745E-008  0.1945097E+04  0.7816531E-02  0.8632729E-01
          2   -1    0    0  501    0  0.00000000000E+00  0.00000000000E+00  0.16491524138E+04  0.16491524138E+04  0.00000000000E+00 0.  1.
         -2   -1    0    0    0  501 -0.00000000000E+00 -0.00000000000E+00 -0.57353749757E+03  0.57353749757E+03  0.00000000000E+00 0. -1.
    2000013    1    1    2    0    0  0.57080235763E+02  0.15182279630E+03  0.68698497845E+03  0.11835356671E+04  0.95000000000E+03 0.  0.
   -2000013    1    1    2    0    0 -0.57080235763E+02 -0.15182279630E+03  0.38862993780E+03  0.10391542443E+04  0.95000000000E+03 0.  0.
<mgrwt>
<rscale>  0 0.19450972E+04</rscale>
<asrwt>0</asrwt>
<pdfrwt beam="1">  1        2 0.25371575E+00 0.19450972E+04</pdfrwt>
<pdfrwt beam="2">  1       -2 0.88236539E-01 0.19450972E+04</pdfrwt>
<totfact> 0.10805346E+01</totfact>
</mgrwt>
</event>
<event>
 4    1  0.1308745E-008  0.2453586E+04  0.7816531E-02  0.8419710E-01
         -1   -1    0    0    0  501 -0.00000000000E+00  0.00000000000E+00  0.50225955098E+03  0.50225955098E+03  0.00000000000E+00 0. -1.
          1   -1    0    0  501    0  0.00000000000E+00 -0.00000000000E+00 -0.29965001497E+04  0.29965001497E+04  0.00000000000E+00 0.  1.
    2000013    1    1    2    0    0 -0.34917059613E+02 -0.69967990945E+03 -0.77043041264E+03  0.14095510624E+04  0.95000000000E+03 0.  0.
   -2000013    1    1    2    0    0  0.34917059613E+02  0.69967990945E+03 -0.17238101861E+04  0.20892086383E+04  0.95000000000E+03 0.  0.
<mgrwt>
<rscale>  0 0.24535858E+04</rscale>
<asrwt>0</asrwt>
<pdfrwt beam="2">  1        1 0.46100002E+00 0.24535858E+04</pdfrwt>
<pdfrwt beam="1">  1       -1 0.77270700E-01 0.24535858E+04</pdfrwt>
<totfact> 0.90066127E-01</totfact>
</mgrwt>
</event>
<event>
 4    1  0.1308745E-008  0.2152470E+04  0.7816531E-02  0.8538476E-01
         -1   -1    0    0    0  501 -0.00000000000E+00  0.00000000000E+00  0.54334493413E+03  0.54334493413E+03  0.00000000000E+00 0.  1.
          1   -1    0    0  501    0  0.00000000000E+00 -0.00000000000E+00 -0.21317607319E+04  0.21317607319E+04  0.00000000000E+00 0. -1.
    2000013    1    1    2    0    0  0.39790565581E+03 -0.28916069010E+03 -0.64800713165E+03  0.12507422030E+04  0.95000000000E+03 0.  0.
   -2000013    1    1    2    0    0 -0.39790565581E+03  0.28916069010E+03 -0.94040866617E+03  0.14243634631E+04  0.95000000000E+03 0.  0.
<mgrwt>
<rscale>  0 0.21524696E+04</rscale>
<asrwt>0</asrwt>
<pdfrwt beam="2">  1        1 0.32796318E+00 0.21524696E+04</pdfrwt>
<pdfrwt beam="1">  1       -1 0.83591531E-01 0.21524696E+04</pdfrwt>
<totfact> 0.31508065E+00</totfact>
</mgrwt>
</event>
<event>
 4    1  0.1308745E-008  0.2593238E+04  0.7816531E-02  0.8370502E-01
         -2   -1    0    0    0  501 -0.00000000000E+00  0.00000000000E+00  0.22301830184E+04  0.22301830184E+04  0.00000000000E+00 0.  1.
          2   -1    0    0  501    0  0.00000000000E+00 -0.00000000000E+00 -0.75384897946E+03  0.75384897946E+03  0.00000000000E+00 0. -1.
    2000013    1    1    2    0    0 -0.52189349668E+03  0.61778685798E+03  0.33184254829E+03  0.12909891172E+04  0.95000000000E+03 0.  0.
   -2000013    1    1    2    0    0  0.52189349668E+03 -0.61778685798E+03  0.11444914907E+04  0.16930428807E+04  0.95000000000E+03 0.  0.
<mgrwt>
<rscale>  0 0.25932383E+04</rscale>
<asrwt>0</asrwt>
<pdfrwt beam="2">  1        2 0.11597677E+00 0.25932383E+04</pdfrwt>
<pdfrwt beam="1">  1       -2 0.34310508E+00 0.25932383E+04</pdfrwt>
<totfact> 0.56698647E-01</totfact>
</mgrwt>
</event>
<event>
 4    1  0.1308745E-008  0.2804769E+04  0.7816531E-02  0.8301789E-01
          2   -1    0    0  501    0  0.00000000000E+00  0.00000000000E+00  0.31282683840E+04  0.31282683840E+04  0.00000000000E+00 0.  1.
         -2   -1    0    0    0  501 -0.00000000000E+00 -0.00000000000E+00 -0.62868059624E+03  0.62868059624E+03  0.00000000000E+00 0. -1.
    2000013    1    1    2    0    0  0.54525138249E+02  0.10275330194E+04  0.11515031955E+04  0.18130793435E+04  0.95000000000E+03 0.  0.
   -2000013    1    1    2    0    0 -0.54525138249E+02 -0.10275330194E+04  0.13480845923E+04  0.19438696367E+04  0.95000000000E+03 0.  0.
<mgrwt>
<rscale>  0 0.28047685E+04</rscale>
<asrwt>0</asrwt>
<pdfrwt beam="1">  1        2 0.48127205E+00 0.28047685E+04</pdfrwt>
<pdfrwt beam="2">  1       -2 0.96720094E-01 0.28047685E+04</pdfrwt>
<totfact> 0.11214019E+00</totfact>
</mgrwt>
</event>
<event>
 4    1  0.1308745E-008  0.3275736E+04  0.7816531E-02  0.8169097E-01
          2   -1    0    0  501    0  0.00000000000E+00  0.00000000000E+00  0.30387300741E+04  0.30387300741E+04  0.00000000000E+00 0.  1.
         -2   -1    0    0    0  501 -0.00000000000E+00 -0.00000000000E+00 -0.88280706368E+03  0.88280706368E+03  0.00000000000E+00 0. -1.
    2000013    1    1    2    0    0  0.12695676155E+04  0.13170364500E+03  0.15431028305E+04  0.22164868883E+04  0.95000000000E+03 0.  0.
   -2000013    1    1    2    0    0 -0.12695676155E+04 -0.13170364500E+03  0.61282018000E+03  0.17050502495E+04  0.95000000000E+03 0.  0.
<mgrwt>
<rscale>  0 0.32757365E+04</rscale>
<asrwt>0</asrwt>
<pdfrwt beam="1">  1        2 0.46749693E+00 0.32757365E+04</pdfrwt>
<pdfrwt beam="2">  1       -2 0.13581647E+00 0.32757365E+04</pdfrwt>
<totfact> 0.53471730E-01</totfact>
</mgrwt>
</event>
<event>
 4    1  0.1308745E-008  0.2277902E+04  0.7816531E-02  0.8486685E-01
          2   -1    0    0  501    0  0.00000000000E+00  0.00000000000E+00  0.66020322717E+03  0.66020322717E+03  0.00000000000E+00 0.  1.
         -2   -1    0    0    0  501 -0.00000000000E+00 -0.00000000000E+00 -0.19648633328E+04  0.19648633328E+04  0.00000000000E+00 0. -1.
    2000013    1    1    2    0    0  0.26747010738E+03  0.29776853632E+03 -0.12103880060E+04  0.15898885132E+04  0.95000000000E+03 0.  0.
   -2000013    1    1    2    0    0 -0.26747010738E+03 -0.29776853632E+03 -0.94272099629E+02  0.10351780467E+04  0.95000000000E+03 0.  0.
<mgrwt>
<rscale>  0 0.22779018E+04</rscale>
<asrwt>0</asrwt>
<pdfrwt beam="1">  1        2 0.10156973E+00 0.22779018E+04</pdfrwt>
<pdfrwt beam="2">  1       -2 0.30228666E+00 0.22779018E+04</pdfrwt>
<totfact> 0.12332463E+00</totfact>
</mgrwt>
</event>
<event>
 4    1  0.1308745E-008  0.3831795E+04  0.7816531E-02  0.8039366E-01
         -2   -1    0    0    0  501 -0.00000000000E+00  0.00000000000E+00  0.44996036725E+04  0.44996036725E+04  0.00000000000E+00 0. -1.
          2   -1    0    0  501    0  0.00000000000E+00 -0.00000000000E+00 -0.81577463628E+03  0.81577463628E+03  0.00000000000E+00 0.  1.
    2000013    1    1    2    0    0 -0.39145755450E+03  0.10655578052E+04  0.35292091322E+04  0.38270706229E+04  0.95000000000E+03 0.  0.
   -2000013    1    1    2    0    0  0.39145755450E+03 -0.10655578052E+04  0.15461990398E+03  0.14883076859E+04  0.95000000000E+03 0.  0.
<mgrwt>
<rscale>  0 0.38317946E+04</rscale>
<asrwt>0</asrwt>
<pdfrwt beam="2">  1        2 0.12550379E+00 0.38317946E+04</pdfrwt>
<pdfrwt beam="1">  1       -2 0.69224670E+00 0.38317946E+04</pdfrwt>
<totfact> 0.64879920E-03</totfact>
</mgrwt>
</event>
<event>
 4    1  0.1308745E-008  0.2438061E+04  0.7816531E-02  0.8425390E-01
         -2   -1    0    0    0  501 -0.00000000000E+00  0.00000000000E+00  0.80261448586E+03  0.80261448586E+03  0.00000000000E+00 0. -1.
          2   -1    0    0  501    0  0.00000000000E+00 -0.00000000000E+00 -0.18514926405E+04  0.18514926405E+04  0.00000000000E+00 0.  1.
    2000013    1    1    2    0    0  0.20305503999E+03  0.70632739281E+03 -0.75123969553E+03  0.14166830327E+04  0.95000000000E+03 0.  0.
   -2000013    1    1    2    0    0 -0.20305503999E+03 -0.70632739281E+03 -0.29763845908E+03  0.12374240936E+04  0.95000000000E+03 0.  0.
<mgrwt>
<rscale>  0 0.24380606E+04</rscale>
<asrwt>0</asrwt>
<pdfrwt beam="2">  1        2 0.28484502E+00 0.24380606E+04</pdfrwt>
<pdfrwt beam="1">  1       -2 0.12347915E+00 0.24380606E+04</pdfrwt>
<totfact> 0.35811381E+00</totfact>
</mgrwt>
</event>
<event>
 4    1  0.1308745E-008  0.3420004E+04  0.7816531E-02  0.8133014E-01
         -2   -1    0    0    0  501 -0.00000000000E+00  0.00000000000E+00  0.10795526872E+04  0.10795526872E+04  0.00000000000E+00 0. -1.
          2   -1    0    0  501    0  0.00000000000E+00 -0.00000000000E+00 -0.27086287336E+04  0.27086287336E+04  0.00000000000E+00 0.  1.
    2000013    1    1    2    0    0  0.16591319696E+03 -0.10506141901E+04 -0.18596669664E+04  0.23435397567E+04  0.95000000000E+03 0.  0.
   -2000013    1    1    2    0    0 -0.16591319696E+03  0.10506141901E+04  0.23059091991E+03  0.14446416641E+04  0.95000000000E+03 0.  0.
<mgrwt>
<rscale>  0 0.34200043E+04</rscale>
<asrwt>0</asrwt>
<pdfrwt beam="2">  1        2 0.41671211E+00 0.34200043E+04</pdfrwt>
<pdfrwt beam="1">  1       -2 0.16608503E+00 0.34200043E+04</pdfrwt>
<totfact> 0.49332627E-01</totfact>
</mgrwt>
</event>
<event>
 4    1  0.1308745E-008  0.2259665E+04  0.7816531E-02  0.8493997E-01
         -2   -1    0    0    0  501 -0.00000000000E+00  0.00000000000E+00  0.85878954127E+03  0.85878954127E+03  0.00000000000E+00 0. -1.
          2   -1    0    0  501    0  0.00000000000E+00 -0.00000000000E+00 -0.14864190349E+04  0.14864190349E+04  0.00000000000E+00 0.  1.
    2000013    1    1    2    0    0 -0.43056042772E+03  0.43033754382E+03 -0.25286826242E+03  0.11562936658E+04  0.95000000000E+03 0.  0.
   -2000013    1    1    2    0    0  0.43056042772E+03 -0.43033754382E+03 -0.37476123120E+03  0.11889149103E+04  0.95000000000E+03 0.  0.
<mgrwt>
<rscale>  0 0.22596647E+04</rscale>
<asrwt>0</asrwt>
<pdfrwt beam="2">  1        2 0.22867985E+00 0.22596647E+04</pdfrwt>
<pdfrwt beam="1">  1       -2 0.13212147E+00 0.22596647E+04</pdfrwt>
<totfact> 0.48993892E+00</totfact>
</mgrwt>
</event>
<event>
 4    1  0.1308745E-008  0.2061803E+04  0.7816531E-02  0.8578259E-01
         -2   -1    0    0    0  501 -0.00000000000E+00  0.00000000000E+00  0.43285793459E+03  0.43285793459E+03  0.00000000000E+00 0. -1.
          2   -1    0    0  501    0  0.00000000000E+00 -0.00000000000E+00 -0.24552109317E+04  0.24552109317E+04  0.00000000000E+00 0.  1.
    2000013    1    1    2    0    0 -0.97678119450E+02 -0.28839089226E+03 -0.64712387558E+03  0.11891087554E+04  0.95000000000E+03 0.  0.
   -2000013    1    1    2    0    0  0.97678119450E+02  0.28839089226E+03 -0.13752291215E+04  0.16989601109E+04  0.95000000000E+03 0.  0.
<mgrwt>
<rscale>  0 0.20618026E+04</rscale>
<asrwt>0</asrwt>
<pdfrwt beam="2">  1        2 0.37772475E+00 0.20618026E+04</pdfrwt>
<pdfrwt beam="1">  1       -2 0.66593530E-01 0.20618026E+04</pdfrwt>
<totfact> 0.70797499E+00</totfact>
</mgrwt>
</event>
<event>
 4    1  0.1308745E-008  0.2254657E+04  0.7816531E-02  0.8496017E-01
         -2   -1    0    0    0  501 -0.00000000000E+00  0.00000000000E+00  0.62202186588E+03  0.62202186588E+03  0.00000000000E+00 0. -1.
          2   -1    0    0  501    0  0.00000000000E+00 -0.00000000000E+00 -0.20431270326E+04  0.20431270326E+04  0.00000000000E+00 0.  1.
    2000013    1    1    2    0    0 -0.96135941089E+02  0.52491164168E+03 -0.10523210586E+04  0.15148115266E+04  0.95000000000E+03 0.  0.
   -2000013    1    1    2    0    0  0.96135941089E+02 -0.52491164168E+03 -0.36878410814E+03  0.11503373719E+04  0.95000000000E+03 0.  0.
<mgrwt>
<rscale>  0 0.22546571E+04</rscale>
<asrwt>0</asrwt>
<pdfrwt beam="2">  1        2 0.31432723E+00 0.22546571E+04</pdfrwt>
<pdfrwt beam="1">  1       -2 0.95695672E-01 0.22546571E+04</pdfrwt>
<totfact> 0.52700804E+00</totfact>
</mgrwt>
</event>
<event>
 4    1  0.1308745E-008  0.2322415E+04  0.7816531E-02  0.8469135E-01
         -2   -1    0    0    0  501 -0.00000000000E+00  0.00000000000E+00  0.57903619826E+03  0.57903619826E+03  0.00000000000E+00 0. -1.
          2   -1    0    0  501    0  0.00000000000E+00 -0.00000000000E+00 -0.23287021455E+04  0.23287021455E+04  0.00000000000E+00 0.  1.
    2000013    1    1    2    0    0 -0.54882161683E+03  0.29777595240E+03 -0.11711896896E+04  0.16321951396E+04  0.95000000000E+03 0.  0.
   -2000013    1    1    2    0    0  0.54882161683E+03 -0.29777595240E+03 -0.57847625771E+03  0.12755432042E+04  0.95000000000E+03 0.  0.
<mgrwt>
<rscale>  0 0.23224150E+04</rscale>
<asrwt>0</asrwt>
<pdfrwt beam="2">  1        2 0.35826187E+00 0.23224150E+04</pdfrwt>
<pdfrwt beam="1">  1       -2 0.89082491E-01 0.23224150E+04</pdfrwt>
<totfact> 0.42752458E+00</totfact>
</mgrwt>
</event>
<event>
 4    1  0.1308745E-008  0.2374896E+04  0.7816531E-02  0.8448962E-01
         -2   -1    0    0    0  501 -0.00000000000E+00  0.00000000000E+00  0.80592245766E+03  0.80592245766E+03  0.00000000000E+00 0. -1.
          2   -1    0    0  501    0  0.00000000000E+00 -0.00000000000E+00 -0.17495882456E+04  0.17495882456E+04  0.00000000000E+00 0.  1.
    2000013    1    1    2    0    0  0.29469237930E+03  0.48654068812E+03 -0.93336629821E+03  0.14481844103E+04  0.95000000000E+03 0.  0.
   -2000013    1    1    2    0    0 -0.29469237930E+03 -0.48654068812E+03 -0.10299489746E+02  0.11073262930E+04  0.95000000000E+03 0.  0.
<mgrwt>
<rscale>  0 0.23748958E+04</rscale>
<asrwt>0</asrwt>
<pdfrwt beam="2">  1        2 0.26916742E+00 0.23748958E+04</pdfrwt>
<pdfrwt beam="1">  1       -2 0.12398807E+00 0.23748958E+04</pdfrwt>
<totfact> 0.40587624E+00</totfact>
</mgrwt>
</event>
<event>
 4    1  0.1308745E-008  0.2682922E+04  0.7816531E-02  0.8340567E-01
         -2   -1    0    0    0  501 -0.00000000000E+00  0.00000000000E+00  0.11332987290E+04  0.11332987290E+04  0.00000000000E+00 0. -1.
          2   -1    0    0  501    0  0.00000000000E+00 -0.00000000000E+00 -0.15878585876E+04  0.15878585876E+04  0.00000000000E+00 0.  1.
    2000013    1    1    2    0    0 -0.40035652615E+03  0.84506338334E+03 -0.74802345872E+02  0.13351078087E+04  0.95000000000E+03 0.  0.
   -2000013    1    1    2    0    0  0.40035652615E+03 -0.84506338334E+03 -0.37975751270E+03  0.13860495079E+04  0.95000000000E+03 0.  0.
<mgrwt>
<rscale>  0 0.26829224E+04</rscale>
<asrwt>0</asrwt>
<pdfrwt beam="2">  1        2 0.24428594E+00 0.26829224E+04</pdfrwt>
<pdfrwt beam="1">  1       -2 0.17435365E+00 0.26829224E+04</pdfrwt>
<totfact> 0.19762201E+00</totfact>
</mgrwt>
</event>
<event>
 4    1  0.1308745E-008  0.2335651E+04  0.7816531E-02  0.8463996E-01
          2   -1    0    0  501    0  0.00000000000E+00  0.00000000000E+00  0.26574642286E+04  0.26574642286E+04  0.00000000000E+00 0. -1.
         -2   -1    0    0    0  501 -0.00000000000E+00 -0.00000000000E+00 -0.51320216663E+03  0.51320216663E+03  0.00000000000E+00 0.  1.
    2000013    1    1    2    0    0  0.33717554480E+03  0.28166765832E+03  0.36898299098E+03  0.11098074001E+04  0.95000000000E+03 0.  0.
   -2000013    1    1    2    0    0 -0.33717554480E+03 -0.28166765832E+03  0.17752790709E+04  0.20608589951E+04  0.95000000000E+03 0.  0.
<mgrwt>
<rscale>  0 0.23356510E+04</rscale>
<asrwt>0</asrwt>
<pdfrwt beam="1">  1        2 0.40884064E+00 0.23356510E+04</pdfrwt>
<pdfrwt beam="2">  1       -2 0.78954181E-01 0.23356510E+04</pdfrwt>
<totfact> 0.36230078E+00</totfact>
</mgrwt>
</event>
<event>
 4    1  0.1308745E-008  0.2042941E+04  0.7816531E-02  0.8586803E-01
          2   -1    0    0  501    0  0.00000000000E+00  0.00000000000E+00  0.16908474192E+04  0.16908474192E+04  0.00000000000E+00 0. -1.
         -2   -1    0    0    0  501 -0.00000000000E+00 -0.00000000000E+00 -0.61708835347E+03  0.61708835347E+03  0.00000000000E+00 0.  1.
    2000013    1    1    2    0    0  0.15487426487E+03 -0.25304114624E+03  0.79667992441E+03  0.12748391120E+04  0.95000000000E+03 0.  0.
   -2000013    1    1    2    0    0 -0.15487426487E+03  0.25304114624E+03  0.27707914129E+03  0.10330966606E+04  0.95000000000E+03 0.  0.
<mgrwt>
<rscale>  0 0.20429413E+04</rscale>
<asrwt>0</asrwt>
<pdfrwt beam="1">  1        2 0.26013037E+00 0.20429413E+04</pdfrwt>
<pdfrwt beam="2">  1       -2 0.94936671E-01 0.20429413E+04</pdfrwt>
<totfact> 0.85756873E+00</totfact>
</mgrwt>
</event>
<event>
 4    1  0.1308745E-008  0.2722831E+04  0.7816531E-02  0.8327635E-01
         -2   -1    0    0    0  501 -0.00000000000E+00  0.00000000000E+00  0.63465861036E+03  0.63465861036E+03  0.00000000000E+00 0. -1.
          2   -1    0    0  501    0  0.00000000000E+00 -0.00000000000E+00 -0.29203914031E+04  0.29203914031E+04  0.00000000000E+00 0.  1.
    2000013    1    1    2    0    0  0.10902544717E+03 -0.95649320969E+03 -0.13459172417E+04  0.19080773123E+04  0.95000000000E+03 0.  0.
   -2000013    1    1    2    0    0 -0.10902544717E+03  0.95649320969E+03 -0.93981555106E+03  0.16469727011E+04  0.95000000000E+03 0.  0.
<mgrwt>
<rscale>  0 0.27228305E+04</rscale>
<asrwt>0</asrwt>
<pdfrwt beam="2">  1        2 0.44929098E+00 0.27228305E+04</pdfrwt>
<pdfrwt beam="1">  1       -2 0.97639787E-01 0.27228305E+04</pdfrwt>
<totfact> 0.14930995E+00</totfact>
</mgrwt>
</event>
<event>
 4    1  0.1308745E-008  0.2422864E+04  0.7816531E-02  0.8430993E-01
         -2   -1    0    0    0  501 -0.00000000000E+00  0.00000000000E+00  0.13079002023E+04  0.13079002023E+04  0.00000000000E+00 0. -1.
          2   -1    0    0  501    0  0.00000000000E+00 -0.00000000000E+00 -0.11220791279E+04  0.11220791279E+04  0.00000000000E+00 0.  1.
    2000013    1    1    2    0    0  0.36323282731E+03 -0.52761222961E+03  0.48745463951E+03  0.12451605428E+04  0.95000000000E+03 0.  0.
   -2000013    1    1    2    0    0 -0.36323282731E+03  0.52761222961E+03 -0.30163356511E+03  0.11848187875E+04  0.95000000000E+03 0.  0.
<mgrwt>
<rscale>  0 0.24228640E+04</rscale>
<asrwt>0</asrwt>
<pdfrwt beam="2">  1        2 0.17262756E+00 0.24228640E+04</pdfrwt>
<pdfrwt beam="1">  1       -2 0.20121542E+00 0.24228640E+04</pdfrwt>
<totfact> 0.24744485E+00</totfact>
</mgrwt>
</event>
<event>
 4    1  0.1308745E-008  0.2716407E+04  0.7816531E-02  0.8329701E-01
         -2   -1    0    0    0  501 -0.00000000000E+00  0.00000000000E+00  0.69175518955E+03  0.69175518955E+03  0.00000000000E+00 0. -1.
          2   -1    0    0  501    0  0.00000000000E+00 -0.00000000000E+00 -0.26667192173E+04  0.26667192173E+04  0.00000000000E+00 0.  1.
    2000013    1    1    2    0    0  0.11422046881E+03  0.50654094124E+03 -0.20014432789E+04  0.22755010963E+04  0.95000000000E+03 0.  0.
   -2000013    1    1    2    0    0 -0.11422046881E+03 -0.50654094124E+03  0.26479251135E+02  0.10829733106E+04  0.95000000000E+03 0.  0.
<mgrwt>
<rscale>  0 0.27164071E+04</rscale>
<asrwt>0</asrwt>
<pdfrwt beam="2">  1        2 0.41026450E+00 0.27164071E+04</pdfrwt>
<pdfrwt beam="1">  1       -2 0.10642387E+00 0.27164071E+04</pdfrwt>
<totfact> 0.17323505E+00</totfact>
</mgrwt>
</event>
<event>
 4    1  0.1308745E-008  0.2499319E+04  0.7816531E-02  0.8403228E-01
         -2   -1    0    0    0  501 -0.00000000000E+00  0.00000000000E+00  0.17482096123E+04  0.17482096123E+04  0.00000000000E+00 0. -1.
          2   -1    0    0  501    0  0.00000000000E+00 -0.00000000000E+00 -0.89328452568E+03  0.89328452568E+03  0.00000000000E+00 0.  1.
    2000013    1    1    2    0    0  0.26737000049E+03  0.75853717142E+03  0.54459693050E+03  0.13586578577E+04  0.95000000000E+03 0.  0.
   -2000013    1    1    2    0    0 -0.26737000049E+03 -0.75853717142E+03  0.31032815616E+03  0.12828362803E+04  0.95000000000E+03 0.  0.
<mgrwt>
<rscale>  0 0.24993188E+04</rscale>
<asrwt>0</asrwt>
<pdfrwt beam="2">  1        2 0.13742839E+00 0.24993188E+04</pdfrwt>
<pdfrwt beam="1">  1       -2 0.26895532E+00 0.24993188E+04</pdfrwt>
<totfact> 0.12998306E+00</totfact>
</mgrwt>
</event>
<event>
 4    1  0.1308745E-008  0.2348838E+04  0.7816531E-02  0.8458910E-01
         -2   -1    0    0    0  501 -0.00000000000E+00  0.00000000000E+00  0.75581033367E+03  0.75581033367E+03  0.00000000000E+00 0. -1.
          2   -1    0    0  501    0  0.00000000000E+00 -0.00000000000E+00 -0.18248753497E+04  0.18248753497E+04  0.00000000000E+00 0.  1.
    2000013    1    1    2    0    0  0.45472381159E+03  0.11314231227E+03 -0.10917242644E+04  0.15211629752E+04  0.95000000000E+03 0.  0.
   -2000013    1    1    2    0    0 -0.45472381159E+03 -0.11314231227E+03  0.22659248319E+02  0.10595227082E+04  0.95000000000E+03 0.  0.
<mgrwt>
<rscale>  0 0.23488377E+04</rscale>
<asrwt>0</asrwt>
<pdfrwt beam="2">  1        2 0.28075005E+00 0.23488377E+04</pdfrwt>
<pdfrwt beam="1">  1       -2 0.11627851E+00 0.23488377E+04</pdfrwt>
<totfact> 0.43321374E+00</totfact>
</mgrwt>
</event>
<event>
 4    1  0.1308745E-008  0.3647762E+04  0.7816531E-02  0.8079638E-01
         -2   -1    0    0    0  501 -0.00000000000E+00  0.00000000000E+00  0.16781501630E+04  0.16781501630E+04  0.00000000000E+00 0. -1.
          2   -1    0    0  501    0  0.00000000000E+00 -0.00000000000E+00 -0.19822675545E+04  0.19822675545E+04  0.00000000000E+00 0.  1.
    2000013    1    1    2    0    0 -0.18303529140E+03  0.15386616569E+04  0.32666392181E+00  0.18175482714E+04  0.95000000000E+03 0.  0.
   -2000013    1    1    2    0    0  0.18303529140E+03 -0.15386616569E+04 -0.30444405535E+03  0.18428694460E+04  0.95000000000E+03 0.  0.
<mgrwt>
<rscale>  0 0.36477624E+04</rscale>
<asrwt>0</asrwt>
<pdfrwt beam="2">  1        2 0.30496424E+00 0.36477624E+04</pdfrwt>
<pdfrwt beam="1">  1       -2 0.25817695E+00 0.36477624E+04</pdfrwt>
<totfact> 0.31766766E-01</totfact>
</mgrwt>
</event>
<event>
 4    1  0.1308745E-008  0.3731923E+04  0.7816531E-02  0.8060924E-01
         -2   -1    0    0    0  501 -0.00000000000E+00  0.00000000000E+00  0.13032776682E+04  0.13032776682E+04  0.00000000000E+00 0. -1.
          2   -1    0    0  501    0  0.00000000000E+00 -0.00000000000E+00 -0.26715808237E+04  0.26715808237E+04  0.00000000000E+00 0.  1.
    2000013    1    1    2    0    0 -0.75754519505E+03  0.10259644986E+04 -0.17238265919E+04  0.23453264152E+04  0.95000000000E+03 0.  0.
   -2000013    1    1    2    0    0  0.75754519505E+03 -0.10259644986E+04  0.35552343647E+03  0.16295320767E+04  0.95000000000E+03 0.  0.
<mgrwt>
<rscale>  0 0.37319226E+04</rscale>
<asrwt>0</asrwt>
<pdfrwt beam="2">  1        2 0.41101243E+00 0.37319226E+04</pdfrwt>
<pdfrwt beam="1">  1       -2 0.20050426E+00 0.37319226E+04</pdfrwt>
<totfact> 0.29376418E-01</totfact>
</mgrwt>
</event>
<event>
 4    1  0.1308745E-008  0.2492108E+04  0.7816531E-02  0.8405803E-01
          2   -1    0    0  501    0  0.00000000000E+00  0.00000000000E+00  0.20911203370E+04  0.20911203370E+04  0.00000000000E+00 0.  1.
         -2   -1    0    0    0  501 -0.00000000000E+00 -0.00000000000E+00 -0.74249681397E+03  0.74249681397E+03  0.00000000000E+00 0. -1.
    2000013    1    1    2    0    0  0.25995878418E+03  0.60769160217E+03  0.14919967598E+03  0.11668882535E+04  0.95000000000E+03 0.  0.
   -2000013    1    1    2    0    0 -0.25995878418E+03 -0.60769160217E+03  0.11994238471E+04  0.16667288975E+04  0.95000000000E+03 0.  0.
<mgrwt>
<rscale>  0 0.24921077E+04</rscale>
<asrwt>0</asrwt>
<pdfrwt beam="1">  1        2 0.32171082E+00 0.24921077E+04</pdfrwt>
<pdfrwt beam="2">  1       -2 0.11423028E+00 0.24921077E+04</pdfrwt>
<totfact> 0.31791813E+00</totfact>
</mgrwt>
</event>
<event>
 4    1  0.1308745E-008  0.2462142E+04  0.7816531E-02  0.8416598E-01
          1   -1    0    0  501    0  0.00000000000E+00  0.00000000000E+00  0.11256569613E+04  0.11256569613E+04  0.00000000000E+00 0.  1.
         -1   -1    0    0    0  501 -0.00000000000E+00 -0.00000000000E+00 -0.13463570373E+04  0.13463570373E+04  0.00000000000E+00 0. -1.
    2000013    1    1    2    0    0 -0.66558506172E+03  0.37561956593E+03  0.60457423621E+02  0.12207574013E+04  0.95000000000E+03 0.  0.
   -2000013    1    1    2    0    0  0.66558506172E+03 -0.37561956593E+03 -0.28115749961E+03  0.12512565973E+04  0.95000000000E+03 0.  0.
<mgrwt>
<rscale>  0 0.24621423E+04</rscale>
<asrwt>0</asrwt>
<pdfrwt beam="1">  1        1 0.17317799E+00 0.24621423E+04</pdfrwt>
<pdfrwt beam="2">  1       -1 0.20713185E+00 0.24621423E+04</pdfrwt>
<totfact> 0.14536453E+00</totfact>
</mgrwt>
</event>
<event>
 4    1  0.1308745E-008  0.2096777E+04  0.7816531E-02  0.8562664E-01
          2   -1    0    0  501    0  0.00000000000E+00  0.00000000000E+00  0.14774686498E+04  0.14774686498E+04  0.00000000000E+00 0.  1.
         -2   -1    0    0    0  501 -0.00000000000E+00 -0.00000000000E+00 -0.74392006603E+03  0.74392006603E+03  0.00000000000E+00 0. -1.
    2000013    1    1    2    0    0 -0.33019085651E+03  0.19622931178E+03  0.13205223366E+03  0.10331842706E+04  0.95000000000E+03 0.  0.
   -2000013    1    1    2    0    0  0.33019085651E+03 -0.19622931178E+03  0.60149635006E+03  0.11882044452E+04  0.95000000000E+03 0.  0.
<mgrwt>
<rscale>  0 0.20967771E+04</rscale>
<asrwt>0</asrwt>
<pdfrwt beam="1">  1        2 0.22730287E+00 0.20967771E+04</pdfrwt>
<pdfrwt beam="2">  1       -2 0.11444924E+00 0.20967771E+04</pdfrwt>
<totfact> 0.71900814E+00</totfact>
</mgrwt>
</event>
<event>
 4    1  0.1308745E-008  0.3272639E+04  0.7816531E-02  0.8169892E-01
          2   -1    0    0  501    0  0.00000000000E+00  0.00000000000E+00  0.17214776434E+04  0.17214776434E+04  0.00000000000E+00 0.  1.
         -2   -1    0    0    0  501 -0.00000000000E+00 -0.00000000000E+00 -0.15553744010E+04  0.15553744010E+04  0.00000000000E+00 0. -1.
    2000013    1    1    2    0    0  0.12930024171E+04  0.24057850894E+03  0.29618469843E+03  0.16492297127E+04  0.95000000000E+03 0.  0.
   -2000013    1    1    2    0    0 -0.12930024171E+04 -0.24057850894E+03 -0.13008145608E+03  0.16276223318E+04  0.95000000000E+03 0.  0.
<mgrwt>
<rscale>  0 0.32726395E+04</rscale>
<asrwt>0</asrwt>
<pdfrwt beam="1">  1        2 0.26484272E+00 0.32726395E+04</pdfrwt>
<pdfrwt beam="2">  1       -2 0.23928837E+00 0.32726395E+04</pdfrwt>
<totfact> 0.59765725E-01</totfact>
</mgrwt>
</event>
<event>
 4    1  0.1308745E-008  0.3668121E+04  0.7816531E-02  0.8075064E-01
          2   -1    0    0  501    0  0.00000000000E+00  0.00000000000E+00  0.24136754905E+04  0.24136754905E+04  0.00000000000E+00 0.  1.
         -2   -1    0    0    0  501 -0.00000000000E+00 -0.00000000000E+00 -0.13936328113E+04  0.13936328113E+04  0.00000000000E+00 0. -1.
    2000013    1    1    2    0    0  0.13483178560E+04 -0.44154533363E+03  0.12050216056E+04  0.20898565483E+04  0.95000000000E+03 0.  0.
   -2000013    1    1    2    0    0 -0.13483178560E+04  0.44154533363E+03 -0.18497892634E+03  0.17174517535E+04  0.95000000000E+03 0.  0.
<mgrwt>
<rscale>  0 0.36681207E+04</rscale>
<asrwt>0</asrwt>
<pdfrwt beam="1">  1        2 0.37133469E+00 0.36681207E+04</pdfrwt>
<pdfrwt beam="2">  1       -2 0.21440505E+00 0.36681207E+04</pdfrwt>
<totfact> 0.33949897E-01</totfact>
</mgrwt>
</event>
<event>
 4    1  0.1308745E-008  0.2065394E+04  0.7816531E-02  0.8576643E-01
          2   -1    0    0  501    0  0.00000000000E+00  0.00000000000E+00  0.12697055916E+04  0.12697055916E+04  0.00000000000E+00 0. -1.
         -2   -1    0    0    0  501 -0.00000000000E+00 -0.00000000000E+00 -0.83992940760E+03  0.83992940760E+03  0.00000000000E+00 0.  1.
    2000013    1    1    2    0    0  0.35804777701E+03  0.18900036662E+03  0.20813464661E+03  0.10534416834E+04  0.95000000000E+03 0.  0.
   -2000013    1    1    2    0    0 -0.35804777701E+03 -0.18900036662E+03  0.22164153736E+03  0.10561933158E+04  0.95000000000E+03 0.  0.
<mgrwt>
<rscale>  0 0.20653940E+04</rscale>
<asrwt>0</asrwt>
<pdfrwt beam="1">  1        2 0.19533932E+00 0.20653940E+04</pdfrwt>
<pdfrwt beam="2">  1       -2 0.12921991E+00 0.20653940E+04</pdfrwt>
<totfact> 0.70191435E+00</totfact>
</mgrwt>
</event>
<event>
 4    1  0.1308745E-008  0.2364599E+04  0.7816531E-02  0.8452877E-01
         -2   -1    0    0    0  501 -0.00000000000E+00  0.00000000000E+00  0.91275771665E+03  0.91275771665E+03  0.00000000000E+00 0. -1.
          2   -1    0    0  501    0  0.00000000000E+00 -0.00000000000E+00 -0.15314389184E+04  0.15314389184E+04  0.00000000000E+00 0.  1.
    2000013    1    1    2    0    0  0.28141080409E+03  0.57411275849E+03 -0.52696543215E+01  0.11451311145E+04  0.95000000000E+03 0.  0.
   -2000013    1    1    2    0    0 -0.28141080409E+03 -0.57411275849E+03 -0.61341154738E+03  0.12990655205E+04  0.95000000000E+03 0.  0.
<mgrwt>
<rscale>  0 0.23645995E+04</rscale>
<asrwt>0</asrwt>
<pdfrwt beam="2">  1        2 0.23560599E+00 0.23645995E+04</pdfrwt>
<pdfrwt beam="1">  1       -2 0.14042426E+00 0.23645995E+04</pdfrwt>
<totfact> 0.39167560E+00</totfact>
</mgrwt>
</event>
<event>
 4    1  0.1308745E-008  0.2758349E+04  0.7816531E-02  0.8316317E-01
          2   -1    0    0  501    0  0.00000000000E+00  0.00000000000E+00  0.11788974924E+04  0.11788974924E+04  0.00000000000E+00 0.  1.
         -2   -1    0    0    0  501 -0.00000000000E+00 -0.00000000000E+00 -0.16134754258E+04  0.16134754258E+04  0.00000000000E+00 0. -1.
    2000013    1    1    2    0    0 -0.91211964599E+03  0.40780642560E+03 -0.25453689815E+03  0.14019833672E+04  0.95000000000E+03 0.  0.
   -2000013    1    1    2    0    0  0.91211964599E+03 -0.40780642560E+03 -0.18004103527E+03  0.13903895511E+04  0.95000000000E+03 0.  0.
<mgrwt>
<rscale>  0 0.27583489E+04</rscale>
<asrwt>0</asrwt>
<pdfrwt beam="1">  1        2 0.18136884E+00 0.27583489E+04</pdfrwt>
<pdfrwt beam="2">  1       -2 0.24822699E+00 0.27583489E+04</pdfrwt>
<totfact> 0.11220338E+00</totfact>
</mgrwt>
</event>
<event>
 4    1  0.1308745E-008  0.2052887E+04  0.7816531E-02  0.8582286E-01
          2   -1    0    0  501    0  0.00000000000E+00  0.00000000000E+00  0.89182920383E+03  0.89182920383E+03  0.00000000000E+00 0.  1.
         -2   -1    0    0    0  501 -0.00000000000E+00 -0.00000000000E+00 -0.11813770294E+04  0.11813770294E+04  0.00000000000E+00 0. -1.
    2000013    1    1    2    0    0  0.22673607139E+03 -0.19305434023E+03 -0.39706106826E+03  0.10718380084E+04  0.95000000000E+03 0.  0.
   -2000013    1    1    2    0    0 -0.22673607139E+03  0.19305434023E+03  0.10751324268E+03  0.10013682248E+04  0.95000000000E+03 0.  0.
<mgrwt>
<rscale>  0 0.20528873E+04</rscale>
<asrwt>0</asrwt>
<pdfrwt beam="1">  1        2 0.13720449E+00 0.20528873E+04</pdfrwt>
<pdfrwt beam="2">  1       -2 0.18175031E+00 0.20528873E+04</pdfrwt>
<totfact> 0.48434378E+00</totfact>
</mgrwt>
</event>
<event>
 4    1  0.1308745E-008  0.2374126E+04  0.7816531E-02  0.8449254E-01
         -2   -1    0    0    0  501 -0.00000000000E+00  0.00000000000E+00  0.13105890250E+04  0.13105890250E+04  0.00000000000E+00 0. -1.
          2   -1    0    0  501    0  0.00000000000E+00 -0.00000000000E+00 -0.10751793635E+04  0.10751793635E+04  0.00000000000E+00 0.  1.
    2000013    1    1    2    0    0 -0.46457945622E+03 -0.39930669453E+03  0.48188841493E+03  0.12288190883E+04  0.95000000000E+03 0.  0.
   -2000013    1    1    2    0    0  0.46457945622E+03  0.39930669453E+03 -0.24647875342E+03  0.11569493002E+04  0.95000000000E+03 0.  0.
<mgrwt>
<rscale>  0 0.23741258E+04</rscale>
<asrwt>0</asrwt>
<pdfrwt beam="2">  1        2 0.16541221E+00 0.23741258E+04</pdfrwt>
<pdfrwt beam="1">  1       -2 0.20162908E+00 0.23741258E+04</pdfrwt>
<totfact> 0.26392648E+00</totfact>
</mgrwt>
</event>
<event>
 4    1  0.1308745E-008  0.2712315E+04  0.7816531E-02  0.8331020E-01
          2   -1    0    0  501    0  0.00000000000E+00  0.00000000000E+00  0.70839149360E+03  0.70839149360E+03  0.00000000000E+00 0.  1.
         -2   -1    0    0    0  501 -0.00000000000E+00 -0.00000000000E+00 -0.25962527585E+04  0.25962527585E+04  0.00000000000E+00 0. -1.
    2000013    1    1    2    0    0  0.12504157998E+02  0.80740238279E+03 -0.15939232544E+04  0.20236467830E+04  0.95000000000E+03 0.  0.
   -2000013    1    1    2    0    0 -0.12504157998E+02 -0.80740238279E+03 -0.29393801055E+03  0.12809974691E+04  0.95000000000E+03 0.  0.
<mgrwt>
<rscale>  0 0.27123152E+04</rscale>
<asrwt>0</asrwt>
<pdfrwt beam="1">  1        2 0.10898331E+00 0.27123152E+04</pdfrwt>
<pdfrwt beam="2">  1       -2 0.39942351E+00 0.27123152E+04</pdfrwt>
<totfact> 0.26474391E-01</totfact>
</mgrwt>
</event>
<event>
 4    1  0.1308745E-008  0.2459836E+04  0.7816531E-02  0.8417436E-01
          2   -1    0    0  501    0  0.00000000000E+00  0.00000000000E+00  0.11347874708E+04  0.11347874708E+04  0.00000000000E+00 0.  1.
         -2   -1    0    0    0  501 -0.00000000000E+00 -0.00000000000E+00 -0.13330233663E+04  0.13330233663E+04  0.00000000000E+00 0. -1.
    2000013    1    1    2    0    0 -0.37286825509E+03  0.53594012889E+03  0.33114969598E+03  0.11993426027E+04  0.95000000000E+03 0.  0.
   -2000013    1    1    2    0    0  0.37286825509E+03 -0.53594012889E+03 -0.52938559145E+03  0.12684682345E+04  0.95000000000E+03 0.  0.
<mgrwt>
<rscale>  0 0.24598359E+04</rscale>
<asrwt>0</asrwt>
<pdfrwt beam="1">  1        2 0.17458269E+00 0.24598359E+04</pdfrwt>
<pdfrwt beam="2">  1       -2 0.20508052E+00 0.24598359E+04</pdfrwt>
<totfact> 0.22864706E+00</totfact>
</mgrwt>
</event>
<event>
 4    1  0.1308745E-008  0.2522113E+04  0.7816531E-02  0.8395150E-01
          2   -1    0    0  501    0  0.00000000000E+00  0.00000000000E+00  0.23756145360E+04  0.23756145360E+04  0.00000000000E+00 0.  1.
         -2   -1    0    0    0  501 -0.00000000000E+00 -0.00000000000E+00 -0.66941136328E+03  0.66941136328E+03  0.00000000000E+00 0. -1.
    2000013    1    1    2    0    0  0.48989410002E+03 -0.65652822745E+03  0.69690341450E+03  0.14349912584E+04  0.95000000000E+03 0.  0.
   -2000013    1    1    2    0    0 -0.48989410002E+03  0.65652822745E+03  0.10092997582E+04  0.16100346408E+04  0.95000000000E+03 0.  0.
<mgrwt>
<rscale>  0 0.25221129E+04</rscale>
<asrwt>0</asrwt>
<pdfrwt beam="1">  1        2 0.36547916E+00 0.25221129E+04</pdfrwt>
<pdfrwt beam="2">  1       -2 0.10298636E+00 0.25221129E+04</pdfrwt>
<totfact> 0.28138435E+00</totfact>
</mgrwt>
</event>
<event>
 4    1  0.1308745E-008  0.2610130E+04  0.7816531E-02  0.8364769E-01
         -2   -1    0    0    0  501 -0.00000000000E+00  0.00000000000E+00  0.92936314031E+03  0.92936314031E+03  0.00000000000E+00 0. -1.
          2   -1    0    0  501    0  0.00000000000E+00 -0.00000000000E+00 -0.18326466805E+04  0.18326466805E+04  0.00000000000E+00 0.  1.
    2000013    1    1    2    0    0  0.16413859083E+03 -0.87293358507E+03 -0.33698687238E+03  0.13435083450E+04  0.95000000000E+03 0.  0.
   -2000013    1    1    2    0    0 -0.16413859083E+03  0.87293358507E+03 -0.56629666784E+03  0.14185014758E+04  0.95000000000E+03 0.  0.
<mgrwt>
<rscale>  0 0.26101297E+04</rscale>
<asrwt>0</asrwt>
<pdfrwt beam="2">  1        2 0.28194564E+00 0.26101297E+04</pdfrwt>
<pdfrwt beam="1">  1       -2 0.14297894E+00 0.26101297E+04</pdfrwt>
<totfact> 0.24869994E+00</totfact>
</mgrwt>
</event>
<event>
 4    1  0.1308745E-008  0.2029311E+04  0.7816531E-02  0.8593038E-01
          2   -1    0    0  501    0  0.00000000000E+00  0.00000000000E+00  0.19725634627E+04  0.19725634627E+04  0.00000000000E+00 0.  1.
         -2   -1    0    0    0  501 -0.00000000000E+00 -0.00000000000E+00 -0.52192256859E+03  0.52192256859E+03  0.00000000000E+00 0. -1.
    2000013    1    1    2    0    0  0.30034906220E+03 -0.19068541501E+03  0.75153797259E+03  0.12624895290E+04  0.95000000000E+03 0.  0.
   -2000013    1    1    2    0    0 -0.30034906220E+03  0.19068541501E+03  0.69910292148E+03  0.12319965022E+04  0.95000000000E+03 0.  0.
<mgrwt>
<rscale>  0 0.20293106E+04</rscale>
<asrwt>0</asrwt>
<pdfrwt beam="1">  1        2 0.30347130E+00 0.20293106E+04</pdfrwt>
<pdfrwt beam="2">  1       -2 0.80295781E-01 0.20293106E+04</pdfrwt>
<totfact> 0.87920091E+00</totfact>
</mgrwt>
</event>
<event>
 4    1  0.1308745E-008  0.2733077E+04  0.7816531E-02  0.8324352E-01
         -2   -1    0    0    0  501 -0.00000000000E+00  0.00000000000E+00  0.53900717253E+03  0.53900717253E+03  0.00000000000E+00 0. -1.
          2   -1    0    0  501    0  0.00000000000E+00 -0.00000000000E+00 -0.34645683598E+04  0.34645683598E+04  0.00000000000E+00 0.  1.
    2000013    1    1    2    0    0 -0.48006719205E+03  0.85177098364E+03 -0.16013541905E+04  0.21030486349E+04  0.95000000000E+03 0.  0.
   -2000013    1    1    2    0    0  0.48006719205E+03 -0.85177098364E+03 -0.13242069968E+04  0.19005268974E+04  0.95000000000E+03 0.  0.
<mgrwt>
<rscale>  0 0.27330768E+04</rscale>
<asrwt>0</asrwt>
<pdfrwt beam="2">  1        2 0.53301050E+00 0.27330768E+04</pdfrwt>
<pdfrwt beam="1">  1       -2 0.82924182E-01 0.27330768E+04</pdfrwt>
<totfact> 0.95971978E-01</totfact>
</mgrwt>
</event>
<event>
 4    1  0.1308745E-008  0.3235587E+04  0.7816531E-02  0.8179481E-01
         -2   -1    0    0    0  501 -0.00000000000E+00  0.00000000000E+00  0.72127290456E+03  0.72127290456E+03  0.00000000000E+00 0.  1.
          2   -1    0    0  501    0  0.00000000000E+00 -0.00000000000E+00 -0.36286623569E+04  0.36286623569E+04  0.00000000000E+00 0. -1.
    2000013    1    1    2    0    0  0.44601043662E+03 -0.11804516019E+04 -0.98341364580E+03  0.18606433545E+04  0.95000000000E+03 0.  0.
   -2000013    1    1    2    0    0 -0.44601043662E+03  0.11804516019E+04 -0.19239758065E+04  0.24892919070E+04  0.95000000000E+03 0.  0.
<mgrwt>
<rscale>  0 0.32355870E+04</rscale>
<asrwt>0</asrwt>
<pdfrwt beam="2">  1        2 0.55825575E+00 0.32355870E+04</pdfrwt>
<pdfrwt beam="1">  1       -2 0.11096506E+00 0.32355870E+04</pdfrwt>
<totfact> 0.35497814E-01</totfact>
</mgrwt>
</event>
<event>
 4    1  0.1308745E-008  0.2123531E+04  0.7816531E-02  0.8550948E-01
          1   -1    0    0  501    0  0.00000000000E+00  0.00000000000E+00  0.19646646062E+04  0.19646646062E+04  0.00000000000E+00 0.  1.
         -1   -1    0    0    0  501 -0.00000000000E+00 -0.00000000000E+00 -0.57381096628E+03  0.57381096628E+03  0.00000000000E+00 0. -1.
    2000013    1    1    2    0    0  0.88725722383E+01  0.22646894897E+03  0.19753149147E+03  0.99643644931E+03  0.95000000000E+03 0.  0.
   -2000013    1    1    2    0    0 -0.88725722383E+01 -0.22646894897E+03  0.11933221485E+04  0.15420391232E+04  0.95000000000E+03 0.  0.
<mgrwt>
<rscale>  0 0.21235311E+04</rscale>
<asrwt>0</asrwt>
<pdfrwt beam="1">  1        1 0.30225609E+00 0.21235311E+04</pdfrwt>
<pdfrwt beam="2">  1       -1 0.88278611E-01 0.21235311E+04</pdfrwt>
<totfact> 0.36426544E+00</totfact>
</mgrwt>
</event>
<event>
 4    1  0.1308745E-008  0.2289447E+04  0.7816531E-02  0.8482094E-01
         -2   -1    0    0    0  501 -0.00000000000E+00  0.00000000000E+00  0.74201883077E+03  0.74201883077E+03  0.00000000000E+00 0. -1.
          2   -1    0    0  501    0  0.00000000000E+00 -0.00000000000E+00 -0.17659815933E+04  0.17659815933E+04  0.00000000000E+00 0.  1.
    2000013    1    1    2    0    0 -0.25357539048E+02  0.26678303816E+03  0.12307959121E+03  0.99471844258E+03  0.95000000000E+03 0.  0.
   -2000013    1    1    2    0    0  0.25357539048E+02 -0.26678303816E+03 -0.11470423537E+04  0.15132819815E+04  0.95000000000E+03 0.  0.
<mgrwt>
<rscale>  0 0.22894467E+04</rscale>
<asrwt>0</asrwt>
<pdfrwt beam="2">  1        2 0.27168947E+00 0.22894467E+04</pdfrwt>
<pdfrwt beam="1">  1       -2 0.11415674E+00 0.22894467E+04</pdfrwt>
<totfact> 0.49098578E+00</totfact>
</mgrwt>
</event>
<event>
 4    1  0.1308745E-008  0.2727679E+04  0.7816531E-02  0.8326080E-01
         -4   -1    0    0    0  501 -0.00000000000E+00  0.00000000000E+00  0.28783877826E+04  0.28783877826E+04  0.00000000000E+00 0. -1.
          4   -1    0    0  501    0  0.00000000000E+00 -0.00000000000E+00 -0.64621531285E+03  0.64621531285E+03  0.00000000000E+00 0.  1.
    2000013    1    1    2    0    0 -0.95076958248E+03 -0.13583696311E+02  0.81745716439E+03  0.15731762557E+04  0.95000000000E+03 0.  0.
   -2000013    1    1    2    0    0  0.95076958248E+03  0.13583696311E+02  0.14147153053E+04  0.19514268397E+04  0.95000000000E+03 0.  0.
<mgrwt>
<rscale>  0 0.27276791E+04</rscale>
<asrwt>0</asrwt>
<pdfrwt beam="2">  1        4 0.99417742E-01 0.27276791E+04</pdfrwt>
<pdfrwt beam="1">  1       -4 0.44282888E+00 0.27276791E+04</pdfrwt>
<totfact> 0.48850795E-03</totfact>
</mgrwt>
</event>
<event>
 4    1  0.1308745E-008  0.2684194E+04  0.7816531E-02  0.8340152E-01
          2   -1    0    0  501    0  0.00000000000E+00  0.00000000000E+00  0.22319098680E+04  0.22319098680E+04  0.00000000000E+00 0.  1.
         -2   -1    0    0    0  501 -0.00000000000E+00 -0.00000000000E+00 -0.80703272614E+03  0.80703272614E+03  0.00000000000E+00 0. -1.
    2000013    1    1    2    0    0 -0.43059104185E+03 -0.82782336720E+03  0.52290999836E+03  0.14306065284E+04  0.95000000000E+03 0.  0.
   -2000013    1    1    2    0    0  0.43059104185E+03  0.82782336720E+03  0.90196714355E+03  0.16083360658E+04  0.95000000000E+03 0.  0.
<mgrwt>
<rscale>  0 0.26841940E+04</rscale>
<asrwt>0</asrwt>
<pdfrwt beam="1">  1        2 0.34337075E+00 0.26841940E+04</pdfrwt>
<pdfrwt beam="2">  1       -2 0.12415888E+00 0.26841940E+04</pdfrwt>
<totfact> 0.21221713E+00</totfact>
</mgrwt>
</event>
<event>
 4    1  0.1308745E-008  0.2372597E+04  0.7816531E-02  0.8449835E-01
         -2   -1    0    0    0  501 -0.00000000000E+00  0.00000000000E+00  0.14458897592E+04  0.14458897592E+04  0.00000000000E+00 0. -1.
          2   -1    0    0  501    0  0.00000000000E+00 -0.00000000000E+00 -0.97331322492E+03  0.97331322492E+03  0.00000000000E+00 0.  1.
    2000013    1    1    2    0    0 -0.29127630800E+03 -0.33147834405E+03 -0.33150204814E+03  0.10986871202E+04  0.95000000000E+03 0.  0.
   -2000013    1    1    2    0    0  0.29127630800E+03  0.33147834405E+03  0.80407858242E+03  0.13205158639E+04  0.95000000000E+03 0.  0.
<mgrwt>
<rscale>  0 0.23725966E+04</rscale>
<asrwt>0</asrwt>
<pdfrwt beam="2">  1        2 0.14974050E+00 0.23725966E+04</pdfrwt>
<pdfrwt beam="1">  1       -2 0.22244458E+00 0.23725966E+04</pdfrwt>
<totfact> 0.22525719E+00</totfact>
</mgrwt>
</event>
<event>
 4    1  0.1308745E-008  0.2318492E+04  0.7816531E-02  0.8470665E-01
          2   -1    0    0  501    0  0.00000000000E+00  0.00000000000E+00  0.35341310901E+04  0.35341310901E+04  0.00000000000E+00 0.  1.
         -2   -1    0    0    0  501 -0.00000000000E+00 -0.00000000000E+00 -0.38024944486E+03  0.38024944486E+03  0.00000000000E+00 0. -1.
    2000013    1    1    2    0    0  0.59038007318E+03 -0.30269248274E+03  0.15189443982E+04  0.19104615816E+04  0.95000000000E+03 0.  0.
   -2000013    1    1    2    0    0 -0.59038007318E+03  0.30269248274E+03  0.16349372470E+04  0.20039189534E+04  0.95000000000E+03 0.  0.
<mgrwt>
<rscale>  0 0.23184921E+04</rscale>
<asrwt>0</asrwt>
<pdfrwt beam="1">  1        2 0.54371245E+00 0.23184921E+04</pdfrwt>
<pdfrwt beam="2">  1       -2 0.58499917E-01 0.23184921E+04</pdfrwt>
<totfact> 0.19077314E+00</totfact>
</mgrwt>
</event>
<event>
 4    1  0.1308745E-008  0.3171271E+04  0.7816531E-02  0.8196446E-01
         -2   -1    0    0    0  501 -0.00000000000E+00  0.00000000000E+00  0.81690325619E+03  0.81690325619E+03  0.00000000000E+00 0. -1.
          2   -1    0    0  501    0  0.00000000000E+00 -0.00000000000E+00 -0.30777704269E+04  0.30777704269E+04  0.00000000000E+00 0.  1.
    2000013    1    1    2    0    0 -0.98615762663E+03 -0.48034786659E+03 -0.34549884485E+03  0.14916803911E+04  0.95000000000E+03 0.  0.
   -2000013    1    1    2    0    0  0.98615762663E+03  0.48034786659E+03 -0.19153683258E+04  0.24029932919E+04  0.95000000000E+03 0.  0.
<mgrwt>
<rscale>  0 0.31712715E+04</rscale>
<asrwt>0</asrwt>
<pdfrwt beam="2">  1        2 0.47350313E+00 0.31712715E+04</pdfrwt>
<pdfrwt beam="1">  1       -2 0.12567743E+00 0.31712715E+04</pdfrwt>
<totfact> 0.62027261E-01</totfact>
</mgrwt>
</event>
<event>
 4    1  0.1308745E-008  0.1991028E+04  0.7816531E-02  0.8610827E-01
          2   -1    0    0  501    0  0.00000000000E+00  0.00000000000E+00  0.13677803855E+04  0.13677803855E+04  0.00000000000E+00 0.  1.
         -2   -1    0    0    0  501 -0.00000000000E+00 -0.00000000000E+00 -0.72456670514E+03  0.72456670514E+03  0.00000000000E+00 0. -1.
    2000013    1    1    2    0    0 -0.29207937732E+03 -0.11525008131E+02  0.26304929225E+03  0.10281722223E+04  0.95000000000E+03 0.  0.
   -2000013    1    1    2    0    0  0.29207937732E+03  0.11525008131E+02  0.38016438808E+03  0.10641748684E+04  0.95000000000E+03 0.  0.
<mgrwt>
<rscale>  0 0.19910280E+04</rscale>
<asrwt>0</asrwt>
<pdfrwt beam="1">  1        2 0.21042775E+00 0.19910280E+04</pdfrwt>
<pdfrwt beam="2">  1       -2 0.11147180E+00 0.19910280E+04</pdfrwt>
<totfact> 0.89331379E+00</totfact>
</mgrwt>
</event>
<event>
 4    1  0.1308745E-008  0.3269443E+04  0.7816531E-02  0.8170714E-01
          2   -1    0    0  501    0  0.00000000000E+00  0.00000000000E+00  0.11350717414E+04  0.11350717414E+04  0.00000000000E+00 0.  1.
         -2   -1    0    0    0  501 -0.00000000000E+00 -0.00000000000E+00 -0.23543128055E+04  0.23543128055E+04  0.00000000000E+00 0. -1.
    2000013    1    1    2    0    0  0.81653898084E+03 -0.10314345372E+04 -0.39825534571E+03  0.16708382424E+04  0.95000000000E+03 0.  0.
   -2000013    1    1    2    0    0 -0.81653898084E+03  0.10314345372E+04 -0.82098571840E+03  0.18185463045E+04  0.95000000000E+03 0.  0.
<mgrwt>
<rscale>  0 0.32694427E+04</rscale>
<asrwt>0</asrwt>
<pdfrwt beam="1">  1        2 0.17462642E+00 0.32694427E+04</pdfrwt>
<pdfrwt beam="2">  1       -2 0.36220197E+00 0.32694427E+04</pdfrwt>
<totfact> 0.22590002E-01</totfact>
</mgrwt>
</event>
<event>
 4    1  0.1308745E-008  0.2166320E+04  0.7816531E-02  0.8532578E-01
         -2   -1    0    0    0  501 -0.00000000000E+00  0.00000000000E+00  0.71189217558E+03  0.71189217558E+03  0.00000000000E+00 0. -1.
          2   -1    0    0  501    0  0.00000000000E+00 -0.00000000000E+00 -0.16480530256E+04  0.16480530256E+04  0.00000000000E+00 0.  1.
    2000013    1    1    2    0    0  0.31681689807E+03  0.30545756960E+03 -0.77048634404E+03  0.12999332599E+04  0.95000000000E+03 0.  0.
   -2000013    1    1    2    0    0 -0.31681689807E+03 -0.30545756960E+03 -0.16567450594E+03  0.10600119413E+04  0.95000000000E+03 0.  0.
<mgrwt>
<rscale>  0 0.21663204E+04</rscale>
<asrwt>0</asrwt>
<pdfrwt beam="2">  1        2 0.25354662E+00 0.21663204E+04</pdfrwt>
<pdfrwt beam="1">  1       -2 0.10952187E+00 0.21663204E+04</pdfrwt>
<totfact> 0.63805119E+00</totfact>
</mgrwt>
</event>
<event>
 4    1  0.1308745E-008  0.2480797E+04  0.7816531E-02  0.8409859E-01
          2   -1    0    0  501    0  0.00000000000E+00  0.00000000000E+00  0.10823204527E+04  0.10823204527E+04  0.00000000000E+00 0.  1.
         -2   -1    0    0    0  501 -0.00000000000E+00 -0.00000000000E+00 -0.14215645155E+04  0.14215645155E+04  0.00000000000E+00 0. -1.
    2000013    1    1    2    0    0  0.14227770734E+03  0.38717450878E+03  0.51932964733E+03  0.11585984330E+04  0.95000000000E+03 0.  0.
   -2000013    1    1    2    0    0 -0.14227770734E+03 -0.38717450878E+03 -0.85857371006E+03  0.13452865352E+04  0.95000000000E+03 0.  0.
<mgrwt>
<rscale>  0 0.24807969E+04</rscale>
<asrwt>0</asrwt>
<pdfrwt beam="1">  1        2 0.16651084E+00 0.24807969E+04</pdfrwt>
<pdfrwt beam="2">  1       -2 0.21870223E+00 0.24807969E+04</pdfrwt>
<totfact> 0.20101412E+00</totfact>
</mgrwt>
</event>
<event>
 4    1  0.1308745E-008  0.2509006E+04  0.7816531E-02  0.8399784E-01
         -1   -1    0    0    0  501 -0.00000000000E+00  0.00000000000E+00  0.17444009293E+04  0.17444009293E+04  0.00000000000E+00 0. -1.
          1   -1    0    0  501    0  0.00000000000E+00 -0.00000000000E+00 -0.90218833154E+03  0.90218833154E+03  0.00000000000E+00 0.  1.
    2000013    1    1    2    0    0  0.23025608720E+03  0.75517365515E+03  0.65214431807E+03  0.13968168551E+04  0.95000000000E+03 0.  0.
   -2000013    1    1    2    0    0 -0.23025608720E+03 -0.75517365515E+03  0.19006827966E+03  0.12497724057E+04  0.95000000000E+03 0.  0.
<mgrwt>
<rscale>  0 0.25090063E+04</rscale>
<asrwt>0</asrwt>
<pdfrwt beam="2">  1        1 0.13879820E+00 0.25090063E+04</pdfrwt>
<pdfrwt beam="1">  1       -1 0.26836937E+00 0.25090063E+04</pdfrwt>
<totfact> 0.85165845E-01</totfact>
</mgrwt>
</event>
<event>
 4    1  0.1308745E-008  0.2933173E+04  0.7816531E-02  0.8263075E-01
         -2   -1    0    0    0  501 -0.00000000000E+00  0.00000000000E+00  0.10302350986E+04  0.10302350986E+04  0.00000000000E+00 0. -1.
          2   -1    0    0  501    0  0.00000000000E+00 -0.00000000000E+00 -0.20877526893E+04  0.20877526893E+04  0.00000000000E+00 0.  1.
    2000013    1    1    2    0    0  0.39511256476E+03  0.69352665893E+03 -0.13598675412E+04  0.18408782945E+04  0.95000000000E+03 0.  0.
   -2000013    1    1    2    0    0 -0.39511256476E+03 -0.69352665893E+03  0.30234995050E+03  0.12771094934E+04  0.95000000000E+03 0.  0.
<mgrwt>
<rscale>  0 0.29331731E+04</rscale>
<asrwt>0</asrwt>
<pdfrwt beam="2">  1        2 0.32119272E+00 0.29331731E+04</pdfrwt>
<pdfrwt beam="1">  1       -2 0.15849771E+00 0.29331731E+04</pdfrwt>
<totfact> 0.13278854E+00</totfact>
</mgrwt>
</event>
<event>
 4    1  0.1308745E-008  0.2404193E+04  0.7816531E-02  0.8437935E-01
          2   -1    0    0  501    0  0.00000000000E+00  0.00000000000E+00  0.17496558213E+04  0.17496558213E+04  0.00000000000E+00 0.  1.
         -2   -1    0    0    0  501 -0.00000000000E+00 -0.00000000000E+00 -0.82589736853E+03  0.82589736853E+03  0.00000000000E+00 0. -1.
    2000013    1    1    2    0    0 -0.21914806561E+03 -0.25988938357E+03 -0.23812187150E+03  0.10367113350E+04  0.95000000000E+03 0.  0.
   -2000013    1    1    2    0    0  0.21914806561E+03  0.25988938357E+03  0.11618803242E+04  0.15388418548E+04  0.95000000000E+03 0.  0.
<mgrwt>
<rscale>  0 0.24041931E+04</rscale>
<asrwt>0</asrwt>
<pdfrwt beam="1">  1        2 0.26917782E+00 0.24041931E+04</pdfrwt>
<pdfrwt beam="2">  1       -2 0.12706113E+00 0.24041931E+04</pdfrwt>
<totfact> 0.38069885E+00</totfact>
</mgrwt>
</event>
<event>
 4    1  0.1308745E-008  0.2463887E+04  0.7816531E-02  0.8415965E-01
          2   -1    0    0  501    0  0.00000000000E+00  0.00000000000E+00  0.12030286816E+04  0.12030286816E+04  0.00000000000E+00 0.  1.
         -2   -1    0    0    0  501 -0.00000000000E+00 -0.00000000000E+00 -0.12615532312E+04  0.12615532312E+04  0.00000000000E+00 0. -1.
    2000013    1    1    2    0    0 -0.69455782826E+03 -0.36372142438E+03 -0.73273617038E+01  0.12317700847E+04  0.95000000000E+03 0.  0.
   -2000013    1    1    2    0    0  0.69455782826E+03  0.36372142438E+03 -0.51197187956E+02  0.12328118281E+04  0.95000000000E+03 0.  0.
<mgrwt>
<rscale>  0 0.24638869E+04</rscale>
<asrwt>0</asrwt>
<pdfrwt beam="1">  1        2 0.18508134E+00 0.24638869E+04</pdfrwt>
<pdfrwt beam="2">  1       -2 0.19408511E+00 0.24638869E+04</pdfrwt>
<totfact> 0.24556784E+00</totfact>
</mgrwt>
</event>
<event>
 4    1  0.1308745E-008  0.2117341E+04  0.7816531E-02  0.8553643E-01
         -2   -1    0    0    0  501 -0.00000000000E+00  0.00000000000E+00  0.18569423499E+04  0.18569423499E+04  0.00000000000E+00 0.  1.
          2   -1    0    0  501    0  0.00000000000E+00 -0.00000000000E+00 -0.60356362728E+03  0.60356362728E+03  0.00000000000E+00 0. -1.
    2000013    1    1    2    0    0  0.36653024268E+03 -0.28933853865E+03  0.60938844315E+03  0.12214399221E+04  0.95000000000E+03 0.  0.
   -2000013    1    1    2    0    0 -0.36653024268E+03  0.28933853865E+03  0.64399027950E+03  0.12390660551E+04  0.95000000000E+03 0.  0.
<mgrwt>
<rscale>  0 0.21173407E+04</rscale>
<asrwt>0</asrwt>
<pdfrwt beam="2">  1        2 0.92855944E-01 0.21173407E+04</pdfrwt>
<pdfrwt beam="1">  1       -2 0.28568344E+00 0.21173407E+04</pdfrwt>
<totfact> 0.17625617E+00</totfact>
</mgrwt>
</event>
<event>
 4    1  0.1308745E-008  0.2047200E+04  0.7816531E-02  0.8584866E-01
          1   -1    0    0  501    0  0.00000000000E+00  0.00000000000E+00  0.22792491377E+04  0.22792491377E+04  0.00000000000E+00 0.  1.
         -1   -1    0    0    0  501 -0.00000000000E+00 -0.00000000000E+00 -0.45969394110E+03  0.45969394110E+03  0.00000000000E+00 0. -1.
    2000013    1    1    2    0    0  0.13526015198E+03  0.31143873808E+03  0.67817209923E+03  0.12156096382E+04  0.95000000000E+03 0.  0.
   -2000013    1    1    2    0    0 -0.13526015198E+03 -0.31143873808E+03  0.11413830974E+04  0.15233334406E+04  0.95000000000E+03 0.  0.
<mgrwt>
<rscale>  0 0.20472001E+04</rscale>
<asrwt>0</asrwt>
<pdfrwt beam="1">  1        1 0.35065371E+00 0.20472001E+04</pdfrwt>
<pdfrwt beam="2">  1       -1 0.70722146E-01 0.20472001E+04</pdfrwt>
<totfact> 0.35893515E+00</totfact>
</mgrwt>
</event>
<event>
 4    1  0.1308745E-008  0.2898368E+04  0.7816531E-02  0.8273363E-01
          2   -1    0    0  501    0  0.00000000000E+00  0.00000000000E+00  0.25650707481E+04  0.25650707481E+04  0.00000000000E+00 0.  1.
         -2   -1    0    0    0  501 -0.00000000000E+00 -0.00000000000E+00 -0.81874320517E+03  0.81874320517E+03  0.00000000000E+00 0. -1.
    2000013    1    1    2    0    0 -0.28446726145E+03  0.88058417425E+03  0.15552055887E+04  0.20438968990E+04  0.95000000000E+03 0.  0.
   -2000013    1    1    2    0    0  0.28446726145E+03 -0.88058417425E+03  0.19112195421E+03  0.13399170542E+04  0.95000000000E+03 0.  0.
<mgrwt>
<rscale>  0 0.28983680E+04</rscale>
<asrwt>0</asrwt>
<pdfrwt beam="1">  1        2 0.39462627E+00 0.28983680E+04</pdfrwt>
<pdfrwt beam="2">  1       -2 0.12596049E+00 0.28983680E+04</pdfrwt>
<totfact> 0.12948282E+00</totfact>
</mgrwt>
</event>
<event>
 4    1  0.1308745E-008  0.4255368E+04  0.7816531E-02  0.7954923E-01
          2   -1    0    0  501    0  0.00000000000E+00  0.00000000000E+00  0.18667652363E+04  0.18667652363E+04  0.00000000000E+00 0.  1.
         -2   -1    0    0    0  501 -0.00000000000E+00 -0.00000000000E+00 -0.24250715747E+04  0.24250715747E+04  0.00000000000E+00 0. -1.
    2000013    1    1    2    0    0 -0.22270777030E+03 -0.18906311376E+04 -0.25765236145E+03  0.21431214592E+04  0.95000000000E+03 0.  0.
   -2000013    1    1    2    0    0  0.22270777030E+03  0.18906311376E+04 -0.30065397703E+03  0.21487153518E+04  0.95000000000E+03 0.  0.
<mgrwt>
<rscale>  0 0.42553681E+04</rscale>
<asrwt>0</asrwt>
<pdfrwt beam="1">  1        2 0.28719465E+00 0.42553681E+04</pdfrwt>
<pdfrwt beam="2">  1       -2 0.37308794E+00 0.42553681E+04</pdfrwt>
<totfact> 0.67904828E-02</totfact>
</mgrwt>
</event>
<event>
 4    1  0.1308745E-008  0.2339580E+04  0.7816531E-02  0.8462477E-01
          2   -1    0    0  501    0  0.00000000000E+00  0.00000000000E+00  0.92525904245E+03  0.92525904245E+03  0.00000000000E+00 0.  1.
         -2   -1    0    0    0  501 -0.00000000000E+00 -0.00000000000E+00 -0.14789466962E+04  0.14789466962E+04  0.00000000000E+00 0. -1.
    2000013    1    1    2    0    0  0.34178100800E+03  0.40068637959E+03 -0.72305576083E+03  0.13048653055E+04  0.95000000000E+03 0.  0.
   -2000013    1    1    2    0    0 -0.34178100800E+03 -0.40068637959E+03  0.16936810709E+03  0.10993404331E+04  0.95000000000E+03 0.  0.
<mgrwt>
<rscale>  0 0.23395801E+04</rscale>
<asrwt>0</asrwt>
<pdfrwt beam="1">  1        2 0.14234755E+00 0.23395801E+04</pdfrwt>
<pdfrwt beam="2">  1       -2 0.22753026E+00 0.23395801E+04</pdfrwt>
<totfact> 0.22570563E+00</totfact>
</mgrwt>
</event>
<event>
 4    1  0.1308745E-008  0.3308183E+04  0.7816531E-02  0.8160816E-01
          2   -1    0    0  501    0  0.00000000000E+00  0.00000000000E+00  0.26701331222E+04  0.26701331222E+04  0.00000000000E+00 0.  1.
         -2   -1    0    0    0  501 -0.00000000000E+00 -0.00000000000E+00 -0.10246753179E+04  0.10246753179E+04  0.00000000000E+00 0. -1.
    2000013    1    1    2    0    0  0.34499945071E+03 -0.12701346293E+04  0.46733817662E+03  0.16891333780E+04  0.95000000000E+03 0.  0.
   -2000013    1    1    2    0    0 -0.34499945071E+03  0.12701346293E+04  0.11781196277E+04  0.20056750621E+04  0.95000000000E+03 0.  0.
<mgrwt>
<rscale>  0 0.33081835E+04</rscale>
<asrwt>0</asrwt>
<pdfrwt beam="1">  1        2 0.41078971E+00 0.33081835E+04</pdfrwt>
<pdfrwt beam="2">  1       -2 0.15764236E+00 0.33081835E+04</pdfrwt>
<totfact> 0.60536768E-01</totfact>
</mgrwt>
</event>
<event>
 4    1  0.1308745E-008  0.4241479E+04  0.7816531E-02  0.7957529E-01
         -2   -1    0    0    0  501 -0.00000000000E+00  0.00000000000E+00  0.15938251904E+04  0.15938251904E+04  0.00000000000E+00 0. -1.
          2   -1    0    0  501    0  0.00000000000E+00 -0.00000000000E+00 -0.28218506644E+04  0.28218506644E+04  0.00000000000E+00 0.  1.
    2000013    1    1    2    0    0 -0.11447606104E+04 -0.15054629981E+04 -0.75423281003E+03  0.22468339559E+04  0.95000000000E+03 0.  0.
   -2000013    1    1    2    0    0  0.11447606104E+04  0.15054629981E+04 -0.47379266402E+03  0.21688418989E+04  0.95000000000E+03 0.  0.
<mgrwt>
<rscale>  0 0.42414793E+04</rscale>
<asrwt>0</asrwt>
<pdfrwt beam="2">  1        2 0.43413087E+00 0.42414793E+04</pdfrwt>
<pdfrwt beam="1">  1       -2 0.24520388E+00 0.42414793E+04</pdfrwt>
<totfact> 0.11933169E-01</totfact>
</mgrwt>
</event>
<event>
 4    1  0.1308745E-008  0.2255985E+04  0.7816531E-02  0.8495481E-01
          2   -1    0    0  501    0  0.00000000000E+00  0.00000000000E+00  0.69774517699E+03  0.69774517699E+03  0.00000000000E+00 0.  1.
         -2   -1    0    0    0  501 -0.00000000000E+00 -0.00000000000E+00 -0.18235407431E+04  0.18235407431E+04  0.00000000000E+00 0. -1.
    2000013    1    1    2    0    0  0.35615294457E+02  0.50673890172E+03 -0.93660718813E+03  0.14275103462E+04  0.95000000000E+03 0.  0.
   -2000013    1    1    2    0    0 -0.35615294457E+02 -0.50673890172E+03 -0.18918837802E+03  0.10937755739E+04  0.95000000000E+03 0.  0.
<mgrwt>
<rscale>  0 0.22559847E+04</rscale>
<asrwt>0</asrwt>
<pdfrwt beam="1">  1        2 0.10734541E+00 0.22559847E+04</pdfrwt>
<pdfrwt beam="2">  1       -2 0.28054472E+00 0.22559847E+04</pdfrwt>
<totfact> 0.15646302E+00</totfact>
</mgrwt>
</event>
<event>
 4    1  0.1308745E-008  0.2726882E+04  0.7816531E-02  0.8326335E-01
         -2   -1    0    0    0  501 -0.00000000000E+00  0.00000000000E+00  0.54286665377E+03  0.54286665377E+03  0.00000000000E+00 0. -1.
          2   -1    0    0  501    0  0.00000000000E+00 -0.00000000000E+00 -0.34243602256E+04  0.34243602256E+04  0.00000000000E+00 0.  1.
    2000013    1    1    2    0    0  0.87249890697E+03 -0.43929973504E+03 -0.15094859923E+04  0.20335404006E+04  0.95000000000E+03 0.  0.
   -2000013    1    1    2    0    0 -0.87249890697E+03  0.43929973504E+03 -0.13720075795E+04  0.19336864787E+04  0.95000000000E+03 0.  0.
<mgrwt>
<rscale>  0 0.27268817E+04</rscale>
<asrwt>0</asrwt>
<pdfrwt beam="2">  1        2 0.52682466E+00 0.27268817E+04</pdfrwt>
<pdfrwt beam="1">  1       -2 0.83517946E-01 0.27268817E+04</pdfrwt>
<totfact> 0.10071687E+00</totfact>
</mgrwt>
</event>
<event>
 4    1  0.1308745E-008  0.2814346E+04  0.7816531E-02  0.8298828E-01
         -2   -1    0    0    0  501 -0.00000000000E+00  0.00000000000E+00  0.10270675513E+04  0.10270675513E+04  0.00000000000E+00 0. -1.
          2   -1    0    0  501    0  0.00000000000E+00 -0.00000000000E+00 -0.19279512883E+04  0.19279512883E+04  0.00000000000E+00 0.  1.
    2000013    1    1    2    0    0  0.10256366611E+04  0.30201351677E+02 -0.28511178803E+03  0.14271059575E+04  0.95000000000E+03 0.  0.
   -2000013    1    1    2    0    0 -0.10256366611E+04 -0.30201351677E+02 -0.61577194895E+03  0.15279128821E+04  0.95000000000E+03 0.  0.
<mgrwt>
<rscale>  0 0.28143463E+04</rscale>
<asrwt>0</asrwt>
<pdfrwt beam="2">  1        2 0.29660789E+00 0.28143463E+04</pdfrwt>
<pdfrwt beam="1">  1       -2 0.15801039E+00 0.28143463E+04</pdfrwt>
<totfact> 0.16597524E+00</totfact>
</mgrwt>
</event>
<event>
 4    1  0.1308745E-008  0.2041884E+04  0.7816531E-02  0.8587285E-01
         -2   -1    0    0    0  501 -0.00000000000E+00  0.00000000000E+00  0.64494957684E+03  0.64494957684E+03  0.00000000000E+00 0. -1.
          2   -1    0    0  501    0  0.00000000000E+00 -0.00000000000E+00 -0.16161302423E+04  0.16161302423E+04  0.00000000000E+00 0.  1.
    2000013    1    1    2    0    0 -0.33652510052E+03 -0.13284872540E+03 -0.59020171607E+03  0.11754726678E+04  0.95000000000E+03 0.  0.
   -2000013    1    1    2    0    0  0.33652510052E+03  0.13284872540E+03 -0.38097894937E+03  0.10856071513E+04  0.95000000000E+03 0.  0.
<mgrwt>
<rscale>  0 0.20418839E+04</rscale>
<asrwt>0</asrwt>
<pdfrwt beam="2">  1        2 0.24863542E+00 0.20418839E+04</pdfrwt>
<pdfrwt beam="1">  1       -2 0.99223013E-01 0.20418839E+04</pdfrwt>
<totfact> 0.85099640E+00</totfact>
</mgrwt>
</event>
<event>
 4    1  0.1308745E-008  0.2086848E+04  0.7816531E-02  0.8567059E-01
         -2   -1    0    0    0  501 -0.00000000000E+00  0.00000000000E+00  0.10625221929E+04  0.10625221929E+04  0.00000000000E+00 0. -1.
          2   -1    0    0  501    0  0.00000000000E+00 -0.00000000000E+00 -0.10246690959E+04  0.10246690959E+04  0.00000000000E+00 0.  1.
    2000013    1    1    2    0    0 -0.30420358268E+03 -0.29767435098E+03 -0.52386063187E+02  0.10423023259E+04  0.95000000000E+03 0.  0.
   -2000013    1    1    2    0    0  0.30420358268E+03  0.29767435098E+03  0.90239160190E+02  0.10448889630E+04  0.95000000000E+03 0.  0.
<mgrwt>
<rscale>  0 0.20868480E+04</rscale>
<asrwt>0</asrwt>
<pdfrwt beam="2">  1        2 0.15764140E+00 0.20868480E+04</pdfrwt>
<pdfrwt beam="1">  1       -2 0.16346495E+00 0.20868480E+04</pdfrwt>
<totfact> 0.53222053E+00</totfact>
</mgrwt>
</event>
<event>
 4    1  0.1308745E-008  0.2548452E+04  0.7816531E-02  0.8385925E-01
         -2   -1    0    0    0  501 -0.00000000000E+00  0.00000000000E+00  0.12339667631E+04  0.12339667631E+04  0.00000000000E+00 0. -1.
          2   -1    0    0  501    0  0.00000000000E+00 -0.00000000000E+00 -0.13157991405E+04  0.13157991405E+04  0.00000000000E+00 0.  1.
    2000013    1    1    2    0    0 -0.64890459344E+02  0.45534420603E+03 -0.75514915930E+03  0.12978055981E+04  0.95000000000E+03 0.  0.
   -2000013    1    1    2    0    0  0.64890459344E+02 -0.45534420603E+03  0.67331678187E+03  0.12519603055E+04  0.95000000000E+03 0.  0.
<mgrwt>
<rscale>  0 0.25484524E+04</rscale>
<asrwt>0</asrwt>
<pdfrwt beam="2">  1        2 0.20243064E+00 0.25484524E+04</pdfrwt>
<pdfrwt beam="1">  1       -2 0.18984104E+00 0.25484524E+04</pdfrwt>
<totfact> 0.22340923E+00</totfact>
</mgrwt>
</event>
<event>
 4    1  0.1308745E-008  0.3009323E+04  0.7816531E-02  0.8241074E-01
          2   -1    0    0  501    0  0.00000000000E+00  0.00000000000E+00  0.17184675239E+04  0.17184675239E+04  0.00000000000E+00 0.  1.
         -2   -1    0    0    0  501 -0.00000000000E+00 -0.00000000000E+00 -0.13174568322E+04  0.13174568322E+04  0.00000000000E+00 0. -1.
    2000013    1    1    2    0    0  0.11560515976E+04  0.15623424653E+03  0.22607388751E+03  0.15213394883E+04  0.95000000000E+03 0.  0.
   -2000013    1    1    2    0    0 -0.11560515976E+04 -0.15623424653E+03  0.17493680421E+03  0.15145848678E+04  0.95000000000E+03 0.  0.
<mgrwt>
<rscale>  0 0.30093234E+04</rscale>
<asrwt>0</asrwt>
<pdfrwt beam="1">  1        2 0.26437962E+00 0.30093234E+04</pdfrwt>
<pdfrwt beam="2">  1       -2 0.20268567E+00 0.30093234E+04</pdfrwt>
<totfact> 0.10464224E+00</totfact>
</mgrwt>
</event>
<event>
 4    1  0.1308745E-008  0.2353820E+04  0.7816531E-02  0.8456998E-01
         -2   -1    0    0    0  501 -0.00000000000E+00  0.00000000000E+00  0.23934604637E+04  0.23934604637E+04  0.00000000000E+00 0. -1.
          2   -1    0    0  501    0  0.00000000000E+00 -0.00000000000E+00 -0.57870918209E+03  0.57870918209E+03  0.00000000000E+00 0.  1.
    2000013    1    1    2    0    0  0.40749964196E+03 -0.33588665850E+03  0.33742100486E+03  0.11380811659E+04  0.95000000000E+03 0.  0.
   -2000013    1    1    2    0    0 -0.40749964196E+03  0.33588665850E+03  0.14773302767E+04  0.18340884799E+04  0.95000000000E+03 0.  0.
<mgrwt>
<rscale>  0 0.23538203E+04</rscale>
<asrwt>0</asrwt>
<pdfrwt beam="2">  1        2 0.89032183E-01 0.23538203E+04</pdfrwt>
<pdfrwt beam="1">  1       -2 0.36822468E+00 0.23538203E+04</pdfrwt>
<totfact> 0.55784922E-01</totfact>
</mgrwt>
</event>
<event>
 4    1  0.1308745E-008  0.2392760E+04  0.7816531E-02  0.8442219E-01
          2   -1    0    0  501    0  0.00000000000E+00  0.00000000000E+00  0.16047494061E+04  0.16047494061E+04  0.00000000000E+00 0.  1.
         -2   -1    0    0    0  501 -0.00000000000E+00 -0.00000000000E+00 -0.89193063357E+03  0.89193063357E+03  0.00000000000E+00 0. -1.
    2000013    1    1    2    0    0 -0.46753621895E+03 -0.42657238554E+03 -0.17294872270E+02  0.11416449662E+04  0.95000000000E+03 0.  0.
   -2000013    1    1    2    0    0  0.46753621895E+03  0.42657238554E+03  0.73011364483E+03  0.13550350735E+04  0.95000000000E+03 0.  0.
<mgrwt>
<rscale>  0 0.23927600E+04</rscale>
<asrwt>0</asrwt>
<pdfrwt beam="1">  1        2 0.24688452E+00 0.23927600E+04</pdfrwt>
<pdfrwt beam="2">  1       -2 0.13722010E+00 0.23927600E+04</pdfrwt>
<totfact> 0.37737185E+00</totfact>
</mgrwt>
</event>
<event>
 4    1  0.1308745E-008  0.2597004E+04  0.7816531E-02  0.8369219E-01
          2   -1    0    0  501    0  0.00000000000E+00  0.00000000000E+00  0.10044316551E+04  0.10044316551E+04  0.00000000000E+00 0.  1.
         -2   -1    0    0    0  501 -0.00000000000E+00 -0.00000000000E+00 -0.16786685345E+04  0.16786685345E+04  0.00000000000E+00 0. -1.
    2000013    1    1    2    0    0 -0.70602720064E+03  0.53210310053E+03 -0.38331889972E+03  0.13531598193E+04  0.95000000000E+03 0.  0.
   -2000013    1    1    2    0    0  0.70602720064E+03 -0.53210310053E+03 -0.29091797963E+03  0.13299403703E+04  0.95000000000E+03 0.  0.
<mgrwt>
<rscale>  0 0.25970043E+04</rscale>
<asrwt>0</asrwt>
<pdfrwt beam="1">  1        2 0.15452795E+00 0.25970043E+04</pdfrwt>
<pdfrwt beam="2">  1       -2 0.25825669E+00 0.25970043E+04</pdfrwt>
<totfact> 0.12659258E+00</totfact>
</mgrwt>
</event>
<event>
 4    1  0.1308745E-008  0.2821928E+04  0.7816531E-02  0.8296493E-01
          2   -1    0    0  501    0  0.00000000000E+00  0.00000000000E+00  0.13090289397E+04  0.13090289397E+04  0.00000000000E+00 0.  1.
         -2   -1    0    0    0  501 -0.00000000000E+00 -0.00000000000E+00 -0.15208366763E+04  0.15208366763E+04  0.00000000000E+00 0. -1.
    2000013    1    1    2    0    0 -0.81942101299E+03  0.34333853735E+01  0.54155661095E+03  0.13664721540E+04  0.95000000000E+03 0.  0.
   -2000013    1    1    2    0    0  0.81942101299E+03 -0.34333853735E+01 -0.75336434757E+03  0.14633934621E+04  0.95000000000E+03 0.  0.
<mgrwt>
<rscale>  0 0.28219279E+04</rscale>
<asrwt>0</asrwt>
<pdfrwt beam="1">  1        2 0.20138907E+00 0.28219279E+04</pdfrwt>
<pdfrwt beam="2">  1       -2 0.23397487E+00 0.28219279E+04</pdfrwt>
<totfact> 0.11454827E+00</totfact>
</mgrwt>
</event>
<event>
 4    1  0.1308745E-008  0.2563708E+04  0.7816531E-02  0.8380634E-01
         -2   -1    0    0    0  501 -0.00000000000E+00  0.00000000000E+00  0.10529743753E+04  0.10529743753E+04  0.00000000000E+00 0. -1.
          2   -1    0    0  501    0  0.00000000000E+00 -0.00000000000E+00 -0.15604839405E+04  0.15604839405E+04  0.00000000000E+00 0.  1.
    2000013    1    1    2    0    0  0.57154317129E+03  0.12662856397E+03 -0.89683187041E+03  0.14316088131E+04  0.95000000000E+03 0.  0.
   -2000013    1    1    2    0    0 -0.57154317129E+03 -0.12662856397E+03  0.38932230522E+03  0.11818495028E+04  0.95000000000E+03 0.  0.
<mgrwt>
<rscale>  0 0.25637079E+04</rscale>
<asrwt>0</asrwt>
<pdfrwt beam="2">  1        2 0.24007445E+00 0.25637079E+04</pdfrwt>
<pdfrwt beam="1">  1       -2 0.16199606E+00 0.25637079E+04</pdfrwt>
<totfact> 0.25358078E+00</totfact>
</mgrwt>
</event>
<event>
 4    1  0.1308745E-008  0.2356104E+04  0.7816531E-02  0.8456123E-01
          2   -1    0    0  501    0  0.00000000000E+00  0.00000000000E+00  0.21323786430E+04  0.21323786430E+04  0.00000000000E+00 0. -1.
         -2   -1    0    0    0  501 -0.00000000000E+00 -0.00000000000E+00 -0.65082574025E+03  0.65082574025E+03  0.00000000000E+00 0.  1.
    2000013    1    1    2    0    0 -0.50388061771E+03  0.45894485565E+03  0.91106374742E+03  0.14822493749E+04  0.95000000000E+03 0.  0.
   -2000013    1    1    2    0    0  0.50388061771E+03 -0.45894485565E+03  0.57048915529E+03  0.13009550083E+04  0.95000000000E+03 0.  0.
<mgrwt>
<rscale>  0 0.23561043E+04</rscale>
<asrwt>0</asrwt>
<pdfrwt beam="1">  1        2 0.32805825E+00 0.23561043E+04</pdfrwt>
<pdfrwt beam="2">  1       -2 0.10012704E+00 0.23561043E+04</pdfrwt>
<totfact> 0.41880516E+00</totfact>
</mgrwt>
</event>
<event>
 4    1  0.1308745E-008  0.2301844E+04  0.7816531E-02  0.8477194E-01
          2   -1    0    0  501    0  0.00000000000E+00  0.00000000000E+00  0.13828938414E+04  0.13828938414E+04  0.00000000000E+00 0.  1.
         -2   -1    0    0    0  501 -0.00000000000E+00 -0.00000000000E+00 -0.95786207133E+03  0.95786207133E+03  0.00000000000E+00 0. -1.
    2000013    1    1    2    0    0  0.45322882140E+03 -0.91321777448E+02 -0.25167131328E+03  0.10860913781E+04  0.95000000000E+03 0.  0.
   -2000013    1    1    2    0    0 -0.45322882140E+03  0.91321777448E+02  0.67670308340E+03  0.12546645347E+04  0.95000000000E+03 0.  0.
<mgrwt>
<rscale>  0 0.23018441E+04</rscale>
<asrwt>0</asrwt>
<pdfrwt beam="1">  1        2 0.21275290E+00 0.23018441E+04</pdfrwt>
<pdfrwt beam="2">  1       -2 0.14736340E+00 0.23018441E+04</pdfrwt>
<totfact> 0.42138971E+00</totfact>
</mgrwt>
</event>
<event>
 4    1  0.1308745E-008  0.5860979E+04  0.7816531E-02  0.7707882E-01
         -2   -1    0    0    0  501 -0.00000000000E+00  0.00000000000E+00  0.18513144405E+04  0.18513144405E+04  0.00000000000E+00 0. -1.
          2   -1    0    0  501    0  0.00000000000E+00 -0.00000000000E+00 -0.46387405365E+04  0.46387405365E+04  0.00000000000E+00 0.  1.
    2000013    1    1    2    0    0  0.11591412562E+04  0.16694888883E+04  0.69397406978E+03  0.23483827647E+04  0.95000000000E+03 0.  0.
   -2000013    1    1    2    0    0 -0.11591412562E+04 -0.16694888883E+04 -0.34814001658E+04  0.41416722123E+04  0.95000000000E+03 0.  0.
<mgrwt>
<rscale>  0 0.58609785E+04</rscale>
<asrwt>0</asrwt>
<pdfrwt beam="2">  1        2 0.71365237E+00 0.58609785E+04</pdfrwt>
<pdfrwt beam="1">  1       -2 0.28481761E+00 0.58609785E+04</pdfrwt>
<totfact> 0.23532974E-03</totfact>
</mgrwt>
</event>
<event>
 4    1  0.1308745E-008  0.2952520E+04  0.7816531E-02  0.8257421E-01
          2   -1    0    0  501    0  0.00000000000E+00  0.00000000000E+00  0.16664648154E+04  0.16664648154E+04  0.00000000000E+00 0.  1.
         -2   -1    0    0    0  501 -0.00000000000E+00 -0.00000000000E+00 -0.13077643284E+04  0.13077643284E+04  0.00000000000E+00 0. -1.
    2000013    1    1    2    0    0  0.80785283158E+03 -0.76577766362E+03  0.37520619559E+03  0.15107353563E+04  0.95000000000E+03 0.  0.
   -2000013    1    1    2    0    0 -0.80785283158E+03  0.76577766362E+03 -0.16505708573E+02  0.14634937875E+04  0.95000000000E+03 0.  0.
<mgrwt>
<rscale>  0 0.29525198E+04</rscale>
<asrwt>0</asrwt>
<pdfrwt beam="1">  1        2 0.25637920E+00 0.29525198E+04</pdfrwt>
<pdfrwt beam="2">  1       -2 0.20119451E+00 0.29525198E+04</pdfrwt>
<totfact> 0.11493450E+00</totfact>
</mgrwt>
</event>
<event>
 4    1  0.1308745E-008  0.2147224E+04  0.7816531E-02  0.8540722E-01
          2   -1    0    0  501    0  0.00000000000E+00  0.00000000000E+00  0.13240803789E+04  0.13240803789E+04  0.00000000000E+00 0.  1.
         -2   -1    0    0    0  501 -0.00000000000E+00 -0.00000000000E+00 -0.87052282541E+03  0.87052282541E+03  0.00000000000E+00 0. -1.
    2000013    1    1    2    0    0  0.48652171431E+03  0.98253921299E+02  0.16389905574E+03  0.10843062815E+04  0.95000000000E+03 0.  0.
   -2000013    1    1    2    0    0 -0.48652171431E+03 -0.98253921299E+02  0.28965849774E+03  0.11102969228E+04  0.95000000000E+03 0.  0.
<mgrwt>
<rscale>  0 0.21472235E+04</rscale>
<asrwt>0</asrwt>
<pdfrwt beam="1">  1        2 0.20370467E+00 0.21472235E+04</pdfrwt>
<pdfrwt beam="2">  1       -2 0.13392659E+00 0.21472235E+04</pdfrwt>
<totfact> 0.59172967E+00</totfact>
</mgrwt>
</event>
<event>
 4    1  0.1308745E-008  0.2382375E+04  0.7816531E-02  0.8446132E-01
          1   -1    0    0  501    0  0.00000000000E+00  0.00000000000E+00  0.22582793105E+04  0.22582793105E+04  0.00000000000E+00 0.  1.
         -1   -1    0    0    0  501 -0.00000000000E+00 -0.00000000000E+00 -0.62832263276E+03  0.62832263276E+03  0.00000000000E+00 0. -1.
    2000013    1    1    2    0    0  0.56108465580E+03 -0.32706725796E+03  0.11877233511E+04  0.16537762064E+04  0.95000000000E+03 0.  0.
   -2000013    1    1    2    0    0 -0.56108465580E+03  0.32706725796E+03  0.44223332666E+03  0.12328257368E+04  0.95000000000E+03 0.  0.
<mgrwt>
<rscale>  0 0.23823753E+04</rscale>
<asrwt>0</asrwt>
<pdfrwt beam="1">  1        1 0.34742758E+00 0.23823753E+04</pdfrwt>
<pdfrwt beam="2">  1       -1 0.96665022E-01 0.23823753E+04</pdfrwt>
<totfact> 0.18362964E+00</totfact>
</mgrwt>
</event>
<event>
 4    1  0.1308745E-008  0.2166847E+04  0.7816531E-02  0.8532355E-01
          2   -1    0    0  501    0  0.00000000000E+00  0.00000000000E+00  0.54387746130E+03  0.54387746130E+03  0.00000000000E+00 0.  1.
         -2   -1    0    0    0  501 -0.00000000000E+00 -0.00000000000E+00 -0.21582179774E+04  0.21582179774E+04  0.00000000000E+00 0. -1.
    2000013    1    1    2    0    0 -0.41000578103E+03 -0.27255903816E+03 -0.10192106839E+04  0.14777291998E+04  0.95000000000E+03 0.  0.
   -2000013    1    1    2    0    0  0.41000578103E+03  0.27255903816E+03 -0.59512983217E+03  0.12243662389E+04  0.95000000000E+03 0.  0.
<mgrwt>
<rscale>  0 0.21668467E+04</rscale>
<asrwt>0</asrwt>
<pdfrwt beam="1">  1        2 0.83673456E-01 0.21668467E+04</pdfrwt>
<pdfrwt beam="2">  1       -2 0.33203353E+00 0.21668467E+04</pdfrwt>
<totfact> 0.10322259E+00</totfact>
</mgrwt>
</event>
<event>
 4    1  0.1308745E-008  0.2665364E+04  0.7816531E-02  0.8346332E-01
         -2   -1    0    0    0  501 -0.00000000000E+00  0.00000000000E+00  0.10572243700E+04  0.10572243700E+04  0.00000000000E+00 0. -1.
          2   -1    0    0  501    0  0.00000000000E+00 -0.00000000000E+00 -0.16799090350E+04  0.16799090350E+04  0.00000000000E+00 0.  1.
    2000013    1    1    2    0    0 -0.40593317306E+03 -0.68198878096E+03 -0.81824316934E+03  0.14838842012E+04  0.95000000000E+03 0.  0.
   -2000013    1    1    2    0    0  0.40593317306E+03  0.68198878096E+03  0.19555850430E+03  0.12532492039E+04  0.95000000000E+03 0.  0.
<mgrwt>
<rscale>  0 0.26653636E+04</rscale>
<asrwt>0</asrwt>
<pdfrwt beam="2">  1        2 0.25844754E+00 0.26653636E+04</pdfrwt>
<pdfrwt beam="1">  1       -2 0.16264990E+00 0.26653636E+04</pdfrwt>
<totfact> 0.21324974E+00</totfact>
</mgrwt>
</event>
<event>
 4    1  0.1308745E-008  0.2577639E+04  0.7816531E-02  0.8375837E-01
          2   -1    0    0  501    0  0.00000000000E+00  0.00000000000E+00  0.26831903747E+04  0.26831903747E+04  0.00000000000E+00 0. -1.
         -2   -1    0    0    0  501 -0.00000000000E+00 -0.00000000000E+00 -0.61906007330E+03  0.61906007330E+03  0.00000000000E+00 0.  1.
    2000013    1    1    2    0    0  0.68159807638E+03 -0.54105583578E+03  0.10771537289E+04  0.16793086407E+04  0.95000000000E+03 0.  0.
   -2000013    1    1    2    0    0 -0.68159807638E+03  0.54105583578E+03  0.98697657253E+03  0.16229418073E+04  0.95000000000E+03 0.  0.
<mgrwt>
<rscale>  0 0.25776393E+04</rscale>
<asrwt>0</asrwt>
<pdfrwt beam="1">  1        2 0.41279851E+00 0.25776393E+04</pdfrwt>
<pdfrwt beam="2">  1       -2 0.95240013E-01 0.25776393E+04</pdfrwt>
<totfact> 0.22307587E+00</totfact>
</mgrwt>
</event>
<event>
 4    1  0.1308745E-008  0.2116656E+04  0.7816531E-02  0.8553942E-01
         -2   -1    0    0    0  501 -0.00000000000E+00  0.00000000000E+00  0.66386802632E+03  0.66386802632E+03  0.00000000000E+00 0. -1.
          2   -1    0    0  501    0  0.00000000000E+00 -0.00000000000E+00 -0.16871695973E+04  0.16871695973E+04  0.00000000000E+00 0.  1.
    2000013    1    1    2    0    0  0.11112544487E+03  0.44127837085E+03 -0.39792957527E+03  0.11260210531E+04  0.95000000000E+03 0.  0.
   -2000013    1    1    2    0    0 -0.11112544487E+03 -0.44127837085E+03 -0.62537199567E+03  0.12250165705E+04  0.95000000000E+03 0.  0.
<mgrwt>
<rscale>  0 0.21166558E+04</rscale>
<asrwt>0</asrwt>
<pdfrwt beam="2">  1        2 0.25956455E+00 0.21166558E+04</pdfrwt>
<pdfrwt beam="1">  1       -2 0.10213354E+00 0.21166558E+04</pdfrwt>
<totfact> 0.72072204E+00</totfact>
</mgrwt>
</event>
<event>
 4    1  0.1308745E-008  0.2713481E+04  0.7816531E-02  0.8330644E-01
         -2   -1    0    0    0  501 -0.00000000000E+00  0.00000000000E+00  0.74835364739E+03  0.74835364739E+03  0.00000000000E+00 0. -1.
          2   -1    0    0  501    0  0.00000000000E+00 -0.00000000000E+00 -0.24597255546E+04  0.24597255546E+04  0.00000000000E+00 0.  1.
    2000013    1    1    2    0    0  0.67464719823E+03  0.49678751271E+03 -0.14303953064E+04  0.19106222566E+04  0.95000000000E+03 0.  0.
   -2000013    1    1    2    0    0 -0.67464719823E+03 -0.49678751271E+03 -0.28097660080E+03  0.12974569454E+04  0.95000000000E+03 0.  0.
<mgrwt>
<rscale>  0 0.27134809E+04</rscale>
<asrwt>0</asrwt>
<pdfrwt beam="2">  1        2 0.37841931E+00 0.27134809E+04</pdfrwt>
<pdfrwt beam="1">  1       -2 0.11513133E+00 0.27134809E+04</pdfrwt>
<totfact> 0.18922648E+00</totfact>
</mgrwt>
</event>
<event>
 4    1  0.1308745E-008  0.2971169E+04  0.7816531E-02  0.8252012E-01
          2   -1    0    0  501    0  0.00000000000E+00  0.00000000000E+00  0.11856971446E+04  0.11856971446E+04  0.00000000000E+00 0.  1.
         -2   -1    0    0    0  501 -0.00000000000E+00 -0.00000000000E+00 -0.18613200909E+04  0.18613200909E+04  0.00000000000E+00 0. -1.
    2000013    1    1    2    0    0  0.10385620456E+04 -0.47482363360E+03 -0.35814982441E+03  0.15280182926E+04  0.95000000000E+03 0.  0.
   -2000013    1    1    2    0    0 -0.10385620456E+04  0.47482363360E+03 -0.31747312184E+03  0.15189989430E+04  0.95000000000E+03 0.  0.
<mgrwt>
<rscale>  0 0.29711694E+04</rscale>
<asrwt>0</asrwt>
<pdfrwt beam="1">  1        2 0.18241495E+00 0.29711694E+04</pdfrwt>
<pdfrwt beam="2">  1       -2 0.28635694E+00 0.29711694E+04</pdfrwt>
<totfact> 0.63838584E-01</totfact>
</mgrwt>
</event>
<event>
 4    1  0.1308745E-008  0.3305820E+04  0.7816531E-02  0.8161416E-01
         -2   -1    0    0    0  501 -0.00000000000E+00  0.00000000000E+00  0.10523578513E+04  0.10523578513E+04  0.00000000000E+00 0. -1.
          2   -1    0    0  501    0  0.00000000000E+00 -0.00000000000E+00 -0.25961802675E+04  0.25961802675E+04  0.00000000000E+00 0.  1.
    2000013    1    1    2    0    0 -0.87185064867E+02  0.13095143361E+04 -0.41058457188E+03  0.16713792875E+04  0.95000000000E+03 0.  0.
   -2000013    1    1    2    0    0  0.87185064867E+02 -0.13095143361E+04 -0.11332378443E+04  0.19771588312E+04  0.95000000000E+03 0.  0.
<mgrwt>
<rscale>  0 0.33058195E+04</rscale>
<asrwt>0</asrwt>
<pdfrwt beam="2">  1        2 0.39941234E+00 0.33058195E+04</pdfrwt>
<pdfrwt beam="1">  1       -2 0.16190121E+00 0.33058195E+04</pdfrwt>
<totfact> 0.62267167E-01</totfact>
</mgrwt>
</event>
<event>
 4    1  0.1308745E-008  0.3024824E+04  0.7816531E-02  0.8236678E-01
          2   -1    0    0  501    0  0.00000000000E+00  0.00000000000E+00  0.92816474977E+03  0.92816474977E+03  0.00000000000E+00 0.  1.
         -2   -1    0    0    0  501 -0.00000000000E+00 -0.00000000000E+00 -0.24644226675E+04  0.24644226675E+04  0.00000000000E+00 0. -1.
    2000013    1    1    2    0    0 -0.10945711684E+04 -0.39524069047E+03 -0.57196754839E+03  0.16074663675E+04  0.95000000000E+03 0.  0.
   -2000013    1    1    2    0    0  0.10945711684E+04  0.39524069047E+03 -0.96429036931E+03  0.17851210498E+04  0.95000000000E+03 0.  0.
<mgrwt>
<rscale>  0 0.30248241E+04</rscale>
<asrwt>0</asrwt>
<pdfrwt beam="1">  1        2 0.14279458E+00 0.30248241E+04</pdfrwt>
<pdfrwt beam="2">  1       -2 0.37914194E+00 0.30248241E+04</pdfrwt>
<totfact> 0.24304890E-01</totfact>
</mgrwt>
</event>
<event>
 4    1  0.1308745E-008  0.2092926E+04  0.7816531E-02  0.8564366E-01
          1   -1    0    0  501    0  0.00000000000E+00  0.00000000000E+00  0.15794686176E+04  0.15794686176E+04  0.00000000000E+00 0.  1.
         -1   -1    0    0    0  501 -0.00000000000E+00 -0.00000000000E+00 -0.69332452251E+03  0.69332452251E+03  0.00000000000E+00 0. -1.
    2000013    1    1    2    0    0 -0.27544124824E+03 -0.33127739374E+03  0.35239936091E+03  0.11010440057E+04  0.95000000000E+03 0.  0.
   -2000013    1    1    2    0    0  0.27544124824E+03  0.33127739374E+03  0.53374473420E+03  0.11717491345E+04  0.95000000000E+03 0.  0.
<mgrwt>
<rscale>  0 0.20929255E+04</rscale>
<asrwt>0</asrwt>
<pdfrwt beam="1">  1        1 0.24299517E+00 0.20929255E+04</pdfrwt>
<pdfrwt beam="2">  1       -1 0.10666531E+00 0.20929255E+04</pdfrwt>
<totfact> 0.43528617E+00</totfact>
</mgrwt>
</event>
<event>
 4    1  0.1308745E-008  0.2120637E+04  0.7816531E-02  0.8552207E-01
         -2   -1    0    0    0  501 -0.00000000000E+00  0.00000000000E+00  0.67929337871E+03  0.67929337871E+03  0.00000000000E+00 0. -1.
          2   -1    0    0  501    0  0.00000000000E+00 -0.00000000000E+00 -0.16550653813E+04  0.16550653813E+04  0.00000000000E+00 0.  1.
    2000013    1    1    2    0    0 -0.42664255702E+03  0.14950920814E+03 -0.34269088757E+03  0.11064871979E+04  0.95000000000E+03 0.  0.
   -2000013    1    1    2    0    0  0.42664255702E+03 -0.14950920814E+03 -0.63308111502E+03  0.12278715621E+04  0.95000000000E+03 0.  0.
<mgrwt>
<rscale>  0 0.21206367E+04</rscale>
<asrwt>0</asrwt>
<pdfrwt beam="2">  1        2 0.25462544E+00 0.21206367E+04</pdfrwt>
<pdfrwt beam="1">  1       -2 0.10450667E+00 0.21206367E+04</pdfrwt>
<totfact> 0.71062933E+00</totfact>
</mgrwt>
</event>
<event>
 4    1  0.1308745E-008  0.2724452E+04  0.7816531E-02  0.8327114E-01
          2   -1    0    0  501    0  0.00000000000E+00  0.00000000000E+00  0.15340604643E+04  0.15340604643E+04  0.00000000000E+00 0.  1.
         -2   -1    0    0    0  501 -0.00000000000E+00 -0.00000000000E+00 -0.12096396342E+04  0.12096396342E+04  0.00000000000E+00 0. -1.
    2000013    1    1    2    0    0 -0.93469276538E+03  0.16332320066E+03  0.39369363307E+03  0.13992211084E+04  0.95000000000E+03 0.  0.
   -2000013    1    1    2    0    0  0.93469276538E+03 -0.16332320066E+03 -0.69272802971E+02  0.13444789901E+04  0.95000000000E+03 0.  0.
<mgrwt>
<rscale>  0 0.27244525E+04</rscale>
<asrwt>0</asrwt>
<pdfrwt beam="1">  1        2 0.23600930E+00 0.27244525E+04</pdfrwt>
<pdfrwt beam="2">  1       -2 0.18609840E+00 0.27244525E+04</pdfrwt>
<totfact> 0.17514343E+00</totfact>
</mgrwt>
</event>
<event>
 4    1  0.1308745E-008  0.1954092E+04  0.7816531E-02  0.8628390E-01
         -2   -1    0    0    0  501 -0.00000000000E+00  0.00000000000E+00  0.68130108373E+03  0.68130108373E+03  0.00000000000E+00 0. -1.
          2   -1    0    0  501    0  0.00000000000E+00 -0.00000000000E+00 -0.14011698772E+04  0.14011698772E+04  0.00000000000E+00 0.  1.
    2000013    1    1    2    0    0 -0.32028636355E+02 -0.22463963965E+03 -0.38667798549E+03  0.10504802072E+04  0.95000000000E+03 0.  0.
   -2000013    1    1    2    0    0  0.32028636355E+02  0.22463963965E+03 -0.33319080796E+03  0.10319907537E+04  0.95000000000E+03 0.  0.
<mgrwt>
<rscale>  0 0.19540917E+04</rscale>
<asrwt>0</asrwt>
<pdfrwt beam="2">  1        2 0.21556460E+00 0.19540917E+04</pdfrwt>
<pdfrwt beam="1">  1       -2 0.10481555E+00 0.19540917E+04</pdfrwt>
<totfact> 0.99473246E+00</totfact>
</mgrwt>
</event>
<event>
 4    1  0.1308745E-008  0.2246578E+04  0.7816531E-02  0.8499288E-01
         -2   -1    0    0    0  501 -0.00000000000E+00  0.00000000000E+00  0.19505188086E+04  0.19505188086E+04  0.00000000000E+00 0. -1.
          2   -1    0    0  501    0  0.00000000000E+00 -0.00000000000E+00 -0.64689350400E+03  0.64689350400E+03  0.00000000000E+00 0.  1.
    2000013    1    1    2    0    0 -0.40713181695E+03 -0.19832811816E+03  0.19782489628E+03  0.10708524868E+04  0.95000000000E+03 0.  0.
   -2000013    1    1    2    0    0  0.40713181695E+03  0.19832811816E+03  0.11058004083E+04  0.15265598259E+04  0.95000000000E+03 0.  0.
<mgrwt>
<rscale>  0 0.22465778E+04</rscale>
<asrwt>0</asrwt>
<pdfrwt beam="2">  1        2 0.99522078E-01 0.22465778E+04</pdfrwt>
<pdfrwt beam="1">  1       -2 0.30007981E+00 0.22465778E+04</pdfrwt>
<totfact> 0.13081615E+00</totfact>
</mgrwt>
</event>
<event>
 4    1  0.1308745E-008  0.2687687E+04  0.7816531E-02  0.8339011E-01
          2   -1    0    0  501    0  0.00000000000E+00  0.00000000000E+00  0.36649803445E+04  0.36649803445E+04  0.00000000000E+00 0.  1.
         -2   -1    0    0    0  501 -0.00000000000E+00 -0.00000000000E+00 -0.49274912783E+03  0.49274912783E+03  0.00000000000E+00 0. -1.
    2000013    1    1    2    0    0  0.23856286143E+03  0.39792215713E+03  0.28693993393E+04  0.30579743050E+04  0.95000000000E+03 0.  0.
   -2000013    1    1    2    0    0 -0.23856286143E+03 -0.39792215713E+03  0.30283187736E+03  0.10997551673E+04  0.95000000000E+03 0.  0.
<mgrwt>
<rscale>  0 0.26876874E+04</rscale>
<asrwt>0</asrwt>
<pdfrwt beam="1">  1        2 0.56384311E+00 0.26876874E+04</pdfrwt>
<pdfrwt beam="2">  1       -2 0.75807560E-01 0.26876874E+04</pdfrwt>
<totfact> 0.84861727E-01</totfact>
</mgrwt>
</event>
<event>
 4    1  0.1308745E-008  0.2902423E+04  0.7816531E-02  0.8272157E-01
         -2   -1    0    0    0  501 -0.00000000000E+00  0.00000000000E+00  0.91739710019E+03  0.91739710019E+03  0.00000000000E+00 0. -1.
          2   -1    0    0  501    0  0.00000000000E+00 -0.00000000000E+00 -0.22956418256E+04  0.22956418256E+04  0.00000000000E+00 0.  1.
    2000013    1    1    2    0    0 -0.54906711515E+03  0.94950127229E+03 -0.71357198125E+03  0.16170072156E+04  0.95000000000E+03 0.  0.
   -2000013    1    1    2    0    0  0.54906711515E+03 -0.94950127229E+03 -0.66467274421E+03  0.15960317102E+04  0.95000000000E+03 0.  0.
<mgrwt>
<rscale>  0 0.29024232E+04</rscale>
<asrwt>0</asrwt>
<pdfrwt beam="2">  1        2 0.35317566E+00 0.29024232E+04</pdfrwt>
<pdfrwt beam="1">  1       -2 0.14113802E+00 0.29024232E+04</pdfrwt>
<totfact> 0.13834636E+00</totfact>
</mgrwt>
</event>
<event>
 4    1  0.1308745E-008  0.4626803E+04  0.7816531E-02  0.7888806E-01
          2   -1    0    0  501    0  0.00000000000E+00  0.00000000000E+00  0.23458255567E+04  0.23458255567E+04  0.00000000000E+00 0.  1.
         -2   -1    0    0    0  501 -0.00000000000E+00 -0.00000000000E+00 -0.22814255926E+04  0.22814255926E+04  0.00000000000E+00 0. -1.
    2000013    1    1    2    0    0  0.28401295209E+03 -0.17873216988E+04 -0.10514843458E+04  0.22985433520E+04  0.95000000000E+03 0.  0.
   -2000013    1    1    2    0    0 -0.28401295209E+03  0.17873216988E+04  0.11158843099E+04  0.23287077972E+04  0.95000000000E+03 0.  0.
<mgrwt>
<rscale>  0 0.46268030E+04</rscale>
<asrwt>0</asrwt>
<pdfrwt beam="1">  1        2 0.36089624E+00 0.46268030E+04</pdfrwt>
<pdfrwt beam="2">  1       -2 0.35098855E+00 0.46268030E+04</pdfrwt>
<totfact> 0.49109047E-02</totfact>
</mgrwt>
</event>
<event>
 4    1  0.1308745E-008  0.2115104E+04  0.7816531E-02  0.8554619E-01
         -2   -1    0    0    0  501 -0.00000000000E+00  0.00000000000E+00  0.27977312061E+03  0.27977312061E+03  0.00000000000E+00 0. -1.
          2   -1    0    0  501    0  0.00000000000E+00 -0.00000000000E+00 -0.39975810812E+04  0.39975810812E+04  0.00000000000E+00 0.  1.
    2000013    1    1    2    0    0 -0.28921645191E+03 -0.34564661554E+03 -0.16301258244E+04  0.19398267815E+04  0.95000000000E+03 0.  0.
   -2000013    1    1    2    0    0  0.28921645191E+03  0.34564661554E+03 -0.20876821362E+04  0.23375274203E+04  0.95000000000E+03 0.  0.
<mgrwt>
<rscale>  0 0.21151035E+04</rscale>
<asrwt>0</asrwt>
<pdfrwt beam="2">  1        2 0.61501241E+00 0.21151035E+04</pdfrwt>
<pdfrwt beam="1">  1       -2 0.43042023E-01 0.21151035E+04</pdfrwt>
<totfact> 0.16326977E+00</totfact>
</mgrwt>
</event>
<event>
 4    1  0.1308745E-008  0.2457306E+04  0.7816531E-02  0.8418355E-01
         -2   -1    0    0    0  501 -0.00000000000E+00  0.00000000000E+00  0.75138925546E+03  0.75138925546E+03  0.00000000000E+00 0. -1.
          2   -1    0    0  501    0  0.00000000000E+00 -0.00000000000E+00 -0.20090628086E+04  0.20090628086E+04  0.00000000000E+00 0.  1.
    2000013    1    1    2    0    0 -0.25428811175E+03 -0.61176190540E+03 -0.10895166909E+04  0.15901137357E+04  0.95000000000E+03 0.  0.
   -2000013    1    1    2    0    0  0.25428811175E+03  0.61176190540E+03 -0.16815686232E+03  0.11703383284E+04  0.95000000000E+03 0.  0.
<mgrwt>
<rscale>  0 0.24573060E+04</rscale>
<asrwt>0</asrwt>
<pdfrwt beam="2">  1        2 0.30908659E+00 0.24573060E+04</pdfrwt>
<pdfrwt beam="1">  1       -2 0.11559835E+00 0.24573060E+04</pdfrwt>
<totfact> 0.34412435E+00</totfact>
</mgrwt>
</event>
<event>
 4    1  0.1308745E-008  0.2199528E+04  0.7816531E-02  0.8518625E-01
         -2   -1    0    0    0  501 -0.00000000000E+00  0.00000000000E+00  0.52404110718E+03  0.52404110718E+03  0.00000000000E+00 0. -1.
          2   -1    0    0  501    0  0.00000000000E+00 -0.00000000000E+00 -0.23079875167E+04  0.23079875167E+04  0.00000000000E+00 0.  1.
    2000013    1    1    2    0    0  0.52389110310E+03  0.10096842239E+03 -0.69959648007E+03  0.12948327093E+04  0.95000000000E+03 0.  0.
   -2000013    1    1    2    0    0 -0.52389110310E+03 -0.10096842239E+03 -0.10843499294E+04  0.15371959145E+04  0.95000000000E+03 0.  0.
<mgrwt>
<rscale>  0 0.21995275E+04</rscale>
<asrwt>0</asrwt>
<pdfrwt beam="2">  1        2 0.35507501E+00 0.21995275E+04</pdfrwt>
<pdfrwt beam="1">  1       -2 0.80621708E-01 0.21995275E+04</pdfrwt>
<totfact> 0.55703622E+00</totfact>
</mgrwt>
</event>
<event>
 4    1  0.1308745E-008  0.2519373E+04  0.7816531E-02  0.8396116E-01
          2   -1    0    0  501    0  0.00000000000E+00  0.00000000000E+00  0.15894361351E+04  0.15894361351E+04  0.00000000000E+00 0.  1.
         -2   -1    0    0    0  501 -0.00000000000E+00 -0.00000000000E+00 -0.99834748366E+03  0.99834748366E+03  0.00000000000E+00 0. -1.
    2000013    1    1    2    0    0 -0.29796923095E+03  0.68715934508E+03  0.65627276187E+03  0.13762876030E+04  0.95000000000E+03 0.  0.
   -2000013    1    1    2    0    0  0.29796923095E+03 -0.68715934508E+03 -0.65184110381E+02  0.12114960158E+04  0.95000000000E+03 0.  0.
<mgrwt>
<rscale>  0 0.25193726E+04</rscale>
<asrwt>0</asrwt>
<pdfrwt beam="1">  1        2 0.24452864E+00 0.25193726E+04</pdfrwt>
<pdfrwt beam="2">  1       -2 0.15359192E+00 0.25193726E+04</pdfrwt>
<totfact> 0.28323551E+00</totfact>
</mgrwt>
</event>
<event>
 4    1  0.1308745E-008  0.2789554E+04  0.7816531E-02  0.8306519E-01
         -2   -1    0    0    0  501 -0.00000000000E+00  0.00000000000E+00  0.62029688933E+03  0.62029688933E+03  0.00000000000E+00 0. -1.
          2   -1    0    0  501    0  0.00000000000E+00 -0.00000000000E+00 -0.31362458940E+04  0.31362458940E+04  0.00000000000E+00 0.  1.
    2000013    1    1    2    0    0  0.22023314771E+03  0.92470329963E+03 -0.75532227574E+03  0.15416194640E+04  0.95000000000E+03 0.  0.
   -2000013    1    1    2    0    0 -0.22023314771E+03 -0.92470329963E+03 -0.17606267290E+04  0.22149233193E+04  0.95000000000E+03 0.  0.
<mgrwt>
<rscale>  0 0.27895545E+04</rscale>
<asrwt>0</asrwt>
<pdfrwt beam="2">  1        2 0.48249937E+00 0.27895545E+04</pdfrwt>
<pdfrwt beam="1">  1       -2 0.95430290E-01 0.27895545E+04</pdfrwt>
<totfact> 0.11451212E+00</totfact>
</mgrwt>
</event>
<event>
 4    1  0.1308745E-008  0.2536818E+04  0.7816531E-02  0.8389985E-01
         -2   -1    0    0    0  501 -0.00000000000E+00  0.00000000000E+00  0.89293691374E+03  0.89293691374E+03  0.00000000000E+00 0. -1.
          2   -1    0    0  501    0  0.00000000000E+00 -0.00000000000E+00 -0.18017632413E+04  0.18017632413E+04  0.00000000000E+00 0.  1.
    2000013    1    1    2    0    0 -0.55375238823E+03  0.21869801066E+03  0.17570920874E+03  0.11348322578E+04  0.95000000000E+03 0.  0.
   -2000013    1    1    2    0    0  0.55375238823E+03 -0.21869801066E+03 -0.10845355363E+04  0.15598678973E+04  0.95000000000E+03 0.  0.
<mgrwt>
<rscale>  0 0.25368176E+04</rscale>
<asrwt>0</asrwt>
<pdfrwt beam="2">  1        2 0.27719434E+00 0.25368176E+04</pdfrwt>
<pdfrwt beam="1">  1       -2 0.13737491E+00 0.25368176E+04</pdfrwt>
<totfact> 0.28881963E+00</totfact>
</mgrwt>
</event>
<event>
 4    1  0.1308745E-008  0.3031770E+04  0.7816531E-02  0.8234717E-01
         -2   -1    0    0    0  501 -0.00000000000E+00  0.00000000000E+00  0.80338941023E+03  0.80338941023E+03  0.00000000000E+00 0. -1.
          2   -1    0    0  501    0  0.00000000000E+00 -0.00000000000E+00 -0.28602657219E+04  0.28602657219E+04  0.00000000000E+00 0.  1.
    2000013    1    1    2    0    0 -0.87160574323E+03 -0.65673918296E+03 -0.15747785669E+04  0.21385580331E+04  0.95000000000E+03 0.  0.
   -2000013    1    1    2    0    0  0.87160574323E+03  0.65673918296E+03 -0.48209774479E+03  0.15250970991E+04  0.95000000000E+03 0.  0.
<mgrwt>
<rscale>  0 0.30317699E+04</rscale>
<asrwt>0</asrwt>
<pdfrwt beam="2">  1        2 0.44004088E+00 0.30317699E+04</pdfrwt>
<pdfrwt beam="1">  1       -2 0.12359837E+00 0.30317699E+04</pdfrwt>
<totfact> 0.89448391E-01</totfact>
</mgrwt>
</event>
<event>
 4    1  0.1308745E-008  0.2689274E+04  0.7816531E-02  0.8338493E-01
         -1   -1    0    0    0  501 -0.00000000000E+00  0.00000000000E+00  0.13329059672E+04  0.13329059672E+04  0.00000000000E+00 0.  1.
          1   -1    0    0  501    0  0.00000000000E+00 -0.00000000000E+00 -0.13564716117E+04  0.13564716117E+04  0.00000000000E+00 0. -1.
    2000013    1    1    2    0    0 -0.21554002968E+03 -0.86474385070E+03 -0.34542667571E+03  0.13476123404E+04  0.95000000000E+03 0.  0.
   -2000013    1    1    2    0    0  0.21554002968E+03  0.86474385070E+03  0.32186103118E+03  0.13417652384E+04  0.95000000000E+03 0.  0.
<mgrwt>
<rscale>  0 0.26892743E+04</rscale>
<asrwt>0</asrwt>
<pdfrwt beam="2">  1        1 0.20868794E+00 0.26892743E+04</pdfrwt>
<pdfrwt beam="1">  1       -1 0.20506246E+00 0.26892743E+04</pdfrwt>
<totfact> 0.10011469E+00</totfact>
</mgrwt>
</event>
<event>
 4    1  0.1308745E-008  0.2214979E+04  0.7816531E-02  0.8512219E-01
          4   -1    0    0  501    0  0.00000000000E+00  0.00000000000E+00  0.80933666509E+03  0.80933666509E+03  0.00000000000E+00 0.  1.
         -4   -1    0    0    0  501 -0.00000000000E+00 -0.00000000000E+00 -0.15154789897E+04  0.15154789897E+04  0.00000000000E+00 0. -1.
    2000013    1    1    2    0    0 -0.55568163606E+03  0.10253031017E+03 -0.42531887662E+03  0.11843524357E+04  0.95000000000E+03 0.  0.
   -2000013    1    1    2    0    0  0.55568163606E+03 -0.10253031017E+03 -0.28082344799E+03  0.11404632191E+04  0.95000000000E+03 0.  0.
<mgrwt>
<rscale>  0 0.22149787E+04</rscale>
<asrwt>0</asrwt>
<pdfrwt beam="1">  1        4 0.12451333E+00 0.22149787E+04</pdfrwt>
<pdfrwt beam="2">  1       -4 0.23315061E+00 0.22149787E+04</pdfrwt>
<totfact> 0.70877223E-02</totfact>
</mgrwt>
</event>
<event>
 4    1  0.1308745E-008  0.3009416E+04  0.7816531E-02  0.8241047E-01
         -2   -1    0    0    0  501 -0.00000000000E+00  0.00000000000E+00  0.13428077495E+04  0.13428077495E+04  0.00000000000E+00 0. -1.
          2   -1    0    0  501    0  0.00000000000E+00 -0.00000000000E+00 -0.16861285844E+04  0.16861285844E+04  0.00000000000E+00 0.  1.
    2000013    1    1    2    0    0  0.94572295581E+03  0.21000664983E+03 -0.82638100089E+03  0.15886787783E+04  0.95000000000E+03 0.  0.
   -2000013    1    1    2    0    0 -0.94572295581E+03 -0.21000664983E+03  0.48306016600E+03  0.14402575555E+04  0.95000000000E+03 0.  0.
<mgrwt>
<rscale>  0 0.30094162E+04</rscale>
<asrwt>0</asrwt>
<pdfrwt beam="2">  1        2 0.25940440E+00 0.30094162E+04</pdfrwt>
<pdfrwt beam="1">  1       -2 0.20658581E+00 0.30094162E+04</pdfrwt>
<totfact> 0.10288066E+00</totfact>
</mgrwt>
</event>
<event>
 4    1  0.1308745E-008  0.2514073E+04  0.7816531E-02  0.8397989E-01
         -2   -1    0    0    0  501 -0.00000000000E+00  0.00000000000E+00  0.13188378202E+04  0.13188378202E+04  0.00000000000E+00 0. -1.
          2   -1    0    0  501    0  0.00000000000E+00 -0.00000000000E+00 -0.11981310067E+04  0.11981310067E+04  0.00000000000E+00 0.  1.
    2000013    1    1    2    0    0 -0.69244313217E+03  0.43915704399E+03  0.13326644764E+03  0.12619811198E+04  0.95000000000E+03 0.  0.
   -2000013    1    1    2    0    0  0.69244313217E+03 -0.43915704399E+03 -0.12559634139E+02  0.12549877071E+04  0.95000000000E+03 0.  0.
<mgrwt>
<rscale>  0 0.25140728E+04</rscale>
<asrwt>0</asrwt>
<pdfrwt beam="2">  1        2 0.18432785E+00 0.25140728E+04</pdfrwt>
<pdfrwt beam="1">  1       -2 0.20289813E+00 0.25140728E+04</pdfrwt>
<totfact> 0.21536435E+00</totfact>
</mgrwt>
</event>
<event>
 4    1  0.1308745E-008  0.3443901E+04  0.7816531E-02  0.8127215E-01
         -2   -1    0    0    0  501 -0.00000000000E+00  0.00000000000E+00  0.13359593024E+04  0.13359593024E+04  0.00000000000E+00 0. -1.
          2   -1    0    0  501    0  0.00000000000E+00 -0.00000000000E+00 -0.22194633336E+04  0.22194633336E+04  0.00000000000E+00 0.  1.
    2000013    1    1    2    0    0  0.11194867876E+04  0.16555529467E+03  0.47116455425E+03  0.15508562991E+04  0.95000000000E+03 0.  0.
   -2000013    1    1    2    0    0 -0.11194867876E+04 -0.16555529467E+03 -0.13546685855E+04  0.20045663370E+04  0.95000000000E+03 0.  0.
<mgrwt>
<rscale>  0 0.34439005E+04</rscale>
<asrwt>0</asrwt>
<pdfrwt beam="2">  1        2 0.34145589E+00 0.34439005E+04</pdfrwt>
<pdfrwt beam="1">  1       -2 0.20553220E+00 0.34439005E+04</pdfrwt>
<totfact> 0.50867071E-01</totfact>
</mgrwt>
</event>
<event>
 4    1  0.1308745E-008  0.2144815E+04  0.7816531E-02  0.8541755E-01
          2   -1    0    0  501    0  0.00000000000E+00  0.00000000000E+00  0.16185227829E+04  0.16185227829E+04  0.00000000000E+00 0.  1.
         -2   -1    0    0    0  501 -0.00000000000E+00 -0.00000000000E+00 -0.71056019312E+03  0.71056019312E+03  0.00000000000E+00 0. -1.
    2000013    1    1    2    0    0  0.40453854169E+03  0.15246034515E+03  0.18652399366E+03  0.10602767510E+04  0.95000000000E+03 0.  0.
   -2000013    1    1    2    0    0 -0.40453854169E+03 -0.15246034515E+03  0.72143859609E+03  0.12688062250E+04  0.95000000000E+03 0.  0.
<mgrwt>
<rscale>  0 0.21448150E+04</rscale>
<asrwt>0</asrwt>
<pdfrwt beam="1">  1        2 0.24900350E+00 0.21448150E+04</pdfrwt>
<pdfrwt beam="2">  1       -2 0.10931695E+00 0.21448150E+04</pdfrwt>
<totfact> 0.66694599E+00</totfact>
</mgrwt>
</event>
<event>
 4    1  0.1308745E-008  0.4209904E+04  0.7816531E-02  0.7963491E-01
         -2   -1    0    0    0  501 -0.00000000000E+00  0.00000000000E+00  0.12245198420E+04  0.12245198420E+04  0.00000000000E+00 0. -1.
          2   -1    0    0  501    0  0.00000000000E+00 -0.00000000000E+00 -0.36184173946E+04  0.36184173946E+04  0.00000000000E+00 0.  1.
    2000013    1    1    2    0    0 -0.90377249662E+03  0.15228802782E+04 -0.47637890155E+03  0.20652859185E+04  0.95000000000E+03 0.  0.
   -2000013    1    1    2    0    0  0.90377249662E+03 -0.15228802782E+04 -0.19175186511E+04  0.27776513180E+04  0.95000000000E+03 0.  0.
<mgrwt>
<rscale>  0 0.42099045E+04</rscale>
<asrwt>0</asrwt>
<pdfrwt beam="2">  1        2 0.55667959E+00 0.42099045E+04</pdfrwt>
<pdfrwt beam="1">  1       -2 0.18838767E+00 0.42099045E+04</pdfrwt>
<totfact> 0.82354253E-02</totfact>
</mgrwt>
</event>
<event>
 4    1  0.1308745E-008  0.2904123E+04  0.7816531E-02  0.8271652E-01
          2   -1    0    0  501    0  0.00000000000E+00  0.00000000000E+00  0.18153383661E+04  0.18153383661E+04  0.00000000000E+00 0.  1.
         -2   -1    0    0    0  501 -0.00000000000E+00 -0.00000000000E+00 -0.11614818597E+04  0.11614818597E+04  0.00000000000E+00 0. -1.
    2000013    1    1    2    0    0 -0.80903199419E+03 -0.71663941321E+03  0.12743428105E+03  0.14445913997E+04  0.95000000000E+03 0.  0.
   -2000013    1    1    2    0    0  0.80903199419E+03  0.71663941321E+03  0.52642222527E+03  0.15322288261E+04  0.95000000000E+03 0.  0.
<mgrwt>
<rscale>  0 0.29041230E+04</rscale>
<asrwt>0</asrwt>
<pdfrwt beam="1">  1        2 0.27928283E+00 0.29041230E+04</pdfrwt>
<pdfrwt beam="2">  1       -2 0.17868952E+00 0.29041230E+04</pdfrwt>
<totfact> 0.13518647E+00</totfact>
</mgrwt>
</event>
<event>
 4    1  0.1308745E-008  0.2066324E+04  0.7816531E-02  0.8576225E-01
          2   -1    0    0  501    0  0.00000000000E+00  0.00000000000E+00  0.10990571816E+04  0.10990571816E+04  0.00000000000E+00 0.  1.
         -2   -1    0    0    0  501 -0.00000000000E+00 -0.00000000000E+00 -0.97121718143E+03  0.97121718143E+03  0.00000000000E+00 0. -1.
    2000013    1    1    2    0    0  0.30696312166E+03  0.65379802255E+02 -0.19429809717E+03  0.10191921444E+04  0.95000000000E+03 0.  0.
   -2000013    1    1    2    0    0 -0.30696312166E+03 -0.65379802255E+02  0.32213809733E+03  0.10510822186E+04  0.95000000000E+03 0.  0.
<mgrwt>
<rscale>  0 0.20663235E+04</rscale>
<asrwt>0</asrwt>
<pdfrwt beam="1">  1        2 0.16908572E+00 0.20663235E+04</pdfrwt>
<pdfrwt beam="2">  1       -2 0.14941803E+00 0.20663235E+04</pdfrwt>
<totfact> 0.61026590E+00</totfact>
</mgrwt>
</event>
<event>
 4    1  0.1308745E-008  0.2236278E+04  0.7816531E-02  0.8503478E-01
          2   -1    0    0  501    0  0.00000000000E+00  0.00000000000E+00  0.38888159646E+04  0.38888159646E+04  0.00000000000E+00 0.  1.
         -2   -1    0    0    0  501 -0.00000000000E+00 -0.00000000000E+00 -0.32149495468E+03  0.32149495468E+03  0.00000000000E+00 0. -1.
    2000013    1    1    2    0    0  0.11966045234E+03 -0.43326843999E+03  0.25022982860E+04  0.27140443764E+04  0.95000000000E+03 0.  0.
   -2000013    1    1    2    0    0 -0.11966045234E+03  0.43326843999E+03  0.10650227240E+04  0.14962665429E+04  0.95000000000E+03 0.  0.
<mgrwt>
<rscale>  0 0.22362779E+04</rscale>
<asrwt>0</asrwt>
<pdfrwt beam="1">  1        2 0.59827935E+00 0.22362779E+04</pdfrwt>
<pdfrwt beam="2">  1       -2 0.49460765E-01 0.22362779E+04</pdfrwt>
<totfact> 0.14874663E+00</totfact>
</mgrwt>
</event>
<event>
 4    1  0.1308745E-008  0.2302220E+04  0.7816531E-02  0.8477046E-01
         -2   -1    0    0    0  501 -0.00000000000E+00  0.00000000000E+00  0.84743313761E+03  0.84743313761E+03  0.00000000000E+00 0.  1.
          2   -1    0    0  501    0  0.00000000000E+00 -0.00000000000E+00 -0.15636094603E+04  0.15636094603E+04  0.00000000000E+00 0. -1.
    2000013    1    1    2    0    0  0.40407770651E+03  0.14369621316E+03  0.15349693275E+03  0.10535600139E+04  0.95000000000E+03 0.  0.
   -2000013    1    1    2    0    0 -0.40407770651E+03 -0.14369621316E+03 -0.86967325543E+03  0.13574825840E+04  0.95000000000E+03 0.  0.
<mgrwt>
<rscale>  0 0.23022202E+04</rscale>
<asrwt>0</asrwt>
<pdfrwt beam="2">  1        2 0.24055530E+00 0.23022202E+04</pdfrwt>
<pdfrwt beam="1">  1       -2 0.13037433E+00 0.23022202E+04</pdfrwt>
<totfact> 0.45687524E+00</totfact>
</mgrwt>
</event>
<event>
 4    1  0.1308745E-008  0.2595118E+04  0.7816531E-02  0.8369861E-01
         -2   -1    0    0    0  501 -0.00000000000E+00  0.00000000000E+00  0.55696996685E+03  0.55696996685E+03  0.00000000000E+00 0. -1.
          2   -1    0    0  501    0  0.00000000000E+00 -0.00000000000E+00 -0.30228915021E+04  0.30228915021E+04  0.00000000000E+00 0.  1.
    2000013    1    1    2    0    0 -0.45027090990E+03  0.75606108219E+03 -0.11193119675E+04  0.17116458550E+04  0.95000000000E+03 0.  0.
   -2000013    1    1    2    0    0  0.45027090990E+03 -0.75606108219E+03 -0.13466095678E+04  0.18682156140E+04  0.95000000000E+03 0.  0.
<mgrwt>
<rscale>  0 0.25951183E+04</rscale>
<asrwt>0</asrwt>
<pdfrwt beam="2">  1        2 0.46506022E+00 0.25951183E+04</pdfrwt>
<pdfrwt beam="1">  1       -2 0.85687689E-01 0.25951183E+04</pdfrwt>
<totfact> 0.17631728E+00</totfact>
</mgrwt>
</event>
<event>
 4    1  0.1308745E-008  0.2329937E+04  0.7816531E-02  0.8466210E-01
         -2   -1    0    0    0  501 -0.00000000000E+00  0.00000000000E+00  0.54447972278E+03  0.54447972278E+03  0.00000000000E+00 0. -1.
          2   -1    0    0  501    0  0.00000000000E+00 -0.00000000000E+00 -0.24925669286E+04  0.24925669286E+04  0.00000000000E+00 0.  1.
    2000013    1    1    2    0    0 -0.21946897149E+03 -0.49216002715E+03 -0.15023409533E+04  0.18573950742E+04  0.95000000000E+03 0.  0.
   -2000013    1    1    2    0    0  0.21946897149E+03  0.49216002715E+03 -0.44574625246E+03  0.11796515771E+04  0.95000000000E+03 0.  0.
<mgrwt>
<rscale>  0 0.23299375E+04</rscale>
<asrwt>0</asrwt>
<pdfrwt beam="2">  1        2 0.38347183E+00 0.23299375E+04</pdfrwt>
<pdfrwt beam="1">  1       -2 0.83766113E-01 0.23299375E+04</pdfrwt>
<totfact> 0.39606942E+00</totfact>
</mgrwt>
</event>
<event>
 4    1  0.1308745E-008  0.2583896E+04  0.7816531E-02  0.8373692E-01
          2   -1    0    0  501    0  0.00000000000E+00  0.00000000000E+00  0.36035271501E+04  0.36035271501E+04  0.00000000000E+00 0. -1.
         -2   -1    0    0    0  501 -0.00000000000E+00 -0.00000000000E+00 -0.46319340596E+03  0.46319340596E+03  0.00000000000E+00 0.  1.
    2000013    1    1    2    0    0  0.70722445700E+02 -0.74732820194E+03  0.86082577989E+03  0.14856049707E+04  0.95000000000E+03 0.  0.
   -2000013    1    1    2    0    0 -0.70722445700E+02  0.74732820194E+03  0.22795079642E+04  0.25811155853E+04  0.95000000000E+03 0.  0.
<mgrwt>
<rscale>  0 0.25838963E+04</rscale>
<asrwt>0</asrwt>
<pdfrwt beam="1">  1        2 0.55438877E+00 0.25838963E+04</pdfrwt>
<pdfrwt beam="2">  1       -2 0.71260527E-01 0.25838963E+04</pdfrwt>
<totfact> 0.10879772E+00</totfact>
</mgrwt>
</event>
<event>
 4    1  0.1308745E-008  0.3229319E+04  0.7816531E-02  0.8181117E-01
          2   -1    0    0  501    0  0.00000000000E+00  0.00000000000E+00  0.81482133668E+03  0.81482133668E+03  0.00000000000E+00 0.  1.
         -2   -1    0    0    0  501 -0.00000000000E+00 -0.00000000000E+00 -0.31996286233E+04  0.31996286233E+04  0.00000000000E+00 0. -1.
    2000013    1    1    2    0    0  0.11992868694E+04 -0.50403460755E+03 -0.13301933044E+04  0.20890797275E+04  0.95000000000E+03 0.  0.
   -2000013    1    1    2    0    0 -0.11992868694E+04  0.50403460755E+03 -0.10546139823E+04  0.19253702326E+04  0.95000000000E+03 0.  0.
<mgrwt>
<rscale>  0 0.32293192E+04</rscale>
<asrwt>0</asrwt>
<pdfrwt beam="1">  1        2 0.12535713E+00 0.32293192E+04</pdfrwt>
<pdfrwt beam="2">  1       -2 0.49225056E+00 0.32293192E+04</pdfrwt>
<totfact> 0.51959156E-02</totfact>
</mgrwt>
</event>
<event>
 4    1  0.1308745E-008  0.3328872E+04  0.7816531E-02  0.8155587E-01
          2   -1    0    0  501    0  0.00000000000E+00  0.00000000000E+00  0.12379393556E+04  0.12379393556E+04  0.00000000000E+00 0.  1.
         -2   -1    0    0    0  501 -0.00000000000E+00 -0.00000000000E+00 -0.22378702710E+04  0.22378702710E+04  0.00000000000E+00 0. -1.
    2000013    1    1    2    0    0 -0.11147021460E+04  0.18183927758E+01 -0.13256180182E+04  0.19754309178E+04  0.95000000000E+03 0.  0.
   -2000013    1    1    2    0    0  0.11147021460E+04 -0.18183927758E+01  0.32568710270E+03  0.15003787088E+04  0.95000000000E+03 0.  0.
<mgrwt>
<rscale>  0 0.33288723E+04</rscale>
<asrwt>0</asrwt>
<pdfrwt beam="1">  1        2 0.19045221E+00 0.33288723E+04</pdfrwt>
<pdfrwt beam="2">  1       -2 0.34428773E+00 0.33288723E+04</pdfrwt>
<totfact> 0.25312232E-01</totfact>
</mgrwt>
</event>
<event>
 4    1  0.1308745E-008  0.2625856E+04  0.7816531E-02  0.8359471E-01
         -2   -1    0    0    0  501 -0.00000000000E+00  0.00000000000E+00  0.48647988175E+03  0.48647988175E+03  0.00000000000E+00 0. -1.
          2   -1    0    0  501    0  0.00000000000E+00 -0.00000000000E+00 -0.35433738741E+04  0.35433738741E+04  0.00000000000E+00 0.  1.
    2000013    1    1    2    0    0 -0.52229145057E+03  0.53302611508E+03 -0.23175405078E+04  0.26135032435E+04  0.95000000000E+03 0.  0.
   -2000013    1    1    2    0    0  0.52229145057E+03 -0.53302611508E+03 -0.73935348463E+03  0.14163505124E+04  0.95000000000E+03 0.  0.
<mgrwt>
<rscale>  0 0.26258561E+04</rscale>
<asrwt>0</asrwt>
<pdfrwt beam="2">  1        2 0.54513445E+00 0.26258561E+04</pdfrwt>
<pdfrwt beam="1">  1       -2 0.74843058E-01 0.26258561E+04</pdfrwt>
<totfact> 0.10737040E+00</totfact>
</mgrwt>
</event>
<event>
 4    1  0.1308745E-008  0.2131992E+04  0.7816531E-02  0.8547280E-01
          2   -1    0    0  501    0  0.00000000000E+00  0.00000000000E+00  0.74723927223E+03  0.74723927223E+03  0.00000000000E+00 0.  1.
         -2   -1    0    0    0  501 -0.00000000000E+00 -0.00000000000E+00 -0.15207274339E+04  0.15207274339E+04  0.00000000000E+00 0. -1.
    2000013    1    1    2    0    0 -0.28186679087E+03  0.38503111372E+03 -0.30332449403E+03  0.11055331723E+04  0.95000000000E+03 0.  0.
   -2000013    1    1    2    0    0  0.28186679087E+03 -0.38503111372E+03 -0.47016366769E+03  0.11624335339E+04  0.95000000000E+03 0.  0.
<mgrwt>
<rscale>  0 0.21319918E+04</rscale>
<asrwt>0</asrwt>
<pdfrwt beam="1">  1        2 0.11495989E+00 0.21319918E+04</pdfrwt>
<pdfrwt beam="2">  1       -2 0.23395806E+00 0.21319918E+04</pdfrwt>
<totfact> 0.27961849E+00</totfact>
</mgrwt>
</event>
<event>
 4    1  0.1308745E-008  0.2173132E+04  0.7816531E-02  0.8529695E-01
          2   -1    0    0  501    0  0.00000000000E+00  0.00000000000E+00  0.11913873182E+04  0.11913873182E+04  0.00000000000E+00 0.  1.
         -2   -1    0    0    0  501 -0.00000000000E+00 -0.00000000000E+00 -0.99096738423E+03  0.99096738423E+03  0.00000000000E+00 0. -1.
    2000013    1    1    2    0    0  0.12069061323E+03 -0.43622136783E+03 -0.17162433178E+03  0.10662130261E+04  0.95000000000E+03 0.  0.
   -2000013    1    1    2    0    0 -0.12069061323E+03  0.43622136783E+03  0.37204426576E+03  0.11161416763E+04  0.95000000000E+03 0.  0.
<mgrwt>
<rscale>  0 0.21731323E+04</rscale>
<asrwt>0</asrwt>
<pdfrwt beam="1">  1        2 0.18329036E+00 0.21731323E+04</pdfrwt>
<pdfrwt beam="2">  1       -2 0.15245652E+00 0.21731323E+04</pdfrwt>
<totfact> 0.50386281E+00</totfact>
</mgrwt>
</event>
<event>
 4    1  0.1308745E-008  0.2739030E+04  0.7816531E-02  0.8322451E-01
         -2   -1    0    0    0  501 -0.00000000000E+00  0.00000000000E+00  0.40304014512E+03  0.40304014512E+03  0.00000000000E+00 0. -1.
          2   -1    0    0  501    0  0.00000000000E+00 -0.00000000000E+00 -0.46535598552E+04  0.46535598552E+04  0.00000000000E+00 0.  1.
    2000013    1    1    2    0    0 -0.73619829544E+03 -0.65563087232E+03 -0.20604697473E+04  0.24738381820E+04  0.95000000000E+03 0.  0.
   -2000013    1    1    2    0    0  0.73619829544E+03  0.65563087232E+03 -0.21900499628E+04  0.25827618184E+04  0.95000000000E+03 0.  0.
<mgrwt>
<rscale>  0 0.27390301E+04</rscale>
<asrwt>0</asrwt>
<pdfrwt beam="2">  1        2 0.71593226E+00 0.27390301E+04</pdfrwt>
<pdfrwt beam="1">  1       -2 0.62006178E-01 0.27390301E+04</pdfrwt>
<totfact> 0.18209253E-01</totfact>
</mgrwt>
</event>
<event>
 4    1  0.1308745E-008  0.2246497E+04  0.7816531E-02  0.8499320E-01
         -2   -1    0    0    0  501 -0.00000000000E+00  0.00000000000E+00  0.29356273770E+03  0.29356273770E+03  0.00000000000E+00 0. -1.
          2   -1    0    0  501    0  0.00000000000E+00 -0.00000000000E+00 -0.42978459059E+04  0.42978459059E+04  0.00000000000E+00 0.  1.
    2000013    1    1    2    0    0 -0.43437859428E+03  0.40198231306E+03 -0.18091898064E+04  0.21274262147E+04  0.95000000000E+03 0.  0.
   -2000013    1    1    2    0    0  0.43437859428E+03 -0.40198231306E+03 -0.21950933618E+04  0.24639824289E+04  0.95000000000E+03 0.  0.
<mgrwt>
<rscale>  0 0.22464972E+04</rscale>
<asrwt>0</asrwt>
<pdfrwt beam="2">  1        2 0.66120707E+00 0.22464972E+04</pdfrwt>
<pdfrwt beam="1">  1       -2 0.45163498E-01 0.22464972E+04</pdfrwt>
<totfact> 0.81376948E-01</totfact>
</mgrwt>
</event>
<event>
 4    1  0.1308745E-008  0.2482255E+04  0.7816531E-02  0.8409335E-01
          2   -1    0    0  501    0  0.00000000000E+00  0.00000000000E+00  0.13048409687E+04  0.13048409687E+04  0.00000000000E+00 0.  1.
         -2   -1    0    0    0  501 -0.00000000000E+00 -0.00000000000E+00 -0.11805249452E+04  0.11805249452E+04  0.00000000000E+00 0. -1.
    2000013    1    1    2    0    0 -0.60361312620E+03  0.49287617984E+03 -0.11305152928E+03  0.12339191153E+04  0.95000000000E+03 0.  0.
   -2000013    1    1    2    0    0  0.60361312620E+03 -0.49287617984E+03  0.23736755278E+03  0.12514467987E+04  0.95000000000E+03 0.  0.
<mgrwt>
<rscale>  0 0.24822549E+04</rscale>
<asrwt>0</asrwt>
<pdfrwt beam="1">  1        2 0.20074476E+00 0.24822549E+04</pdfrwt>
<pdfrwt beam="2">  1       -2 0.18161922E+00 0.24822549E+04</pdfrwt>
<totfact> 0.25926717E+00</totfact>
</mgrwt>
</event>
<event>
 4    1  0.1308745E-008  0.3892205E+04  0.7816531E-02  0.8026652E-01
          2   -1    0    0  501    0  0.00000000000E+00  0.00000000000E+00  0.24653166490E+04  0.24653166490E+04  0.00000000000E+00 0.  1.
         -2   -1    0    0    0  501 -0.00000000000E+00 -0.00000000000E+00 -0.15362389905E+04  0.15362389905E+04  0.00000000000E+00 0. -1.
    2000013    1    1    2    0    0 -0.61429521595E+03  0.48246668428E+03 -0.10860389088E+04  0.16407660483E+04  0.95000000000E+03 0.  0.
   -2000013    1    1    2    0    0  0.61429521595E+03 -0.48246668428E+03  0.20151165673E+04  0.23607895911E+04  0.95000000000E+03 0.  0.
<mgrwt>
<rscale>  0 0.38922053E+04</rscale>
<asrwt>0</asrwt>
<pdfrwt beam="1">  1        2 0.37927948E+00 0.38922053E+04</pdfrwt>
<pdfrwt beam="2">  1       -2 0.23634446E+00 0.38922053E+04</pdfrwt>
<totfact> 0.22644347E-01</totfact>
</mgrwt>
</event>
<event>
 4    1  0.1308745E-008  0.2489246E+04  0.7816531E-02  0.8406827E-01
         -1   -1    0    0    0  501 -0.00000000000E+00  0.00000000000E+00  0.89599329256E+03  0.89599329256E+03  0.00000000000E+00 0. -1.
          1   -1    0    0  501    0  0.00000000000E+00 -0.00000000000E+00 -0.17289038127E+04  0.17289038127E+04  0.00000000000E+00 0.  1.
    2000013    1    1    2    0    0  0.48029286403E+02  0.67440959679E+03  0.42524000683E+02  0.11668090706E+04  0.95000000000E+03 0.  0.
   -2000013    1    1    2    0    0 -0.48029286403E+02 -0.67440959679E+03 -0.87543452083E+03  0.14580880347E+04  0.95000000000E+03 0.  0.
<mgrwt>
<rscale>  0 0.24892458E+04</rscale>
<asrwt>0</asrwt>
<pdfrwt beam="2">  1        1 0.26598520E+00 0.24892458E+04</pdfrwt>
<pdfrwt beam="1">  1       -1 0.13784512E+00 0.24892458E+04</pdfrwt>
<totfact> 0.17676496E+00</totfact>
</mgrwt>
</event>
<event>
 4    1  0.1308745E-008  0.2457436E+04  0.7816531E-02  0.8418308E-01
         -2   -1    0    0    0  501 -0.00000000000E+00  0.00000000000E+00  0.49443009039E+03  0.49443009039E+03  0.00000000000E+00 0. -1.
          2   -1    0    0  501    0  0.00000000000E+00 -0.00000000000E+00 -0.30535122453E+04  0.30535122453E+04  0.00000000000E+00 0.  1.
    2000013    1    1    2    0    0 -0.49179139588E+03  0.35233017620E+03 -0.57040326496E+03  0.12624797879E+04  0.95000000000E+03 0.  0.
   -2000013    1    1    2    0    0  0.49179139588E+03 -0.35233017620E+03 -0.19886788900E+04  0.22854625478E+04  0.95000000000E+03 0.  0.
<mgrwt>
<rscale>  0 0.24574363E+04</rscale>
<asrwt>0</asrwt>
<pdfrwt beam="2">  1        2 0.46977110E+00 0.24574363E+04</pdfrwt>
<pdfrwt beam="1">  1       -2 0.76066170E-01 0.24574363E+04</pdfrwt>
<totfact> 0.22320825E+00</totfact>
</mgrwt>
</event>
<event>
 4    1  0.1308745E-008  0.2564856E+04  0.7816531E-02  0.8380238E-01
         -2   -1    0    0    0  501 -0.00000000000E+00  0.00000000000E+00  0.93484335885E+03  0.93484335885E+03  0.00000000000E+00 0. -1.
          2   -1    0    0  501    0  0.00000000000E+00 -0.00000000000E+00 -0.17592476632E+04  0.17592476632E+04  0.00000000000E+00 0.  1.
    2000013    1    1    2    0    0  0.47877074328E+03  0.54497046493E+03 -0.90027255949E+03  0.14963973114E+04  0.95000000000E+03 0.  0.
   -2000013    1    1    2    0    0 -0.47877074328E+03 -0.54497046493E+03  0.75868255160E+02  0.11976937106E+04  0.95000000000E+03 0.  0.
<mgrwt>
<rscale>  0 0.25648555E+04</rscale>
<asrwt>0</asrwt>
<pdfrwt beam="2">  1        2 0.27065348E+00 0.25648555E+04</pdfrwt>
<pdfrwt beam="1">  1       -2 0.14382206E+00 0.25648555E+04</pdfrwt>
<totfact> 0.27000735E+00</totfact>
</mgrwt>
</event>
<event>
 4    1  0.1308745E-008  0.3792803E+04  0.7816531E-02  0.8047701E-01
          2   -1    0    0  501    0  0.00000000000E+00  0.00000000000E+00  0.26160295489E+04  0.26160295489E+04  0.00000000000E+00 0.  1.
         -2   -1    0    0    0  501 -0.00000000000E+00 -0.00000000000E+00 -0.13747318743E+04  0.13747318743E+04  0.00000000000E+00 0. -1.
    2000013    1    1    2    0    0 -0.16210608852E+04  0.21825078157E+03  0.76324878913E+03  0.20397354023E+04  0.95000000000E+03 0.  0.
   -2000013    1    1    2    0    0  0.16210608852E+04 -0.21825078157E+03  0.47804888541E+03  0.19510260209E+04  0.95000000000E+03 0.  0.
<mgrwt>
<rscale>  0 0.37928033E+04</rscale>
<asrwt>0</asrwt>
<pdfrwt beam="1">  1        2 0.40246609E+00 0.37928033E+04</pdfrwt>
<pdfrwt beam="2">  1       -2 0.21149721E+00 0.37928033E+04</pdfrwt>
<totfact> 0.26753425E-01</totfact>
</mgrwt>
</event>
<event>
 4    1  0.1308745E-008  0.2791399E+04  0.7816531E-02  0.8305944E-01
          2   -1    0    0  501    0  0.00000000000E+00  0.00000000000E+00  0.14023421791E+04  0.14023421791E+04  0.00000000000E+00 0.  1.
         -2   -1    0    0    0  501 -0.00000000000E+00 -0.00000000000E+00 -0.13890880144E+04  0.13890880144E+04  0.00000000000E+00 0. -1.
    2000013    1    1    2    0    0  0.83188983438E+03 -0.26263678180E+03  0.53997907744E+03  0.13982475388E+04  0.95000000000E+03 0.  0.
   -2000013    1    1    2    0    0 -0.83188983438E+03  0.26263678180E+03 -0.52672491274E+03  0.13931826547E+04  0.95000000000E+03 0.  0.
<mgrwt>
<rscale>  0 0.27913987E+04</rscale>
<asrwt>0</asrwt>
<pdfrwt beam="1">  1        2 0.21574495E+00 0.27913987E+04</pdfrwt>
<pdfrwt beam="2">  1       -2 0.21370585E+00 0.27913987E+04</pdfrwt>
<totfact> 0.13617546E+00</totfact>
</mgrwt>
</event>
<event>
 4    1  0.1308745E-008  0.2481277E+04  0.7816531E-02  0.8409686E-01
          2   -1    0    0  501    0  0.00000000000E+00  0.00000000000E+00  0.10052538663E+04  0.10052538663E+04  0.00000000000E+00 0.  1.
         -2   -1    0    0    0  501 -0.00000000000E+00 -0.00000000000E+00 -0.15311399759E+04  0.15311399759E+04  0.00000000000E+00 0. -1.
    2000013    1    1    2    0    0 -0.77242169398E+03  0.20011439407E+03 -0.26107585606E+03  0.12678097833E+04  0.95000000000E+03 0.  0.
   -2000013    1    1    2    0    0  0.77242169398E+03 -0.20011439407E+03 -0.26481025357E+03  0.12685840589E+04  0.95000000000E+03 0.  0.
<mgrwt>
<rscale>  0 0.24812774E+04</rscale>
<asrwt>0</asrwt>
<pdfrwt beam="1">  1        2 0.15465444E+00 0.24812774E+04</pdfrwt>
<pdfrwt beam="2">  1       -2 0.23555999E+00 0.24812774E+04</pdfrwt>
<totfact> 0.17618892E+00</totfact>
</mgrwt>
</event>
<event>
 4    1  0.1308745E-008  0.2458235E+04  0.7816531E-02  0.8418017E-01
         -2   -1    0    0    0  501 -0.00000000000E+00  0.00000000000E+00  0.79551986420E+03  0.79551986420E+03  0.00000000000E+00 0. -1.
          2   -1    0    0  501    0  0.00000000000E+00 -0.00000000000E+00 -0.18990475188E+04  0.18990475188E+04  0.00000000000E+00 0.  1.
    2000013    1    1    2    0    0 -0.61301834227E+03  0.20983529916E+02 -0.10797322593E+04  0.15635068111E+04  0.95000000000E+03 0.  0.
   -2000013    1    1    2    0    0  0.61301834227E+03 -0.20983529916E+02 -0.23795395280E+02  0.11310605719E+04  0.95000000000E+03 0.  0.
<mgrwt>
<rscale>  0 0.24582352E+04</rscale>
<asrwt>0</asrwt>
<pdfrwt beam="2">  1        2 0.29216115E+00 0.24582352E+04</pdfrwt>
<pdfrwt beam="1">  1       -2 0.12238767E+00 0.24582352E+04</pdfrwt>
<totfact> 0.34398852E+00</totfact>
</mgrwt>
</event>
<event>
 4    1  0.1308745E-008  0.2175124E+04  0.7816531E-02  0.8528854E-01
          2   -1    0    0  501    0  0.00000000000E+00  0.00000000000E+00  0.17341863038E+04  0.17341863038E+04  0.00000000000E+00 0.  1.
         -2   -1    0    0    0  501 -0.00000000000E+00 -0.00000000000E+00 -0.68204365306E+03  0.68204365306E+03  0.00000000000E+00 0. -1.
    2000013    1    1    2    0    0 -0.33770053723E+03 -0.54005113313E+01  0.73178050353E+02  0.10109034798E+04  0.95000000000E+03 0.  0.
   -2000013    1    1    2    0    0  0.33770053723E+03  0.54005113313E+01  0.97896460039E+03  0.14053264771E+04  0.95000000000E+03 0.  0.
<mgrwt>
<rscale>  0 0.21751237E+04</rscale>
<asrwt>0</asrwt>
<pdfrwt beam="1">  1        2 0.26679789E+00 0.21751237E+04</pdfrwt>
<pdfrwt beam="2">  1       -2 0.10492979E+00 0.21751237E+04</pdfrwt>
<totfact> 0.63302398E+00</totfact>
</mgrwt>
</event>
<event>
 4    1  0.1308745E-008  0.2732831E+04  0.7816531E-02  0.8324430E-01
          2   -1    0    0  501    0  0.00000000000E+00  0.00000000000E+00  0.27531163029E+04  0.27531163029E+04  0.00000000000E+00 0. -1.
         -2   -1    0    0    0  501 -0.00000000000E+00 -0.00000000000E+00 -0.67817382054E+03  0.67817382054E+03  0.00000000000E+00 0.  1.
    2000013    1    1    2    0    0  0.58669156851E+03 -0.55288335217E+03  0.17418334801E+04  0.21415813947E+04  0.95000000000E+03 0.  0.
   -2000013    1    1    2    0    0 -0.58669156851E+03  0.55288335217E+03  0.33310900228E+03  0.12897087288E+04  0.95000000000E+03 0.  0.
<mgrwt>
<rscale>  0 0.27328311E+04</rscale>
<asrwt>0</asrwt>
<pdfrwt beam="1">  1        2 0.42355635E+00 0.27328311E+04</pdfrwt>
<pdfrwt beam="2">  1       -2 0.10433444E+00 0.27328311E+04</pdfrwt>
<totfact> 0.16112315E+00</totfact>
</mgrwt>
</event>
<event>
 4    1  0.1308745E-008  0.2113359E+04  0.7816531E-02  0.8555381E-01
         -2   -1    0    0    0  501 -0.00000000000E+00  0.00000000000E+00  0.13367752411E+04  0.13367752411E+04  0.00000000000E+00 0. -1.
          2   -1    0    0  501    0  0.00000000000E+00 -0.00000000000E+00 -0.83527272507E+03  0.83527272507E+03  0.00000000000E+00 0.  1.
    2000013    1    1    2    0    0  0.29311333413E+03 -0.14617572859E+03  0.58661226807E+03  0.11635706783E+04  0.95000000000E+03 0.  0.
   -2000013    1    1    2    0    0 -0.29311333413E+03  0.14617572859E+03 -0.85109752064E+02  0.10084772879E+04  0.95000000000E+03 0.  0.
<mgrwt>
<rscale>  0 0.21133593E+04</rscale>
<asrwt>0</asrwt>
<pdfrwt beam="2">  1        2 0.12850350E+00 0.21133593E+04</pdfrwt>
<pdfrwt beam="1">  1       -2 0.20565773E+00 0.21133593E+04</pdfrwt>
<totfact> 0.36533555E+00</totfact>
</mgrwt>
</event>
<event>
 4    1  0.1308745E-008  0.2166297E+04  0.7816531E-02  0.8532589E-01
          1   -1    0    0  501    0  0.00000000000E+00  0.00000000000E+00  0.70904588860E+03  0.70904588860E+03  0.00000000000E+00 0. -1.
         -1   -1    0    0    0  501 -0.00000000000E+00 -0.00000000000E+00 -0.16546326066E+04  0.16546326066E+04  0.00000000000E+00 0.  1.
    2000013    1    1    2    0    0  0.26423860876E+03  0.38835073247E+03 -0.71694992464E+03  0.12795137859E+04  0.95000000000E+03 0.  0.
   -2000013    1    1    2    0    0 -0.26423860876E+03 -0.38835073247E+03 -0.22863679340E+03  0.10841647094E+04  0.95000000000E+03 0.  0.
<mgrwt>
<rscale>  0 0.21662968E+04</rscale>
<asrwt>0</asrwt>
<pdfrwt beam="1">  1        1 0.10908398E+00 0.21662968E+04</pdfrwt>
<pdfrwt beam="2">  1       -1 0.25455886E+00 0.21662968E+04</pdfrwt>
<totfact> 0.15902851E+00</totfact>
</mgrwt>
</event>
<event>
 4    1  0.1308745E-008  0.2728196E+04  0.7816531E-02  0.8325914E-01
         -1   -1    0    0    0  501 -0.00000000000E+00  0.00000000000E+00  0.37355708606E+03  0.37355708606E+03  0.00000000000E+00 0.  1.
          1   -1    0    0  501    0  0.00000000000E+00 -0.00000000000E+00 -0.49812033920E+04  0.49812033920E+04  0.00000000000E+00 0. -1.
    2000013    1    1    2    0    0  0.68593899061E+03  0.27324152037E+03 -0.10423236573E+04  0.15918893912E+04  0.95000000000E+03 0.  0.
   -2000013    1    1    2    0    0 -0.68593899061E+03 -0.27324152037E+03 -0.35653226486E+04  0.37628710868E+04  0.95000000000E+03 0.  0.
<mgrwt>
<rscale>  0 0.27281963E+04</rscale>
<asrwt>0</asrwt>
<pdfrwt beam="2">  1        1 0.76633897E+00 0.27281963E+04</pdfrwt>
<pdfrwt beam="1">  1       -1 0.57470322E-01 0.27281963E+04</pdfrwt>
<totfact> 0.24502069E-02</totfact>
</mgrwt>
</event>
<event>
 4    1  0.1308745E-008  0.2021801E+04  0.7816531E-02  0.8596495E-01
          2   -1    0    0  501    0  0.00000000000E+00  0.00000000000E+00  0.84820225824E+03  0.84820225824E+03  0.00000000000E+00 0.  1.
         -2   -1    0    0    0  501 -0.00000000000E+00 -0.00000000000E+00 -0.12048070641E+04  0.12048070641E+04  0.00000000000E+00 0. -1.
    2000013    1    1    2    0    0  0.46753790352E+02  0.28099512308E+03  0.20359753837E+02  0.99199732645E+03  0.95000000000E+03 0.  0.
   -2000013    1    1    2    0    0 -0.46753790352E+02 -0.28099512308E+03 -0.37696455967E+03  0.10610119959E+04  0.95000000000E+03 0.  0.
<mgrwt>
<rscale>  0 0.20218012E+04</rscale>
<asrwt>0</asrwt>
<pdfrwt beam="1">  1        2 0.13049266E+00 0.20218012E+04</pdfrwt>
<pdfrwt beam="2">  1       -2 0.18535493E+00 0.20218012E+04</pdfrwt>
<totfact> 0.49166111E+00</totfact>
</mgrwt>
</event>
<event>
 4    1  0.1308745E-008  0.2457952E+04  0.7816531E-02  0.8418120E-01
          2   -1    0    0  501    0  0.00000000000E+00  0.00000000000E+00  0.17292102611E+04  0.17292102611E+04  0.00000000000E+00 0.  1.
         -2   -1    0    0    0  501 -0.00000000000E+00 -0.00000000000E+00 -0.87345211681E+03  0.87345211681E+03  0.00000000000E+00 0. -1.
    2000013    1    1    2    0    0  0.61099021106E+03  0.39464724409E+03  0.13058821849E+03  0.12035816416E+04  0.95000000000E+03 0.  0.
   -2000013    1    1    2    0    0 -0.61099021106E+03 -0.39464724409E+03  0.72516992579E+03  0.13990807363E+04  0.95000000000E+03 0.  0.
<mgrwt>
<rscale>  0 0.24579523E+04</rscale>
<asrwt>0</asrwt>
<pdfrwt beam="1">  1        2 0.26603235E+00 0.24579523E+04</pdfrwt>
<pdfrwt beam="2">  1       -2 0.13437725E+00 0.24579523E+04</pdfrwt>
<totfact> 0.33755215E+00</totfact>
</mgrwt>
</event>
<event>
 4    1  0.1308745E-008  0.2354176E+04  0.7816531E-02  0.8456861E-01
         -1   -1    0    0    0  501 -0.00000000000E+00  0.00000000000E+00  0.53837784869E+03  0.53837784869E+03  0.00000000000E+00 0.  1.
          1   -1    0    0  501    0  0.00000000000E+00 -0.00000000000E+00 -0.25735383942E+04  0.25735383942E+04  0.00000000000E+00 0. -1.
    2000013    1    1    2    0    0  0.23417982208E+03  0.26136469261E+02 -0.18818783113E+04  0.21211999629E+04  0.95000000000E+03 0.  0.
   -2000013    1    1    2    0    0 -0.23417982208E+03 -0.26136469261E+02 -0.15328223421E+03  0.99071627998E+03  0.95000000000E+03 0.  0.
<mgrwt>
<rscale>  0 0.23541759E+04</rscale>
<asrwt>0</asrwt>
<pdfrwt beam="2">  1        1 0.39592898E+00 0.23541759E+04</pdfrwt>
<pdfrwt beam="1">  1       -1 0.82827362E-01 0.23541759E+04</pdfrwt>
<totfact> 0.15683252E+00</totfact>
</mgrwt>
</event>
<event>
 4    1  0.1308745E-008  0.2971177E+04  0.7816531E-02  0.8252010E-01
          4   -1    0    0  501    0  0.00000000000E+00  0.00000000000E+00  0.17421851685E+04  0.17421851685E+04  0.00000000000E+00 0.  1.
         -4   -1    0    0    0  501 -0.00000000000E+00 -0.00000000000E+00 -0.12667849240E+04  0.12667849240E+04  0.00000000000E+00 0. -1.
    2000013    1    1    2    0    0  0.43270760806E+03 -0.83072935893E+03  0.89956246030E+03  0.16090555496E+04  0.95000000000E+03 0.  0.
   -2000013    1    1    2    0    0 -0.43270760806E+03  0.83072935893E+03 -0.42416221578E+03  0.13999145428E+04  0.95000000000E+03 0.  0.
<mgrwt>
<rscale>  0 0.29711775E+04</rscale>
<asrwt>0</asrwt>
<pdfrwt beam="1">  1        4 0.26802849E+00 0.29711775E+04</pdfrwt>
<pdfrwt beam="2">  1       -4 0.19488999E+00 0.29711775E+04</pdfrwt>
<totfact> 0.11829650E-02</totfact>
</mgrwt>
</event>
<event>
 4    1  0.1308745E-008  0.2128545E+04  0.7816531E-02  0.8548772E-01
          4   -1    0    0  501    0  0.00000000000E+00  0.00000000000E+00  0.14387427213E+04  0.14387427213E+04  0.00000000000E+00 0.  1.
         -4   -1    0    0    0  501 -0.00000000000E+00 -0.00000000000E+00 -0.78726823585E+03  0.78726823585E+03  0.00000000000E+00 0. -1.
    2000013    1    1    2    0    0  0.47335980257E+03 -0.72971564581E+02  0.29649078223E+03  0.11044460765E+04  0.95000000000E+03 0.  0.
   -2000013    1    1    2    0    0 -0.47335980257E+03  0.72971564581E+02  0.35498370319E+03  0.11215648806E+04  0.95000000000E+03 0.  0.
<mgrwt>
<rscale>  0 0.21285455E+04</rscale>
<asrwt>0</asrwt>
<pdfrwt beam="1">  1        4 0.22134503E+00 0.21285455E+04</pdfrwt>
<pdfrwt beam="2">  1       -4 0.12111819E+00 0.21285455E+04</pdfrwt>
<totfact> 0.90938178E-02</totfact>
</mgrwt>
</event>
<event>
 4    1  0.1308745E-008  0.2658353E+04  0.7816531E-02  0.8348646E-01
         -2   -1    0    0    0  501 -0.00000000000E+00  0.00000000000E+00  0.86766028999E+03  0.86766028999E+03  0.00000000000E+00 0. -1.
          2   -1    0    0  501    0  0.00000000000E+00 -0.00000000000E+00 -0.20361775454E+04  0.20361775454E+04  0.00000000000E+00 0.  1.
    2000013    1    1    2    0    0  0.23381262066E+03 -0.83412047026E+03 -0.21578842171E+03  0.13036448686E+04  0.95000000000E+03 0.  0.
   -2000013    1    1    2    0    0 -0.23381262066E+03  0.83412047026E+03 -0.95272883374E+03  0.16001929668E+04  0.95000000000E+03 0.  0.
<mgrwt>
<rscale>  0 0.26583532E+04</rscale>
<asrwt>0</asrwt>
<pdfrwt beam="2">  1        2 0.31325808E+00 0.26583532E+04</pdfrwt>
<pdfrwt beam="1">  1       -2 0.13348620E+00 0.26583532E+04</pdfrwt>
<totfact> 0.22799213E+00</totfact>
</mgrwt>
</event>
<event>
 4    1  0.1308745E-008  0.2318635E+04  0.7816531E-02  0.8470610E-01
         -2   -1    0    0    0  501 -0.00000000000E+00  0.00000000000E+00  0.50138732205E+03  0.50138732205E+03  0.00000000000E+00 0. -1.
          2   -1    0    0  501    0  0.00000000000E+00 -0.00000000000E+00 -0.26805964668E+04  0.26805964668E+04  0.00000000000E+00 0.  1.
    2000013    1    1    2    0    0 -0.49525715668E+03 -0.36189335217E+03 -0.14402147262E+04  0.18311102936E+04  0.95000000000E+03 0.  0.
   -2000013    1    1    2    0    0  0.49525715668E+03  0.36189335217E+03 -0.73899441851E+03  0.13508734953E+04  0.95000000000E+03 0.  0.
<mgrwt>
<rscale>  0 0.23186350E+04</rscale>
<asrwt>0</asrwt>
<pdfrwt beam="2">  1        2 0.41239946E+00 0.23186350E+04</pdfrwt>
<pdfrwt beam="1">  1       -2 0.77136510E-01 0.23186350E+04</pdfrwt>
<totfact> 0.37035262E+00</totfact>
</mgrwt>
</event>
<event>
 4    1  0.1308745E-008  0.2948040E+04  0.7816531E-02  0.8258726E-01
          2   -1    0    0  501    0  0.00000000000E+00  0.00000000000E+00  0.20722501270E+04  0.20722501270E+04  0.00000000000E+00 0.  1.
         -2   -1    0    0    0  501 -0.00000000000E+00 -0.00000000000E+00 -0.10484908734E+04  0.10484908734E+04  0.00000000000E+00 0. -1.
    2000013    1    1    2    0    0  0.50478527503E+03  0.65861808513E+03  0.13192168094E+04  0.18252175065E+04  0.95000000000E+03 0.  0.
   -2000013    1    1    2    0    0 -0.50478527503E+03 -0.65861808513E+03 -0.29545755581E+03  0.12955234939E+04  0.95000000000E+03 0.  0.
<mgrwt>
<rscale>  0 0.29480403E+04</rscale>
<asrwt>0</asrwt>
<pdfrwt beam="1">  1        2 0.31880771E+00 0.29480403E+04</pdfrwt>
<pdfrwt beam="2">  1       -2 0.16130629E+00 0.29480403E+04</pdfrwt>
<totfact> 0.12897547E+00</totfact>
</mgrwt>
</event>
<event>
 4    1  0.1308745E-008  0.2426044E+04  0.7816531E-02  0.8429817E-01
          2   -1    0    0  501    0  0.00000000000E+00  0.00000000000E+00  0.14743851795E+04  0.14743851795E+04  0.00000000000E+00 0.  1.
         -2   -1    0    0    0  501 -0.00000000000E+00 -0.00000000000E+00 -0.99799070438E+03  0.99799070438E+03  0.00000000000E+00 0. -1.
    2000013    1    1    2    0    0 -0.15936980478E+03 -0.70647491742E+03  0.45297591861E+03  0.12775729828E+04  0.95000000000E+03 0.  0.
   -2000013    1    1    2    0    0  0.15936980478E+03  0.70647491742E+03  0.23418556538E+02  0.11948029011E+04  0.95000000000E+03 0.  0.
<mgrwt>
<rscale>  0 0.24260443E+04</rscale>
<asrwt>0</asrwt>
<pdfrwt beam="1">  1        2 0.22682849E+00 0.24260443E+04</pdfrwt>
<pdfrwt beam="2">  1       -2 0.15353703E+00 0.24260443E+04</pdfrwt>
<totfact> 0.33167865E+00</totfact>
</mgrwt>
</event>
<event>
 4    1  0.1308745E-008  0.2615375E+04  0.7816531E-02  0.8362997E-01
          2   -1    0    0  501    0  0.00000000000E+00  0.00000000000E+00  0.38479696169E+04  0.38479696169E+04  0.00000000000E+00 0.  1.
         -2   -1    0    0    0  501 -0.00000000000E+00 -0.00000000000E+00 -0.44440239756E+03  0.44440239756E+03  0.00000000000E+00 0. -1.
    2000013    1    1    2    0    0  0.54196883821E+03  0.65090200392E+03  0.12090297541E+04  0.17554647779E+04  0.95000000000E+03 0.  0.
   -2000013    1    1    2    0    0 -0.54196883821E+03 -0.65090200392E+03  0.21945374652E+04  0.25369072365E+04  0.95000000000E+03 0.  0.
<mgrwt>
<rscale>  0 0.26153752E+04</rscale>
<asrwt>0</asrwt>
<pdfrwt beam="1">  1        2 0.59199530E+00 0.26153752E+04</pdfrwt>
<pdfrwt beam="2">  1       -2 0.68369602E-01 0.26153752E+04</pdfrwt>
<totfact> 0.78145278E-01</totfact>
</mgrwt>
</event>
<event>
 4    1  0.1308745E-008  0.2803784E+04  0.7816531E-02  0.8302095E-01
         -2   -1    0    0    0  501 -0.00000000000E+00  0.00000000000E+00  0.10748248452E+04  0.10748248452E+04  0.00000000000E+00 0. -1.
          2   -1    0    0  501    0  0.00000000000E+00 -0.00000000000E+00 -0.18284845849E+04  0.18284845849E+04  0.00000000000E+00 0.  1.
    2000013    1    1    2    0    0 -0.40630062265E+03  0.66051732857E+03 -0.10802344451E+04  0.16342489999E+04  0.95000000000E+03 0.  0.
   -2000013    1    1    2    0    0  0.40630062265E+03 -0.66051732857E+03  0.32657470542E+03  0.12690604302E+04  0.95000000000E+03 0.  0.
<mgrwt>
<rscale>  0 0.28037836E+04</rscale>
<asrwt>0</asrwt>
<pdfrwt beam="2">  1        2 0.28130532E+00 0.28037836E+04</pdfrwt>
<pdfrwt beam="1">  1       -2 0.16535767E+00 0.28037836E+04</pdfrwt>
<totfact> 0.16659081E+00</totfact>
</mgrwt>
</event>
<event>
 4    1  0.1308745E-008  0.2478299E+04  0.7816531E-02  0.8410758E-01
         -2   -1    0    0    0  501 -0.00000000000E+00  0.00000000000E+00  0.11815568043E+04  0.11815568043E+04  0.00000000000E+00 0. -1.
          2   -1    0    0  501    0  0.00000000000E+00 -0.00000000000E+00 -0.12995491422E+04  0.12995491422E+04  0.00000000000E+00 0.  1.
    2000013    1    1    2    0    0 -0.50434181035E+03  0.46195584637E+03  0.34794583162E+03  0.12212002978E+04  0.95000000000E+03 0.  0.
   -2000013    1    1    2    0    0  0.50434181035E+03 -0.46195584637E+03 -0.46593816959E+03  0.12599056487E+04  0.95000000000E+03 0.  0.
<mgrwt>
<rscale>  0 0.24782987E+04</rscale>
<asrwt>0</asrwt>
<pdfrwt beam="2">  1        2 0.19993064E+00 0.24782987E+04</pdfrwt>
<pdfrwt beam="1">  1       -2 0.18177797E+00 0.24782987E+04</pdfrwt>
<totfact> 0.26054567E+00</totfact>
</mgrwt>
</event>
<event>
 4    1  0.1308745E-008  0.2105217E+04  0.7816531E-02  0.8558949E-01
          2   -1    0    0  501    0  0.00000000000E+00  0.00000000000E+00  0.13169434917E+04  0.13169434917E+04  0.00000000000E+00 0.  1.
         -2   -1    0    0    0  501 -0.00000000000E+00 -0.00000000000E+00 -0.84133057513E+03  0.84133057513E+03  0.00000000000E+00 0. -1.
    2000013    1    1    2    0    0  0.42164812307E+02  0.27852173898E+03  0.60190870230E+03  0.11593732429E+04  0.95000000000E+03 0.  0.
   -2000013    1    1    2    0    0 -0.42164812307E+02 -0.27852173898E+03 -0.12629578575E+03  0.99890082390E+03  0.95000000000E+03 0.  0.
<mgrwt>
<rscale>  0 0.21052172E+04</rscale>
<asrwt>0</asrwt>
<pdfrwt beam="1">  1        2 0.20260669E+00 0.21052172E+04</pdfrwt>
<pdfrwt beam="2">  1       -2 0.12943547E+00 0.21052172E+04</pdfrwt>
<totfact> 0.65376662E+00</totfact>
</mgrwt>
</event>
<event>
 4    1  0.1308745E-008  0.3368375E+04  0.7816531E-02  0.8145712E-01
          2   -1    0    0  501    0  0.00000000000E+00  0.00000000000E+00  0.23806744876E+04  0.23806744876E+04  0.00000000000E+00 0. -1.
         -2   -1    0    0    0  501 -0.00000000000E+00 -0.00000000000E+00 -0.11914635636E+04  0.11914635636E+04  0.00000000000E+00 0.  1.
    2000013    1    1    2    0    0 -0.51498541250E+03 -0.91955422645E+03  0.15567929955E+04  0.21063936909E+04  0.95000000000E+03 0.  0.
   -2000013    1    1    2    0    0  0.51498541250E+03  0.91955422645E+03 -0.36758207145E+03  0.14657443603E+04  0.95000000000E+03 0.  0.
<mgrwt>
<rscale>  0 0.33683746E+04</rscale>
<asrwt>0</asrwt>
<pdfrwt beam="1">  1        2 0.36625761E+00 0.33683746E+04</pdfrwt>
<pdfrwt beam="2">  1       -2 0.18330209E+00 0.33683746E+04</pdfrwt>
<totfact> 0.58284740E-01</totfact>
</mgrwt>
</event>
<event>
 4    1  0.1308745E-008  0.2955353E+04  0.7816531E-02  0.8256596E-01
          1   -1    0    0  501    0  0.00000000000E+00  0.00000000000E+00  0.18497937268E+04  0.18497937268E+04  0.00000000000E+00 0.  1.
         -1   -1    0    0    0  501 -0.00000000000E+00 -0.00000000000E+00 -0.11804169355E+04  0.11804169355E+04  0.00000000000E+00 0. -1.
    2000013    1    1    2    0    0  0.97452199243E+03 -0.76797175110E+02 -0.25023214339E+03  0.13858957556E+04  0.95000000000E+03 0.  0.
   -2000013    1    1    2    0    0 -0.97452199243E+03  0.76797175110E+02  0.91960893466E+03  0.16443149067E+04  0.95000000000E+03 0.  0.
<mgrwt>
<rscale>  0 0.29553530E+04</rscale>
<asrwt>0</asrwt>
<pdfrwt beam="1">  1        1 0.28458365E+00 0.29553530E+04</pdfrwt>
<pdfrwt beam="2">  1       -1 0.18160261E+00 0.29553530E+04</pdfrwt>
<totfact> 0.65253272E-01</totfact>
</mgrwt>
</event>
<event>
 4    1  0.1308745E-008  0.2179901E+04  0.7816531E-02  0.8526841E-01
         -2   -1    0    0    0  501 -0.00000000000E+00  0.00000000000E+00  0.13164989140E+04  0.13164989140E+04  0.00000000000E+00 0. -1.
          2   -1    0    0  501    0  0.00000000000E+00 -0.00000000000E+00 -0.90238747649E+03  0.90238747649E+03  0.00000000000E+00 0.  1.
    2000013    1    1    2    0    0 -0.32970878903E+03 -0.97659645682E+02 -0.20921632955E+03  0.10317542171E+04  0.95000000000E+03 0.  0.
   -2000013    1    1    2    0    0  0.32970878903E+03  0.97659645682E+02  0.62332776710E+03  0.11871321734E+04  0.95000000000E+03 0.  0.
<mgrwt>
<rscale>  0 0.21799010E+04</rscale>
<asrwt>0</asrwt>
<pdfrwt beam="2">  1        2 0.13882884E+00 0.21799010E+04</pdfrwt>
<pdfrwt beam="1">  1       -2 0.20253829E+00 0.21799010E+04</pdfrwt>
<totfact> 0.34222973E+00</totfact>
</mgrwt>
</event>
<event>
 4    1  0.1308745E-008  0.3240075E+04  0.7816531E-02  0.8178313E-01
         -2   -1    0    0    0  501 -0.00000000000E+00  0.00000000000E+00  0.10950527753E+04  0.10950527753E+04  0.00000000000E+00 0. -1.
          2   -1    0    0  501    0  0.00000000000E+00 -0.00000000000E+00 -0.23967082096E+04  0.23967082096E+04  0.00000000000E+00 0.  1.
    2000013    1    1    2    0    0 -0.10233739984E+04 -0.82104240382E+03 -0.62405857266E+03  0.17359015155E+04  0.95000000000E+03 0.  0.
   -2000013    1    1    2    0    0  0.10233739984E+04  0.82104240382E+03 -0.67759686166E+03  0.17558594694E+04  0.95000000000E+03 0.  0.
<mgrwt>
<rscale>  0 0.32400753E+04</rscale>
<asrwt>0</asrwt>
<pdfrwt beam="2">  1        2 0.36872433E+00 0.32400753E+04</pdfrwt>
<pdfrwt beam="1">  1       -2 0.16846966E+00 0.32400753E+04</pdfrwt>
<totfact> 0.73235543E-01</totfact>
</mgrwt>
</event>
<event>
 4    1  0.1308745E-008  0.2120503E+04  0.7816531E-02  0.8552265E-01
          2   -1    0    0  501    0  0.00000000000E+00  0.00000000000E+00  0.48266235214E+03  0.48266235214E+03  0.00000000000E+00 0.  1.
         -2   -1    0    0    0  501 -0.00000000000E+00 -0.00000000000E+00 -0.23290250884E+04  0.23290250884E+04  0.00000000000E+00 0. -1.
    2000013    1    1    2    0    0 -0.44671782637E+03  0.12919393113E+03 -0.82588097032E+03  0.13419490547E+04  0.95000000000E+03 0.  0.
   -2000013    1    1    2    0    0  0.44671782637E+03 -0.12919393113E+03 -0.10204817659E+04  0.14697383858E+04  0.95000000000E+03 0.  0.
<mgrwt>
<rscale>  0 0.21205025E+04</rscale>
<asrwt>0</asrwt>
<pdfrwt beam="1">  1        2 0.74255746E-01 0.21205025E+04</pdfrwt>
<pdfrwt beam="2">  1       -2 0.35831156E+00 0.21205025E+04</pdfrwt>
<totfact> 0.81512774E-01</totfact>
</mgrwt>
</event>
<event>
 4    1  0.1308745E-008  0.2291788E+04  0.7816531E-02  0.8481166E-01
          2   -1    0    0  501    0  0.00000000000E+00  0.00000000000E+00  0.25487185486E+04  0.25487185486E+04  0.00000000000E+00 0.  1.
         -2   -1    0    0    0  501 -0.00000000000E+00 -0.00000000000E+00 -0.51518954905E+03  0.51518954905E+03  0.00000000000E+00 0. -1.
    2000013    1    1    2    0    0  0.59270124428E+03  0.71005458064E+02  0.70541542198E+03  0.13253103250E+04  0.95000000000E+03 0.  0.
   -2000013    1    1    2    0    0 -0.59270124428E+03 -0.71005458064E+02  0.13281135775E+04  0.17385977726E+04  0.95000000000E+03 0.  0.
<mgrwt>
<rscale>  0 0.22917881E+04</rscale>
<asrwt>0</asrwt>
<pdfrwt beam="1">  1        2 0.39211054E+00 0.22917881E+04</pdfrwt>
<pdfrwt beam="2">  1       -2 0.79259932E-01 0.22917881E+04</pdfrwt>
<totfact> 0.41761179E+00</totfact>
</mgrwt>
</event>
<event>
 4    1  0.1308745E-008  0.2050180E+04  0.7816531E-02  0.8583513E-01
          2   -1    0    0  501    0  0.00000000000E+00  0.00000000000E+00  0.10167173276E+04  0.10167173276E+04  0.00000000000E+00 0. -1.
         -2   -1    0    0    0  501 -0.00000000000E+00 -0.00000000000E+00 -0.10335314508E+04  0.10335314508E+04  0.00000000000E+00 0.  1.
    2000013    1    1    2    0    0 -0.17510903798E+03 -0.34284640981E+03 -0.18531571024E+02  0.10252074205E+04  0.95000000000E+03 0.  0.
   -2000013    1    1    2    0    0  0.17510903798E+03  0.34284640981E+03  0.17174478338E+01  0.10250413580E+04  0.95000000000E+03 0.  0.
<mgrwt>
<rscale>  0 0.20501798E+04</rscale>
<asrwt>0</asrwt>
<pdfrwt beam="1">  1        2 0.15641805E+00 0.20501798E+04</pdfrwt>
<pdfrwt beam="2">  1       -2 0.15900484E+00 0.20501798E+04</pdfrwt>
<totfact> 0.58250230E+00</totfact>
</mgrwt>
</event>
<event>
 4    1  0.1308745E-008  0.2927108E+04  0.7816531E-02  0.8264857E-01
          2   -1    0    0  501    0  0.00000000000E+00  0.00000000000E+00  0.22169275442E+04  0.22169275442E+04  0.00000000000E+00 0.  1.
         -2   -1    0    0    0  501 -0.00000000000E+00 -0.00000000000E+00 -0.96619787620E+03  0.96619787620E+03  0.00000000000E+00 0. -1.
    2000013    1    1    2    0    0 -0.54532458202E+03 -0.13515831989E+03 -0.41987100121E+03  0.11808633828E+04  0.95000000000E+03 0.  0.
   -2000013    1    1    2    0    0  0.54532458202E+03  0.13515831989E+03  0.16706006692E+04  0.20022620375E+04  0.95000000000E+03 0.  0.
<mgrwt>
<rscale>  0 0.29271083E+04</rscale>
<asrwt>0</asrwt>
<pdfrwt beam="1">  1        2 0.34106577E+00 0.29271083E+04</pdfrwt>
<pdfrwt beam="2">  1       -2 0.14864583E+00 0.29271083E+04</pdfrwt>
<totfact> 0.13350651E+00</totfact>
</mgrwt>
</event>
<event>
 4    1  0.1308745E-008  0.2276630E+04  0.7816531E-02  0.8487193E-01
         -2   -1    0    0    0  501 -0.00000000000E+00  0.00000000000E+00  0.62023081257E+03  0.62023081257E+03  0.00000000000E+00 0. -1.
          2   -1    0    0  501    0  0.00000000000E+00 -0.00000000000E+00 -0.20891586177E+04  0.20891586177E+04  0.00000000000E+00 0.  1.
    2000013    1    1    2    0    0  0.41942915275E+03 -0.45307929999E+03 -0.86515095444E+03  0.14255482595E+04  0.95000000000E+03 0.  0.
   -2000013    1    1    2    0    0 -0.41942915275E+03  0.45307929999E+03 -0.60377685068E+03  0.12838411707E+04  0.95000000000E+03 0.  0.
<mgrwt>
<rscale>  0 0.22766296E+04</rscale>
<asrwt>0</asrwt>
<pdfrwt beam="2">  1        2 0.32140901E+00 0.22766296E+04</pdfrwt>
<pdfrwt beam="1">  1       -2 0.95420127E-01 0.22766296E+04</pdfrwt>
<totfact> 0.49919605E+00</totfact>
</mgrwt>
</event>
<event>
 4    1  0.1308745E-008  0.2320346E+04  0.7816531E-02  0.8469942E-01
         -2   -1    0    0    0  501 -0.00000000000E+00  0.00000000000E+00  0.76458890688E+03  0.76458890688E+03  0.00000000000E+00 0. -1.
          2   -1    0    0  501    0  0.00000000000E+00 -0.00000000000E+00 -0.17604249122E+04  0.17604249122E+04  0.00000000000E+00 0.  1.
    2000013    1    1    2    0    0  0.11040593784E+03 -0.64443466184E+03 -0.36020147147E+03  0.12081931156E+04  0.95000000000E+03 0.  0.
   -2000013    1    1    2    0    0 -0.11040593784E+03  0.64443466184E+03 -0.63563453381E+03  0.13168207035E+04  0.95000000000E+03 0.  0.
<mgrwt>
<rscale>  0 0.23203460E+04</rscale>
<asrwt>0</asrwt>
<pdfrwt beam="2">  1        2 0.27083459E+00 0.23203460E+04</pdfrwt>
<pdfrwt beam="1">  1       -2 0.11762907E+00 0.23203460E+04</pdfrwt>
<totfact> 0.45837098E+00</totfact>
</mgrwt>
</event>
<event>
 4    1  0.1308745E-008  0.2481541E+04  0.7816531E-02  0.8409591E-01
         -1   -1    0    0    0  501 -0.00000000000E+00  0.00000000000E+00  0.15334126155E+04  0.15334126155E+04  0.00000000000E+00 0. -1.
          1   -1    0    0  501    0  0.00000000000E+00 -0.00000000000E+00 -0.10039771380E+04  0.10039771380E+04  0.00000000000E+00 0.  1.
    2000013    1    1    2    0    0  0.42689828155E+03  0.61104668294E+03 -0.26994061510E+02  0.12078281628E+04  0.95000000000E+03 0.  0.
   -2000013    1    1    2    0    0 -0.42689828155E+03 -0.61104668294E+03  0.55642953897E+03  0.13295615907E+04  0.95000000000E+03 0.  0.
<mgrwt>
<rscale>  0 0.24815408E+04</rscale>
<asrwt>0</asrwt>
<pdfrwt beam="2">  1        1 0.15445802E+00 0.24815408E+04</pdfrwt>
<pdfrwt beam="1">  1       -1 0.23590963E+00 0.24815408E+04</pdfrwt>
<totfact> 0.11530975E+00</totfact>
</mgrwt>
</event>
<event>
 4    1  0.1308745E-008  0.2869862E+04  0.7816531E-02  0.8281901E-01
          2   -1    0    0  501    0  0.00000000000E+00  0.00000000000E+00  0.15471149829E+04  0.15471149829E+04  0.00000000000E+00 0.  1.
         -2   -1    0    0    0  501 -0.00000000000E+00 -0.00000000000E+00 -0.13308815247E+04  0.13308815247E+04  0.00000000000E+00 0. -1.
    2000013    1    1    2    0    0 -0.17860311334E+03 -0.10604593827E+04  0.10077663487E+03  0.14384467681E+04  0.95000000000E+03 0.  0.
   -2000013    1    1    2    0    0  0.17860311334E+03  0.10604593827E+04  0.11545682325E+03  0.14395497395E+04  0.95000000000E+03 0.  0.
<mgrwt>
<rscale>  0 0.28698618E+04</rscale>
<asrwt>0</asrwt>
<pdfrwt beam="1">  1        2 0.23801769E+00 0.28698618E+04</pdfrwt>
<pdfrwt beam="2">  1       -2 0.20475100E+00 0.28698618E+04</pdfrwt>
<totfact> 0.12793209E+00</totfact>
</mgrwt>
</event>
<event>
 4    1  0.1308745E-008  0.2375746E+04  0.7816531E-02  0.8448640E-01
         -2   -1    0    0    0  501 -0.00000000000E+00  0.00000000000E+00  0.99120260006E+03  0.99120260006E+03  0.00000000000E+00 0. -1.
          2   -1    0    0  501    0  0.00000000000E+00 -0.00000000000E+00 -0.14235656656E+04  0.14235656656E+04  0.00000000000E+00 0.  1.
    2000013    1    1    2    0    0  0.36427080461E+03  0.55177744796E+03 -0.48776007797E+03  0.12560101372E+04  0.95000000000E+03 0.  0.
   -2000013    1    1    2    0    0 -0.36427080461E+03 -0.55177744796E+03  0.55397012447E+02  0.11587581284E+04  0.95000000000E+03 0.  0.
<mgrwt>
<rscale>  0 0.23757458E+04</rscale>
<asrwt>0</asrwt>
<pdfrwt beam="2">  1        2 0.21901010E+00 0.23757458E+04</pdfrwt>
<pdfrwt beam="1">  1       -2 0.15249271E+00 0.23757458E+04</pdfrwt>
<totfact> 0.36252206E+00</totfact>
</mgrwt>
</event>
<event>
 4    1  0.1308745E-008  0.2228592E+04  0.7816531E-02  0.8506621E-01
         -2   -1    0    0    0  501 -0.00000000000E+00  0.00000000000E+00  0.46861305223E+03  0.46861305223E+03  0.00000000000E+00 0. -1.
          2   -1    0    0  501    0  0.00000000000E+00 -0.00000000000E+00 -0.26496391697E+04  0.26496391697E+04  0.00000000000E+00 0.  1.
    2000013    1    1    2    0    0 -0.57163645847E+02  0.29364309397E+03 -0.17896407717E+04  0.20481230531E+04  0.95000000000E+03 0.  0.
   -2000013    1    1    2    0    0  0.57163645847E+02 -0.29364309397E+03 -0.39138534579E+03  0.10701291688E+04  0.95000000000E+03 0.  0.
<mgrwt>
<rscale>  0 0.22285919E+04</rscale>
<asrwt>0</asrwt>
<pdfrwt beam="2">  1        2 0.40763679E+00 0.22285919E+04</pdfrwt>
<pdfrwt beam="1">  1       -2 0.72094316E-01 0.22285919E+04</pdfrwt>
<totfact> 0.45216636E+00</totfact>
</mgrwt>
</event>
<event>
 4    1  0.1308745E-008  0.4568541E+04  0.7816531E-02  0.7898746E-01
          2   -1    0    0  501    0  0.00000000000E+00  0.00000000000E+00  0.24921607173E+04  0.24921607173E+04  0.00000000000E+00 0.  1.
         -2   -1    0    0    0  501 -0.00000000000E+00 -0.00000000000E+00 -0.20937219291E+04  0.20937219291E+04  0.00000000000E+00 0. -1.
    2000013    1    1    2    0    0  0.10308243237E+04 -0.16823388487E+04  0.85170893267E+03  0.23496320764E+04  0.95000000000E+03 0.  0.
   -2000013    1    1    2    0    0 -0.10308243237E+04  0.16823388487E+04 -0.45327014443E+03  0.22362505701E+04  0.95000000000E+03 0.  0.
<mgrwt>
<rscale>  0 0.45685409E+04</rscale>
<asrwt>0</asrwt>
<pdfrwt beam="1">  1        2 0.38340934E+00 0.45685409E+04</pdfrwt>
<pdfrwt beam="2">  1       -2 0.32211107E+00 0.45685409E+04</pdfrwt>
<totfact> 0.61589689E-02</totfact>
</mgrwt>
</event>
<event>
 4    1  0.1308745E-008  0.2784219E+04  0.7816531E-02  0.8308185E-01
          2   -1    0    0  501    0  0.00000000000E+00  0.00000000000E+00  0.31944773626E+04  0.31944773626E+04  0.00000000000E+00 0.  1.
         -2   -1    0    0    0  501 -0.00000000000E+00 -0.00000000000E+00 -0.60666213171E+03  0.60666213171E+03  0.00000000000E+00 0. -1.
    2000013    1    1    2    0    0  0.91159211097E+03  0.44336059167E+03  0.11725646688E+04  0.18179594862E+04  0.95000000000E+03 0.  0.
   -2000013    1    1    2    0    0 -0.91159211097E+03 -0.44336059167E+03  0.14152505621E+04  0.19831800081E+04  0.95000000000E+03 0.  0.
<mgrwt>
<rscale>  0 0.27842187E+04</rscale>
<asrwt>0</asrwt>
<pdfrwt beam="1">  1        2 0.49145804E+00 0.27842187E+04</pdfrwt>
<pdfrwt beam="2">  1       -2 0.93332638E-01 0.27842187E+04</pdfrwt>
<totfact> 0.11062224E+00</totfact>
</mgrwt>
</event>
<event>
 4    1  0.1308745E-008  0.3078942E+04  0.7816531E-02  0.8221541E-01
         -2   -1    0    0    0  501 -0.00000000000E+00  0.00000000000E+00  0.22905002070E+04  0.22905002070E+04  0.00000000000E+00 0.  1.
          2   -1    0    0  501    0  0.00000000000E+00 -0.00000000000E+00 -0.10346959171E+04  0.10346959171E+04  0.00000000000E+00 0. -1.
    2000013    1    1    2    0    0  0.31947577702E+03 -0.10555670143E+04  0.11691701320E+04  0.18670150753E+04  0.95000000000E+03 0.  0.
   -2000013    1    1    2    0    0 -0.31947577702E+03  0.10555670143E+04  0.86634157882E+02  0.14581810488E+04  0.95000000000E+03 0.  0.
<mgrwt>
<rscale>  0 0.30789422E+04</rscale>
<asrwt>0</asrwt>
<pdfrwt beam="2">  1        2 0.15918399E+00 0.30789422E+04</pdfrwt>
<pdfrwt beam="1">  1       -2 0.35238465E+00 0.30789422E+04</pdfrwt>
<totfact> 0.30582032E-01</totfact>
</mgrwt>
</event>
<event>
 4    1  0.1308745E-008  0.3488107E+04  0.7816531E-02  0.8116614E-01
         -1   -1    0    0    0  501 -0.00000000000E+00  0.00000000000E+00  0.10669965685E+04  0.10669965685E+04  0.00000000000E+00 0.  1.
          1   -1    0    0  501    0  0.00000000000E+00 -0.00000000000E+00 -0.28507336576E+04  0.28507336576E+04  0.00000000000E+00 0. -1.
    2000013    1    1    2    0    0  0.38709021897E+03  0.14090467282E+04 -0.96265050048E+03  0.19910920385E+04  0.95000000000E+03 0.  0.
   -2000013    1    1    2    0    0 -0.38709021897E+03 -0.14090467282E+04 -0.82108658858E+03  0.19266381876E+04  0.95000000000E+03 0.  0.
<mgrwt>
<rscale>  0 0.34881072E+04</rscale>
<asrwt>0</asrwt>
<pdfrwt beam="2">  1        1 0.43857440E+00 0.34881072E+04</pdfrwt>
<pdfrwt beam="1">  1       -1 0.16415332E+00 0.34881072E+04</pdfrwt>
<totfact> 0.17013149E-01</totfact>
</mgrwt>
</event>
<event>
 4    1  0.1308745E-008  0.2569023E+04  0.7816531E-02  0.8378800E-01
         -2   -1    0    0    0  501 -0.00000000000E+00  0.00000000000E+00  0.51389896833E+03  0.51389896833E+03  0.00000000000E+00 0. -1.
          2   -1    0    0  501    0  0.00000000000E+00 -0.00000000000E+00 -0.32106881331E+04  0.32106881331E+04  0.00000000000E+00 0.  1.
    2000013    1    1    2    0    0  0.51848125978E+03  0.66554385222E+03 -0.10744697292E+04  0.16639581230E+04  0.95000000000E+03 0.  0.
   -2000013    1    1    2    0    0 -0.51848125978E+03 -0.66554385222E+03 -0.16223194356E+04  0.20606289785E+04  0.95000000000E+03 0.  0.
<mgrwt>
<rscale>  0 0.25690226E+04</rscale>
<asrwt>0</asrwt>
<pdfrwt beam="2">  1        2 0.49395202E+00 0.25690226E+04</pdfrwt>
<pdfrwt beam="1">  1       -2 0.79061380E-01 0.25690226E+04</pdfrwt>
<totfact> 0.16067643E+00</totfact>
</mgrwt>
</event>
<event>
 4    1  0.1308745E-008  0.2593478E+04  0.7816531E-02  0.8370420E-01
         -2   -1    0    0    0  501 -0.00000000000E+00  0.00000000000E+00  0.10043686376E+04  0.10043686376E+04  0.00000000000E+00 0. -1.
          2   -1    0    0  501    0  0.00000000000E+00 -0.00000000000E+00 -0.16742183202E+04  0.16742183202E+04  0.00000000000E+00 0.  1.
    2000013    1    1    2    0    0 -0.27812750061E+03 -0.82665682955E+03 -0.47470254331E+03  0.13742484947E+04  0.95000000000E+03 0.  0.
   -2000013    1    1    2    0    0  0.27812750061E+03  0.82665682955E+03 -0.19514713922E+03  0.13043384631E+04  0.95000000000E+03 0.  0.
<mgrwt>
<rscale>  0 0.25934783E+04</rscale>
<asrwt>0</asrwt>
<pdfrwt beam="2">  1        2 0.25757205E+00 0.25934783E+04</pdfrwt>
<pdfrwt beam="1">  1       -2 0.15451825E+00 0.25934783E+04</pdfrwt>
<totfact> 0.24838830E+00</totfact>
</mgrwt>
</event>
<event>
 4    1  0.1308745E-008  0.2469975E+04  0.7816531E-02  0.8413761E-01
         -2   -1    0    0    0  501 -0.00000000000E+00  0.00000000000E+00  0.54681927922E+03  0.54681927922E+03  0.00000000000E+00 0. -1.
          2   -1    0    0  501    0  0.00000000000E+00 -0.00000000000E+00 -0.27892111916E+04  0.27892111916E+04  0.00000000000E+00 0.  1.
    2000013    1    1    2    0    0 -0.46566969593E+02 -0.70671431215E+03 -0.15911713691E+04  0.19839203431E+04  0.95000000000E+03 0.  0.
   -2000013    1    1    2    0    0  0.46566969593E+02  0.70671431215E+03 -0.65122054325E+03  0.13521101278E+04  0.95000000000E+03 0.  0.
<mgrwt>
<rscale>  0 0.24699753E+04</rscale>
<asrwt>0</asrwt>
<pdfrwt beam="2">  1        2 0.42910942E+00 0.24699753E+04</pdfrwt>
<pdfrwt beam="1">  1       -2 0.84126041E-01 0.24699753E+04</pdfrwt>
<totfact> 0.25890649E+00</totfact>
</mgrwt>
</event>
<event>
 4    1  0.1308745E-008  0.2493051E+04  0.7816531E-02  0.8405465E-01
          2   -1    0    0  501    0  0.00000000000E+00  0.00000000000E+00  0.24985833641E+04  0.24985833641E+04  0.00000000000E+00 0.  1.
         -2   -1    0    0    0  501 -0.00000000000E+00 -0.00000000000E+00 -0.62188279786E+03  0.62188279786E+03  0.00000000000E+00 0. -1.
    2000013    1    1    2    0    0 -0.67569604627E+03  0.43948171536E+03  0.88802324119E+03  0.15299655558E+04  0.95000000000E+03 0.  0.
   -2000013    1    1    2    0    0  0.67569604627E+03 -0.43948171536E+03  0.98867732505E+03  0.15905006061E+04  0.95000000000E+03 0.  0.
<mgrwt>
<rscale>  0 0.24930512E+04</rscale>
<asrwt>0</asrwt>
<pdfrwt beam="1">  1        2 0.38439744E+00 0.24930512E+04</pdfrwt>
<pdfrwt beam="2">  1       -2 0.95674278E-01 0.24930512E+04</pdfrwt>
<totfact> 0.28526605E+00</totfact>
</mgrwt>
</event>
<event>
 4    1  0.1308745E-008  0.2587227E+04  0.7816531E-02  0.8372553E-01
         -1   -1    0    0    0  501 -0.00000000000E+00  0.00000000000E+00  0.89376265314E+03  0.89376265314E+03  0.00000000000E+00 0. -1.
          1   -1    0    0  501    0  0.00000000000E+00 -0.00000000000E+00 -0.18723500267E+04  0.18723500267E+04  0.00000000000E+00 0.  1.
    2000013    1    1    2    0    0  0.91083012097E+02  0.64704323650E+03 -0.11163390795E+04  0.16048906521E+04  0.95000000000E+03 0.  0.
   -2000013    1    1    2    0    0 -0.91083012097E+02 -0.64704323650E+03  0.13775170596E+03  0.11612220276E+04  0.95000000000E+03 0.  0.
<mgrwt>
<rscale>  0 0.25872275E+04</rscale>
<asrwt>0</asrwt>
<pdfrwt beam="2">  1        1 0.28805385E+00 0.25872275E+04</pdfrwt>
<pdfrwt beam="1">  1       -1 0.13750195E+00 0.25872275E+04</pdfrwt>
<totfact> 0.14090807E+00</totfact>
</mgrwt>
</event>
<event>
 4    1  0.1308745E-008  0.2369043E+04  0.7816531E-02  0.8451185E-01
         -2   -1    0    0    0  501 -0.00000000000E+00  0.00000000000E+00  0.12377872554E+04  0.12377872554E+04  0.00000000000E+00 0. -1.
          2   -1    0    0  501    0  0.00000000000E+00 -0.00000000000E+00 -0.11335479424E+04  0.11335479424E+04  0.00000000000E+00 0.  1.
    2000013    1    1    2    0    0 -0.16752318077E+03  0.61865617556E+03 -0.24782293525E+03  0.11724827022E+04  0.95000000000E+03 0.  0.
   -2000013    1    1    2    0    0  0.16752318077E+03 -0.61865617556E+03  0.35206224826E+03  0.11988524956E+04  0.95000000000E+03 0.  0.
<mgrwt>
<rscale>  0 0.23690430E+04</rscale>
<asrwt>0</asrwt>
<pdfrwt beam="2">  1        2 0.17439199E+00 0.23690430E+04</pdfrwt>
<pdfrwt beam="1">  1       -2 0.19042881E+00 0.23690430E+04</pdfrwt>
<totfact> 0.28837941E+00</totfact>
</mgrwt>
</event>
<event>
 4    1  0.1308745E-008  0.2242963E+04  0.7816531E-02  0.8500756E-01
          1   -1    0    0  501    0  0.00000000000E+00  0.00000000000E+00  0.16203872682E+04  0.16203872682E+04  0.00000000000E+00 0.  1.
         -1   -1    0    0    0  501 -0.00000000000E+00 -0.00000000000E+00 -0.77618561082E+03  0.77618561082E+03  0.00000000000E+00 0. -1.
    2000013    1    1    2    0    0  0.78260526380E+02  0.58199629113E+03  0.53094420839E+03  0.12366269224E+04  0.95000000000E+03 0.  0.
   -2000013    1    1    2    0    0 -0.78260526380E+02 -0.58199629113E+03  0.31325744901E+03  0.11599459566E+04  0.95000000000E+03 0.  0.
<mgrwt>
<rscale>  0 0.22429635E+04</rscale>
<asrwt>0</asrwt>
<pdfrwt beam="1">  1        1 0.24929035E+00 0.22429635E+04</pdfrwt>
<pdfrwt beam="2">  1       -1 0.11941317E+00 0.22429635E+04</pdfrwt>
<totfact> 0.30749484E+00</totfact>
</mgrwt>
</event>
<event>
 4    1  0.1308745E-008  0.2633639E+04  0.7816531E-02  0.8356864E-01
          2   -1    0    0  501    0  0.00000000000E+00  0.00000000000E+00  0.15917950863E+04  0.15917950863E+04  0.00000000000E+00 0.  1.
         -2   -1    0    0    0  501 -0.00000000000E+00 -0.00000000000E+00 -0.10893450731E+04  0.10893450731E+04  0.00000000000E+00 0. -1.
    2000013    1    1    2    0    0 -0.28091695712E+03  0.68992635241E+03  0.78663985718E+03  0.14409076908E+04  0.95000000000E+03 0.  0.
   -2000013    1    1    2    0    0  0.28091695712E+03 -0.68992635241E+03 -0.28418984398E+03  0.12402324685E+04  0.95000000000E+03 0.  0.
<mgrwt>
<rscale>  0 0.26336394E+04</rscale>
<asrwt>0</asrwt>
<pdfrwt beam="1">  1        2 0.24489155E+00 0.26336394E+04</pdfrwt>
<pdfrwt beam="2">  1       -2 0.16759155E+00 0.26336394E+04</pdfrwt>
<totfact> 0.22050313E+00</totfact>
</mgrwt>
</event>
<event>
 4    1  0.1308745E-008  0.3203575E+04  0.7816531E-02  0.8187874E-01
          2   -1    0    0  501    0  0.00000000000E+00  0.00000000000E+00  0.37347749072E+04  0.37347749072E+04  0.00000000000E+00 0.  1.
         -2   -1    0    0    0  501 -0.00000000000E+00 -0.00000000000E+00 -0.68698216014E+03  0.68698216014E+03  0.00000000000E+00 0. -1.
    2000013    1    1    2    0    0  0.52764076405E+02  0.11293949067E+04  0.66757310277E+03  0.16206389945E+04  0.95000000000E+03 0.  0.
   -2000013    1    1    2    0    0 -0.52764076405E+02 -0.11293949067E+04  0.23802196442E+04  0.28011180728E+04  0.95000000000E+03 0.  0.
<mgrwt>
<rscale>  0 0.32035753E+04</rscale>
<asrwt>0</asrwt>
<pdfrwt beam="1">  1        2 0.57458074E+00 0.32035753E+04</pdfrwt>
<pdfrwt beam="2">  1       -2 0.10568957E+00 0.32035753E+04</pdfrwt>
<totfact> 0.33451922E-01</totfact>
</mgrwt>
</event>
<event>
 4    1  0.1308745E-008  0.2624094E+04  0.7816531E-02  0.8360063E-01
          2   -1    0    0  501    0  0.00000000000E+00  0.00000000000E+00  0.10713865126E+04  0.10713865126E+04  0.00000000000E+00 0.  1.
         -2   -1    0    0    0  501 -0.00000000000E+00 -0.00000000000E+00 -0.16067661138E+04  0.16067661138E+04  0.00000000000E+00 0. -1.
    2000013    1    1    2    0    0  0.71500456064E+03  0.53049713940E+03 -0.43323114678E+03  0.13721690724E+04  0.95000000000E+03 0.  0.
   -2000013    1    1    2    0    0 -0.71500456064E+03 -0.53049713940E+03 -0.10214845438E+03  0.13059835540E+04  0.95000000000E+03 0.  0.
<mgrwt>
<rscale>  0 0.26240942E+04</rscale>
<asrwt>0</asrwt>
<pdfrwt beam="1">  1        2 0.16482869E+00 0.26240942E+04</pdfrwt>
<pdfrwt beam="2">  1       -2 0.24719479E+00 0.26240942E+04</pdfrwt>
<totfact> 0.13397519E+00</totfact>
</mgrwt>
</event>
<event>
 4    1  0.1308745E-008  0.2545716E+04  0.7816531E-02  0.8386878E-01
         -2   -1    0    0    0  501 -0.00000000000E+00  0.00000000000E+00  0.11594432922E+04  0.11594432922E+04  0.00000000000E+00 0. -1.
          2   -1    0    0  501    0  0.00000000000E+00 -0.00000000000E+00 -0.13973665308E+04  0.13973665308E+04  0.00000000000E+00 0.  1.
    2000013    1    1    2    0    0  0.27566653799E+03  0.79561826225E+03 -0.25460312537E+02  0.12697041730E+04  0.95000000000E+03 0.  0.
   -2000013    1    1    2    0    0 -0.27566653799E+03 -0.79561826225E+03 -0.21246292607E+03  0.12871056500E+04  0.95000000000E+03 0.  0.
<mgrwt>
<rscale>  0 0.25457158E+04</rscale>
<asrwt>0</asrwt>
<pdfrwt beam="2">  1        2 0.21497947E+00 0.25457158E+04</pdfrwt>
<pdfrwt beam="1">  1       -2 0.17837589E+00 0.25457158E+04</pdfrwt>
<totfact> 0.24012760E+00</totfact>
</mgrwt>
</event>
<event>
 4    1  0.1308745E-008  0.2442269E+04  0.7816531E-02  0.8423846E-01
         -2   -1    0    0    0  501 -0.00000000000E+00  0.00000000000E+00  0.56118812147E+03  0.56118812147E+03  0.00000000000E+00 0. -1.
          2   -1    0    0  501    0  0.00000000000E+00 -0.00000000000E+00 -0.26571652553E+04  0.26571652553E+04  0.00000000000E+00 0.  1.
    2000013    1    1    2    0    0 -0.12290859450E+03 -0.72506799416E+03 -0.75976243976E+03  0.14214672292E+04  0.95000000000E+03 0.  0.
   -2000013    1    1    2    0    0  0.12290859450E+03  0.72506799416E+03 -0.13362146941E+04  0.17968861476E+04  0.95000000000E+03 0.  0.
<mgrwt>
<rscale>  0 0.24422691E+04</rscale>
<asrwt>0</asrwt>
<pdfrwt beam="2">  1        2 0.40879467E+00 0.24422691E+04</pdfrwt>
<pdfrwt beam="1">  1       -2 0.86336632E-01 0.24422691E+04</pdfrwt>
<totfact> 0.29337394E+00</totfact>
</mgrwt>
</event>
<event>
 4    1  0.1308745E-008  0.2031584E+04  0.7816531E-02  0.8591995E-01
          2   -1    0    0  501    0  0.00000000000E+00  0.00000000000E+00  0.32101055081E+04  0.32101055081E+04  0.00000000000E+00 0.  1.
         -2   -1    0    0    0  501 -0.00000000000E+00 -0.00000000000E+00 -0.32143297529E+03  0.32143297529E+03  0.00000000000E+00 0. -1.
    2000013    1    1    2    0    0  0.26348397481E+03  0.16490726305E+03  0.17587534115E+04  0.20229512532E+04  0.95000000000E+03 0.  0.
   -2000013    1    1    2    0    0 -0.26348397481E+03 -0.16490726305E+03  0.11299191213E+04  0.15085872302E+04  0.95000000000E+03 0.  0.
<mgrwt>
<rscale>  0 0.20315844E+04</rscale>
<asrwt>0</asrwt>
<pdfrwt beam="1">  1        2 0.49386236E+00 0.20315844E+04</pdfrwt>
<pdfrwt beam="2">  1       -2 0.49451229E-01 0.20315844E+04</pdfrwt>
<totfact> 0.45961110E+00</totfact>
</mgrwt>
</event>
<event>
 4    1  0.1308745E-008  0.2449141E+04  0.7816531E-02  0.8421332E-01
          2   -1    0    0  501    0  0.00000000000E+00  0.00000000000E+00  0.92334060025E+03  0.92334060025E+03  0.00000000000E+00 0.  1.
         -2   -1    0    0    0  501 -0.00000000000E+00 -0.00000000000E+00 -0.16240735443E+04  0.16240735443E+04  0.00000000000E+00 0. -1.
    2000013    1    1    2    0    0 -0.47088624420E+03 -0.48059989930E+03  0.44830475658E+02  0.11649978067E+04  0.95000000000E+03 0.  0.
   -2000013    1    1    2    0    0  0.47088624420E+03  0.48059989930E+03 -0.74556341971E+03  0.13824163378E+04  0.95000000000E+03 0.  0.
<mgrwt>
<rscale>  0 0.24491411E+04</rscale>
<asrwt>0</asrwt>
<pdfrwt beam="1">  1        2 0.14205240E+00 0.24491411E+04</pdfrwt>
<pdfrwt beam="2">  1       -2 0.24985747E+00 0.24491411E+04</pdfrwt>
<totfact> 0.16306590E+00</totfact>
</mgrwt>
</event>
<event>
 4    1  0.1308745E-008  0.2391412E+04  0.7816531E-02  0.8442726E-01
         -2   -1    0    0    0  501 -0.00000000000E+00  0.00000000000E+00  0.18572275887E+04  0.18572275887E+04  0.00000000000E+00 0. -1.
          2   -1    0    0  501    0  0.00000000000E+00 -0.00000000000E+00 -0.76981007386E+03  0.76981007386E+03  0.00000000000E+00 0.  1.
    2000013    1    1    2    0    0 -0.24910463790E+03 -0.68016590100E+03  0.59900459353E+03  0.13364076012E+04  0.95000000000E+03 0.  0.
   -2000013    1    1    2    0    0  0.24910463790E+03  0.68016590100E+03  0.48841292127E+03  0.12906300613E+04  0.95000000000E+03 0.  0.
<mgrwt>
<rscale>  0 0.23914117E+04</rscale>
<asrwt>0</asrwt>
<pdfrwt beam="2">  1        2 0.11843232E+00 0.23914117E+04</pdfrwt>
<pdfrwt beam="1">  1       -2 0.28572732E+00 0.23914117E+04</pdfrwt>
<totfact> 0.12674700E+00</totfact>
</mgrwt>
</event>
<event>
 4    1  0.1308745E-008  0.2368284E+04  0.7816531E-02  0.8451474E-01
         -2   -1    0    0    0  501 -0.00000000000E+00  0.00000000000E+00  0.10909494540E+04  0.10909494540E+04  0.00000000000E+00 0. -1.
          2   -1    0    0  501    0  0.00000000000E+00 -0.00000000000E+00 -0.12852957447E+04  0.12852957447E+04  0.00000000000E+00 0.  1.
    2000013    1    1    2    0    0  0.66326843955E+03  0.22283702805E+03  0.37199590997E+01  0.11798708413E+04  0.95000000000E+03 0.  0.
   -2000013    1    1    2    0    0 -0.66326843955E+03 -0.22283702805E+03 -0.19806624979E+03  0.11963743575E+04  0.95000000000E+03 0.  0.
<mgrwt>
<rscale>  0 0.23682844E+04</rscale>
<asrwt>0</asrwt>
<pdfrwt beam="2">  1        2 0.19773781E+00 0.23682844E+04</pdfrwt>
<pdfrwt beam="1">  1       -2 0.16783838E+00 0.23682844E+04</pdfrwt>
<totfact> 0.33577602E+00</totfact>
</mgrwt>
</event>
<event>
 4    1  0.1308745E-008  0.2199051E+04  0.7816531E-02  0.8518823E-01
         -2   -1    0    0    0  501 -0.00000000000E+00  0.00000000000E+00  0.37732778617E+03  0.37732778617E+03  0.00000000000E+00 0. -1.
          2   -1    0    0  501    0  0.00000000000E+00 -0.00000000000E+00 -0.32039955291E+04  0.32039955291E+04  0.00000000000E+00 0.  1.
    2000013    1    1    2    0    0 -0.17558293870E+03  0.36592415933E+03 -0.20264376583E+04  0.22745723646E+04  0.95000000000E+03 0.  0.
   -2000013    1    1    2    0    0  0.17558293870E+03 -0.36592415933E+03 -0.80023008459E+03  0.13067509507E+04  0.95000000000E+03 0.  0.
<mgrwt>
<rscale>  0 0.21990512E+04</rscale>
<asrwt>0</asrwt>
<pdfrwt beam="2">  1        2 0.49292238E+00 0.21990512E+04</pdfrwt>
<pdfrwt beam="1">  1       -2 0.58050429E-01 0.21990512E+04</pdfrwt>
<totfact> 0.32786097E+00</totfact>
</mgrwt>
</event>
<event>
 4    1  0.1308745E-008  0.2300082E+04  0.7816531E-02  0.8477889E-01
         -2   -1    0    0    0  501 -0.00000000000E+00  0.00000000000E+00  0.72883037847E+03  0.72883037847E+03  0.00000000000E+00 0. -1.
          2   -1    0    0  501    0  0.00000000000E+00 -0.00000000000E+00 -0.18146807873E+04  0.18146807873E+04  0.00000000000E+00 0.  1.
    2000013    1    1    2    0    0  0.46311944423E+03  0.20796205441E+03 -0.98851856728E+03  0.14619838554E+04  0.95000000000E+03 0.  0.
   -2000013    1    1    2    0    0 -0.46311944423E+03 -0.20796205441E+03 -0.97331841588E+02  0.10815273104E+04  0.95000000000E+03 0.  0.
<mgrwt>
<rscale>  0 0.23000822E+04</rscale>
<asrwt>0</asrwt>
<pdfrwt beam="2">  1        2 0.27918166E+00 0.23000822E+04</pdfrwt>
<pdfrwt beam="1">  1       -2 0.11212775E+00 0.23000822E+04</pdfrwt>
<totfact> 0.48151905E+00</totfact>
</mgrwt>
</event>
<event>
 4    1  0.1308745E-008  0.2176686E+04  0.7816531E-02  0.8528195E-01
          2   -1    0    0  501    0  0.00000000000E+00  0.00000000000E+00  0.14672573229E+04  0.14672573229E+04  0.00000000000E+00 0.  1.
         -2   -1    0    0    0  501 -0.00000000000E+00 -0.00000000000E+00 -0.80728219462E+03  0.80728219462E+03  0.00000000000E+00 0. -1.
    2000013    1    1    2    0    0  0.34091707313E+03  0.47652643888E+02  0.75251074935E+03  0.12598681094E+04  0.95000000000E+03 0.  0.
   -2000013    1    1    2    0    0 -0.34091707313E+03 -0.47652643888E+02 -0.92535621085E+02  0.10146714081E+04  0.95000000000E+03 0.  0.
<mgrwt>
<rscale>  0 0.21766862E+04</rscale>
<asrwt>0</asrwt>
<pdfrwt beam="1">  1        2 0.22573189E+00 0.21766862E+04</pdfrwt>
<pdfrwt beam="2">  1       -2 0.12419726E+00 0.21766862E+04</pdfrwt>
<totfact> 0.59129639E+00</totfact>
</mgrwt>
</event>
<event>
 4    1  0.1308745E-008  0.4052427E+04  0.7816531E-02  0.7994053E-01
          2   -1    0    0  501    0  0.00000000000E+00  0.00000000000E+00  0.28801064434E+04  0.28801064434E+04  0.00000000000E+00 0.  1.
         -2   -1    0    0    0  501 -0.00000000000E+00 -0.00000000000E+00 -0.14254825475E+04  0.14254825475E+04  0.00000000000E+00 0. -1.
    2000013    1    1    2    0    0  0.12096534355E+04 -0.13090851248E+04  0.89888112591E+03  0.22107583714E+04  0.95000000000E+03 0.  0.
   -2000013    1    1    2    0    0 -0.12096534355E+04  0.13090851248E+04  0.55574276995E+03  0.20948306195E+04  0.95000000000E+03 0.  0.
<mgrwt>
<rscale>  0 0.40524272E+04</rscale>
<asrwt>0</asrwt>
<pdfrwt beam="1">  1        2 0.44309330E+00 0.40524272E+04</pdfrwt>
<pdfrwt beam="2">  1       -2 0.21930501E+00 0.40524272E+04</pdfrwt>
<totfact> 0.16201513E-01</totfact>
</mgrwt>
</event>
<event>
 4    1  0.1308745E-008  0.2866784E+04  0.7816531E-02  0.8282829E-01
          2   -1    0    0  501    0  0.00000000000E+00  0.00000000000E+00  0.39161374024E+03  0.39161374024E+03  0.00000000000E+00 0.  1.
         -2   -1    0    0    0  501 -0.00000000000E+00 -0.00000000000E+00 -0.52465286833E+04  0.52465286833E+04  0.00000000000E+00 0. -1.
    2000013    1    1    2    0    0 -0.86046405936E+03  0.52493176187E+03 -0.31531746056E+04  0.34439747161E+04  0.95000000000E+03 0.  0.
   -2000013    1    1    2    0    0  0.86046405936E+03 -0.52493176187E+03 -0.17017403375E+04  0.21941677074E+04  0.95000000000E+03 0.  0.
<mgrwt>
<rscale>  0 0.28667841E+04</rscale>
<asrwt>0</asrwt>
<pdfrwt beam="1">  1        2 0.60248265E-01 0.28667841E+04</pdfrwt>
<pdfrwt beam="2">  1       -2 0.80715830E+00 0.28667841E+04</pdfrwt>
<totfact> 0.49896630E-03</totfact>
</mgrwt>
</event>
<event>
 4    1  0.1308745E-008  0.2932946E+04  0.7816531E-02  0.8263142E-01
         -2   -1    0    0    0  501 -0.00000000000E+00  0.00000000000E+00  0.95232811886E+03  0.95232811886E+03  0.00000000000E+00 0. -1.
          2   -1    0    0  501    0  0.00000000000E+00 -0.00000000000E+00 -0.22581950854E+04  0.22581950854E+04  0.00000000000E+00 0.  1.
    2000013    1    1    2    0    0  0.10456930144E+04  0.29309105333E+03 -0.93977633063E+03  0.17219337378E+04  0.95000000000E+03 0.  0.
   -2000013    1    1    2    0    0 -0.10456930144E+04 -0.29309105333E+03 -0.36609063591E+03  0.14885894664E+04  0.95000000000E+03 0.  0.
<mgrwt>
<rscale>  0 0.29329457E+04</rscale>
<asrwt>0</asrwt>
<pdfrwt beam="2">  1        2 0.34741462E+00 0.29329457E+04</pdfrwt>
<pdfrwt beam="1">  1       -2 0.14651202E+00 0.29329457E+04</pdfrwt>
<totfact> 0.13139143E+00</totfact>
</mgrwt>
</event>
<event>
 4    1  0.1308745E-008  0.2172365E+04  0.7816531E-02  0.8530019E-01
         -2   -1    0    0    0  501 -0.00000000000E+00  0.00000000000E+00  0.62716387630E+03  0.62716387630E+03  0.00000000000E+00 0. -1.
          2   -1    0    0  501    0  0.00000000000E+00 -0.00000000000E+00 -0.18811556123E+04  0.18811556123E+04  0.00000000000E+00 0.  1.
    2000013    1    1    2    0    0 -0.30526249508E+02  0.42587915866E+03 -0.27113174736E+03  0.10762515199E+04  0.95000000000E+03 0.  0.
   -2000013    1    1    2    0    0  0.30526249508E+02 -0.42587915866E+03 -0.98285998862E+03  0.14320679687E+04  0.95000000000E+03 0.  0.
<mgrwt>
<rscale>  0 0.21723654E+04</rscale>
<asrwt>0</asrwt>
<pdfrwt beam="2">  1        2 0.28940856E+00 0.21723654E+04</pdfrwt>
<pdfrwt beam="1">  1       -2 0.96486749E-01 0.21723654E+04</pdfrwt>
<totfact> 0.64039844E+00</totfact>
</mgrwt>
</event>
<event>
 4    1  0.1308745E-008  0.3812325E+04  0.7816531E-02  0.8043515E-01
          2   -1    0    0  501    0  0.00000000000E+00  0.00000000000E+00  0.30287610835E+04  0.30287610835E+04  0.00000000000E+00 0.  1.
         -2   -1    0    0    0  501 -0.00000000000E+00 -0.00000000000E+00 -0.11996506393E+04  0.11996506393E+04  0.00000000000E+00 0. -1.
    2000013    1    1    2    0    0 -0.57709917482E+03  0.15412480426E+04  0.10808015349E+04  0.21861200663E+04  0.95000000000E+03 0.  0.
   -2000013    1    1    2    0    0  0.57709917482E+03 -0.15412480426E+04  0.74830890927E+03  0.20422916565E+04  0.95000000000E+03 0.  0.
<mgrwt>
<rscale>  0 0.38123248E+04</rscale>
<asrwt>0</asrwt>
<pdfrwt beam="1">  1        2 0.46596324E+00 0.38123248E+04</pdfrwt>
<pdfrwt beam="2">  1       -2 0.18456164E+00 0.38123248E+04</pdfrwt>
<totfact> 0.22553539E-01</totfact>
</mgrwt>
</event>
<event>
 4    1  0.1308745E-008  0.2353431E+04  0.7816531E-02  0.8457147E-01
          2   -1    0    0  501    0  0.00000000000E+00  0.00000000000E+00  0.15819572489E+04  0.15819572489E+04  0.00000000000E+00 0.  1.
         -2   -1    0    0    0  501 -0.00000000000E+00 -0.00000000000E+00 -0.87528248078E+03  0.87528248078E+03  0.00000000000E+00 0. -1.
    2000013    1    1    2    0    0 -0.17865669546E+03 -0.58619278607E+03  0.69426634256E+03  0.13266672347E+04  0.95000000000E+03 0.  0.
   -2000013    1    1    2    0    0  0.17865669546E+03  0.58619278607E+03  0.12408425537E+02  0.11305724949E+04  0.95000000000E+03 0.  0.
<mgrwt>
<rscale>  0 0.23534311E+04</rscale>
<asrwt>0</asrwt>
<pdfrwt beam="1">  1        2 0.24337804E+00 0.23534311E+04</pdfrwt>
<pdfrwt beam="2">  1       -2 0.13465884E+00 0.23534311E+04</pdfrwt>
<totfact> 0.40919602E+00</totfact>
</mgrwt>
</event>
<event>
 4    1  0.1308745E-008  0.2414940E+04  0.7816531E-02  0.8433931E-01
          2   -1    0    0  501    0  0.00000000000E+00  0.00000000000E+00  0.21254335407E+04  0.21254335407E+04  0.00000000000E+00 0.  1.
         -2   -1    0    0    0  501 -0.00000000000E+00 -0.00000000000E+00 -0.68597000689E+03  0.68597000689E+03  0.00000000000E+00 0. -1.
    2000013    1    1    2    0    0  0.31922134304E+03  0.25411622533E+03 -0.63661710796E+01  0.10339331941E+04  0.95000000000E+03 0.  0.
   -2000013    1    1    2    0    0 -0.31922134304E+03 -0.25411622533E+03  0.14458297049E+04  0.17774703534E+04  0.95000000000E+03 0.  0.
<mgrwt>
<rscale>  0 0.24149399E+04</rscale>
<asrwt>0</asrwt>
<pdfrwt beam="1">  1        2 0.32698977E+00 0.24149399E+04</pdfrwt>
<pdfrwt beam="2">  1       -2 0.10553385E+00 0.24149399E+04</pdfrwt>
<totfact> 0.37083243E+00</totfact>
</mgrwt>
</event>
<event>
 4    1  0.1308745E-008  0.2588267E+04  0.7816531E-02  0.8372197E-01
         -2   -1    0    0    0  501 -0.00000000000E+00  0.00000000000E+00  0.14404675445E+04  0.14404675445E+04  0.00000000000E+00 0. -1.
          2   -1    0    0  501    0  0.00000000000E+00 -0.00000000000E+00 -0.11626655020E+04  0.11626655020E+04  0.00000000000E+00 0.  1.
    2000013    1    1    2    0    0  0.32953903666E+02  0.79308063691E+03  0.51818643931E+03  0.13420432341E+04  0.95000000000E+03 0.  0.
   -2000013    1    1    2    0    0 -0.32953903666E+02 -0.79308063691E+03 -0.24038439681E+03  0.12610898123E+04  0.95000000000E+03 0.  0.
<mgrwt>
<rscale>  0 0.25882673E+04</rscale>
<asrwt>0</asrwt>
<pdfrwt beam="2">  1        2 0.17887161E+00 0.25882673E+04</pdfrwt>
<pdfrwt beam="1">  1       -2 0.22161039E+00 0.25882673E+04</pdfrwt>
<totfact> 0.17049282E+00</totfact>
</mgrwt>
</event>
<event>
 4    1  0.1308745E-008  0.2310407E+04  0.7816531E-02  0.8473829E-01
          2   -1    0    0  501    0  0.00000000000E+00  0.00000000000E+00  0.11358437510E+04  0.11358437510E+04  0.00000000000E+00 0.  1.
         -2   -1    0    0    0  501 -0.00000000000E+00 -0.00000000000E+00 -0.11748934441E+04  0.11748934441E+04  0.00000000000E+00 0. -1.
    2000013    1    1    2    0    0  0.26423185158E+03 -0.38935494974E+03 -0.47847994646E+03  0.11631245881E+04  0.95000000000E+03 0.  0.
   -2000013    1    1    2    0    0 -0.26423185158E+03  0.38935494974E+03  0.43943025338E+03  0.11476126071E+04  0.95000000000E+03 0.  0.
<mgrwt>
<rscale>  0 0.23104072E+04</rscale>
<asrwt>0</asrwt>
<pdfrwt beam="1">  1        2 0.17474519E+00 0.23104072E+04</pdfrwt>
<pdfrwt beam="2">  1       -2 0.18075284E+00 0.23104072E+04</pdfrwt>
<totfact> 0.33609440E+00</totfact>
</mgrwt>
</event>
<event>
 4    1  0.1308745E-008  0.3288105E+04  0.7816531E-02  0.8165929E-01
          2   -1    0    0  501    0  0.00000000000E+00  0.00000000000E+00  0.22396568730E+04  0.22396568730E+04  0.00000000000E+00 0.  1.
         -2   -1    0    0    0  501 -0.00000000000E+00 -0.00000000000E+00 -0.12068406286E+04  0.12068406286E+04  0.00000000000E+00 0. -1.
    2000013    1    1    2    0    0  0.96260235601E+02 -0.13033978531E+04  0.19796941446E+03  0.16278218224E+04  0.95000000000E+03 0.  0.
   -2000013    1    1    2    0    0 -0.96260235601E+02  0.13033978531E+04  0.83484682993E+03  0.18186756791E+04  0.95000000000E+03 0.  0.
<mgrwt>
<rscale>  0 0.32881052E+04</rscale>
<asrwt>0</asrwt>
<pdfrwt beam="1">  1        2 0.34456259E+00 0.32881052E+04</pdfrwt>
<pdfrwt beam="2">  1       -2 0.18566779E+00 0.32881052E+04</pdfrwt>
<totfact> 0.67987353E-01</totfact>
</mgrwt>
</event>
<event>
 4    1  0.1308745E-008  0.2744977E+04  0.7816531E-02  0.8320557E-01
         -2   -1    0    0    0  501 -0.00000000000E+00  0.00000000000E+00  0.10862816848E+04  0.10862816848E+04  0.00000000000E+00 0. -1.
          2   -1    0    0  501    0  0.00000000000E+00 -0.00000000000E+00 -0.17341033738E+04  0.17341033738E+04  0.00000000000E+00 0.  1.
    2000013    1    1    2    0    0  0.86781846869E+03  0.76286088388E+02  0.16052445300E+03  0.12989213070E+04  0.95000000000E+03 0.  0.
   -2000013    1    1    2    0    0 -0.86781846869E+03 -0.76286088388E+02 -0.80834614206E+03  0.15214637515E+04  0.95000000000E+03 0.  0.
<mgrwt>
<rscale>  0 0.27449770E+04</rscale>
<asrwt>0</asrwt>
<pdfrwt beam="2">  1        2 0.26678513E+00 0.27449770E+04</pdfrwt>
<pdfrwt beam="1">  1       -2 0.16712026E+00 0.27449770E+04</pdfrwt>
<totfact> 0.18341828E+00</totfact>
</mgrwt>
</event>
<event>
 4    1  0.1308745E-008  0.2485905E+04  0.7816531E-02  0.8408024E-01
         -2   -1    0    0    0  501 -0.00000000000E+00  0.00000000000E+00  0.59240886321E+03  0.59240886321E+03  0.00000000000E+00 0. -1.
          2   -1    0    0  501    0  0.00000000000E+00 -0.00000000000E+00 -0.26078793846E+04  0.26078793846E+04  0.00000000000E+00 0.  1.
    2000013    1    1    2    0    0  0.59010183929E+03 -0.33254766750E+03 -0.15593905624E+04  0.19475643913E+04  0.95000000000E+03 0.  0.
   -2000013    1    1    2    0    0 -0.59010183929E+03  0.33254766750E+03 -0.45607995900E+03  0.12527238566E+04  0.95000000000E+03 0.  0.
<mgrwt>
<rscale>  0 0.24859050E+04</rscale>
<asrwt>0</asrwt>
<pdfrwt beam="2">  1        2 0.40121221E+00 0.24859050E+04</pdfrwt>
<pdfrwt beam="1">  1       -2 0.91139826E-01 0.24859050E+04</pdfrwt>
<totfact> 0.27593406E+00</totfact>
</mgrwt>
</event>
<event>
 4    1  0.1308745E-008  0.2708479E+04  0.7816531E-02  0.8332259E-01
          1   -1    0    0  501    0  0.00000000000E+00  0.00000000000E+00  0.18754120685E+04  0.18754120685E+04  0.00000000000E+00 0.  1.
         -1   -1    0    0    0  501 -0.00000000000E+00 -0.00000000000E+00 -0.97789920013E+03  0.97789920013E+03  0.00000000000E+00 0. -1.
    2000013    1    1    2    0    0 -0.76874503155E+03 -0.57617765927E+03  0.54596383518E+03  0.14572323521E+04  0.95000000000E+03 0.  0.
   -2000013    1    1    2    0    0  0.76874503155E+03  0.57617765927E+03  0.35154903320E+03  0.13960789166E+04  0.95000000000E+03 0.  0.
<mgrwt>
<rscale>  0 0.27084785E+04</rscale>
<asrwt>0</asrwt>
<pdfrwt beam="1">  1        1 0.28852493E+00 0.27084785E+04</pdfrwt>
<pdfrwt beam="2">  1       -1 0.15044603E+00 0.27084785E+04</pdfrwt>
<totfact> 0.10933364E+00</totfact>
</mgrwt>
</event>
<event>
 4    1  0.1308745E-008  0.2776209E+04  0.7816531E-02  0.8310693E-01
         -2   -1    0    0    0  501 -0.00000000000E+00  0.00000000000E+00  0.82704433377E+03  0.82704433377E+03  0.00000000000E+00 0. -1.
          2   -1    0    0  501    0  0.00000000000E+00 -0.00000000000E+00 -0.23297838286E+04  0.23297838286E+04  0.00000000000E+00 0.  1.
    2000013    1    1    2    0    0 -0.95208836575E+03 -0.30904043813E+03 -0.58135039012E+03  0.14974800582E+04  0.95000000000E+03 0.  0.
   -2000013    1    1    2    0    0  0.95208836575E+03  0.30904043813E+03 -0.92138910476E+03  0.16593481042E+04  0.95000000000E+03 0.  0.
<mgrwt>
<rscale>  0 0.27762093E+04</rscale>
<asrwt>0</asrwt>
<pdfrwt beam="2">  1        2 0.35842829E+00 0.27762093E+04</pdfrwt>
<pdfrwt beam="1">  1       -2 0.12723759E+00 0.27762093E+04</pdfrwt>
<totfact> 0.17428860E+00</totfact>
</mgrwt>
</event>
<event>
 4    1  0.1308745E-008  0.2276674E+04  0.7816531E-02  0.8487175E-01
         -2   -1    0    0    0  501 -0.00000000000E+00  0.00000000000E+00  0.98762662453E+03  0.98762662453E+03  0.00000000000E+00 0. -1.
          2   -1    0    0  501    0  0.00000000000E+00 -0.00000000000E+00 -0.13120461170E+04  0.13120461170E+04  0.00000000000E+00 0.  1.
    2000013    1    1    2    0    0  0.34692849205E+03  0.27988310365E+03  0.28340167951E+03  0.10869730642E+04  0.95000000000E+03 0.  0.
   -2000013    1    1    2    0    0 -0.34692849205E+03 -0.27988310365E+03 -0.60782117196E+03  0.12126996773E+04  0.95000000000E+03 0.  0.
<mgrwt>
<rscale>  0 0.22766745E+04</rscale>
<asrwt>0</asrwt>
<pdfrwt beam="2">  1        2 0.20185325E+00 0.22766745E+04</pdfrwt>
<pdfrwt beam="1">  1       -2 0.15194256E+00 0.22766745E+04</pdfrwt>
<totfact> 0.42785784E+00</totfact>
</mgrwt>
</event>
<event>
 4    1  0.1308745E-008  0.3860887E+04  0.7816531E-02  0.8033213E-01
         -2   -1    0    0    0  501 -0.00000000000E+00  0.00000000000E+00  0.15248993035E+04  0.15248993035E+04  0.00000000000E+00 0. -1.
          2   -1    0    0  501    0  0.00000000000E+00 -0.00000000000E+00 -0.24438414610E+04  0.24438414610E+04  0.00000000000E+00 0.  1.
    2000013    1    1    2    0    0 -0.16626715528E+04 -0.19726841020E+03 -0.60743882148E+03  0.20186315761E+04  0.95000000000E+03 0.  0.
   -2000013    1    1    2    0    0  0.16626715528E+04  0.19726841020E+03 -0.31150333599E+03  0.19501091884E+04  0.95000000000E+03 0.  0.
<mgrwt>
<rscale>  0 0.38608870E+04</rscale>
<asrwt>0</asrwt>
<pdfrwt beam="2">  1        2 0.37597561E+00 0.38608870E+04</pdfrwt>
<pdfrwt beam="1">  1       -2 0.23459989E+00 0.38608870E+04</pdfrwt>
<totfact> 0.23951120E-01</totfact>
</mgrwt>
</event>
<event>
 4    1  0.1308745E-008  0.2257538E+04  0.7816531E-02  0.8494854E-01
         -2   -1    0    0    0  501 -0.00000000000E+00  0.00000000000E+00  0.35142728992E+03  0.35142728992E+03  0.00000000000E+00 0. -1.
          2   -1    0    0  501    0  0.00000000000E+00 -0.00000000000E+00 -0.36255555644E+04  0.36255555644E+04  0.00000000000E+00 0.  1.
    2000013    1    1    2    0    0 -0.10017246790E+03 -0.53540146223E+03 -0.11548429084E+04  0.15914934471E+04  0.95000000000E+03 0.  0.
   -2000013    1    1    2    0    0  0.10017246790E+03  0.53540146223E+03 -0.21192853661E+04  0.23854894072E+04  0.95000000000E+03 0.  0.
<mgrwt>
<rscale>  0 0.22575377E+04</rscale>
<asrwt>0</asrwt>
<pdfrwt beam="2">  1        2 0.55777776E+00 0.22575377E+04</pdfrwt>
<pdfrwt beam="1">  1       -2 0.54065739E-01 0.22575377E+04</pdfrwt>
<totfact> 0.19466174E+00</totfact>
</mgrwt>
</event>
<event>
 4    1  0.1308745E-008  0.2404736E+04  0.7816531E-02  0.8437733E-01
          2   -1    0    0  501    0  0.00000000000E+00  0.00000000000E+00  0.16617126127E+04  0.16617126127E+04  0.00000000000E+00 0.  1.
         -2   -1    0    0    0  501 -0.00000000000E+00 -0.00000000000E+00 -0.86999931272E+03  0.86999931272E+03  0.00000000000E+00 0. -1.
    2000013    1    1    2    0    0  0.29744792096E+03  0.55709203534E+03 -0.41556707113E+01  0.11407646870E+04  0.95000000000E+03 0.  0.
   -2000013    1    1    2    0    0 -0.29744792096E+03 -0.55709203534E+03  0.79586897069E+03  0.13909472384E+04  0.95000000000E+03 0.  0.
<mgrwt>
<rscale>  0 0.24047360E+04</rscale>
<asrwt>0</asrwt>
<pdfrwt beam="1">  1        2 0.25564809E+00 0.24047360E+04</pdfrwt>
<pdfrwt beam="2">  1       -2 0.13384605E+00 0.24047360E+04</pdfrwt>
<totfact> 0.37344137E+00</totfact>
</mgrwt>
</event>
<event>
 4    1  0.1308745E-008  0.5821810E+04  0.7816531E-02  0.7712896E-01
         -2   -1    0    0    0  501 -0.00000000000E+00  0.00000000000E+00  0.46513549746E+04  0.46513549746E+04  0.00000000000E+00 0. -1.
          2   -1    0    0  501    0  0.00000000000E+00 -0.00000000000E+00 -0.18216988244E+04  0.18216988244E+04  0.00000000000E+00 0.  1.
    2000013    1    1    2    0    0 -0.76740737587E+03  0.19501081796E+04 -0.56760544453E+03  0.23699181280E+04  0.95000000000E+03 0.  0.
   -2000013    1    1    2    0    0  0.76740737587E+03 -0.19501081796E+04  0.33972615947E+04  0.41031356711E+04  0.95000000000E+03 0.  0.
<mgrwt>
<rscale>  0 0.58218100E+04</rscale>
<asrwt>0</asrwt>
<pdfrwt beam="2">  1        2 0.28026136E+00 0.58218100E+04</pdfrwt>
<pdfrwt beam="1">  1       -2 0.71559307E+00 0.58218100E+04</pdfrwt>
<totfact> 0.11587435E-03</totfact>
</mgrwt>
</event>
<event>
 4    1  0.1308745E-008  0.2368961E+04  0.7816531E-02  0.8451216E-01
         -2   -1    0    0    0  501 -0.00000000000E+00  0.00000000000E+00  0.95081761218E+03  0.95081761218E+03  0.00000000000E+00 0. -1.
          2   -1    0    0  501    0  0.00000000000E+00 -0.00000000000E+00 -0.14755664231E+04  0.14755664231E+04  0.00000000000E+00 0.  1.
    2000013    1    1    2    0    0 -0.32970910185E+03  0.32853006236E+03  0.28331988049E+03  0.10951758984E+04  0.95000000000E+03 0.  0.
   -2000013    1    1    2    0    0  0.32970910185E+03 -0.32853006236E+03 -0.80806869142E+03  0.13312081369E+04  0.95000000000E+03 0.  0.
<mgrwt>
<rscale>  0 0.23689614E+04</rscale>
<asrwt>0</asrwt>
<pdfrwt beam="2">  1        2 0.22701022E+00 0.23689614E+04</pdfrwt>
<pdfrwt beam="1">  1       -2 0.14627963E+00 0.23689614E+04</pdfrwt>
<totfact> 0.37833823E+00</totfact>
</mgrwt>
</event>
<event>
 4    1  0.1308745E-008  0.2410867E+04  0.7816531E-02  0.8435446E-01
          2   -1    0    0  501    0  0.00000000000E+00  0.00000000000E+00  0.63607671288E+03  0.63607671288E+03  0.00000000000E+00 0.  1.
         -2   -1    0    0    0  501 -0.00000000000E+00 -0.00000000000E+00 -0.22844262241E+04  0.22844262241E+04  0.00000000000E+00 0. -1.
    2000013    1    1    2    0    0  0.45507158525E+03  0.35294932026E+03 -0.13909542287E+04  0.17801452291E+04  0.95000000000E+03 0.  0.
   -2000013    1    1    2    0    0 -0.45507158525E+03 -0.35294932026E+03 -0.25739528248E+03  0.11403577078E+04  0.95000000000E+03 0.  0.
<mgrwt>
<rscale>  0 0.24108673E+04</rscale>
<asrwt>0</asrwt>
<pdfrwt beam="1">  1        2 0.97857956E-01 0.24108673E+04</pdfrwt>
<pdfrwt beam="2">  1       -2 0.35145019E+00 0.24108673E+04</pdfrwt>
<totfact> 0.63252788E-01</totfact>
</mgrwt>
</event>
<event>
 4    1  0.1308745E-008  0.2496190E+04  0.7816531E-02  0.8404344E-01
          1   -1    0    0  501    0  0.00000000000E+00  0.00000000000E+00  0.30949305897E+04  0.30949305897E+04  0.00000000000E+00 0.  1.
         -1   -1    0    0    0  501 -0.00000000000E+00 -0.00000000000E+00 -0.50332011123E+03  0.50332011123E+03  0.00000000000E+00 0. -1.
    2000013    1    1    2    0    0  0.28955642840E+03 -0.53783077617E+03  0.53013277265E+03  0.12476560526E+04  0.95000000000E+03 0.  0.
   -2000013    1    1    2    0    0 -0.28955642840E+03  0.53783077617E+03  0.20614777058E+04  0.23505946483E+04  0.95000000000E+03 0.  0.
<mgrwt>
<rscale>  0 0.24961897E+04</rscale>
<asrwt>0</asrwt>
<pdfrwt beam="1">  1        1 0.47614316E+00 0.24961897E+04</pdfrwt>
<pdfrwt beam="2">  1       -1 0.77433865E-01 0.24961897E+04</pdfrwt>
<totfact> 0.75633237E-01</totfact>
</mgrwt>
</event>
<event>
 4    1  0.1308745E-008  0.2334622E+04  0.7816531E-02  0.8464394E-01
          2   -1    0    0  501    0  0.00000000000E+00  0.00000000000E+00  0.84094407707E+03  0.84094407707E+03  0.00000000000E+00 0.  1.
         -2   -1    0    0    0  501 -0.00000000000E+00 -0.00000000000E+00 -0.16203399944E+04  0.16203399944E+04  0.00000000000E+00 0. -1.
    2000013    1    1    2    0    0 -0.15162307964E+03  0.64780149528E+03 -0.52907884542E+03  0.12747787103E+04  0.95000000000E+03 0.  0.
   -2000013    1    1    2    0    0  0.15162307964E+03 -0.64780149528E+03 -0.25031707189E+03  0.11865053612E+04  0.95000000000E+03 0.  0.
<mgrwt>
<rscale>  0 0.23346223E+04</rscale>
<asrwt>0</asrwt>
<pdfrwt beam="1">  1        2 0.12937601E+00 0.23346223E+04</pdfrwt>
<pdfrwt beam="2">  1       -2 0.24928307E+00 0.23346223E+04</pdfrwt>
<totfact> 0.18898302E+00</totfact>
</mgrwt>
</event>
<event>
 4    1  0.1308745E-008  0.2537081E+04  0.7816531E-02  0.8389893E-01
          2   -1    0    0  501    0  0.00000000000E+00  0.00000000000E+00  0.14360288707E+04  0.14360288707E+04  0.00000000000E+00 0.  1.
         -2   -1    0    0    0  501 -0.00000000000E+00 -0.00000000000E+00 -0.11205865394E+04  0.11205865394E+04  0.00000000000E+00 0. -1.
    2000013    1    1    2    0    0 -0.79744987718E+02 -0.54705344370E+03 -0.48045424508E+03  0.11995678451E+04  0.95000000000E+03 0.  0.
   -2000013    1    1    2    0    0  0.79744987718E+02  0.54705344370E+03  0.79589657639E+03  0.13570475650E+04  0.95000000000E+03 0.  0.
<mgrwt>
<rscale>  0 0.25370807E+04</rscale>
<asrwt>0</asrwt>
<pdfrwt beam="1">  1        2 0.22092752E+00 0.25370807E+04</pdfrwt>
<pdfrwt beam="2">  1       -2 0.17239793E+00 0.25370807E+04</pdfrwt>
<totfact> 0.25152731E+00</totfact>
</mgrwt>
</event>
<event>
 4    1  0.1308745E-008  0.2455749E+04  0.7816531E-02  0.8418922E-01
         -2   -1    0    0    0  501 -0.00000000000E+00  0.00000000000E+00  0.65928057340E+03  0.65928057340E+03  0.00000000000E+00 0. -1.
          2   -1    0    0  501    0  0.00000000000E+00 -0.00000000000E+00 -0.22868499841E+04  0.22868499841E+04  0.00000000000E+00 0.  1.
    2000013    1    1    2    0    0 -0.32987292941E+03  0.70450053667E+03 -0.80632991539E+03  0.14689469317E+04  0.95000000000E+03 0.  0.
   -2000013    1    1    2    0    0  0.32987292941E+03 -0.70450053667E+03 -0.82123949536E+03  0.14771836258E+04  0.95000000000E+03 0.  0.
<mgrwt>
<rscale>  0 0.24557490E+04</rscale>
<asrwt>0</asrwt>
<pdfrwt beam="2">  1        2 0.35182308E+00 0.24557490E+04</pdfrwt>
<pdfrwt beam="1">  1       -2 0.10142778E+00 0.24557490E+04</pdfrwt>
<totfact> 0.32964963E+00</totfact>
</mgrwt>
</event>
<event>
 4    1  0.1308745E-008  0.2166936E+04  0.7816531E-02  0.8532317E-01
          2   -1    0    0  501    0  0.00000000000E+00  0.00000000000E+00  0.29425510492E+04  0.29425510492E+04  0.00000000000E+00 0.  1.
         -2   -1    0    0    0  501 -0.00000000000E+00 -0.00000000000E+00 -0.39894056257E+03  0.39894056257E+03  0.00000000000E+00 0. -1.
    2000013    1    1    2    0    0 -0.33332440792E+03 -0.29470530678E+03  0.16897126842E+04  0.19888653383E+04  0.95000000000E+03 0.  0.
   -2000013    1    1    2    0    0  0.33332440792E+03  0.29470530678E+03  0.85389780251E+03  0.13526262735E+04  0.95000000000E+03 0.  0.
<mgrwt>
<rscale>  0 0.21669361E+04</rscale>
<asrwt>0</asrwt>
<pdfrwt beam="1">  1        2 0.45270015E+00 0.21669361E+04</pdfrwt>
<pdfrwt beam="2">  1       -2 0.61375473E-01 0.21669361E+04</pdfrwt>
<totfact> 0.42830571E+00</totfact>
</mgrwt>
</event>
<event>
 4    1  0.1308745E-008  0.3273026E+04  0.7816531E-02  0.8169793E-01
          2   -1    0    0  501    0  0.00000000000E+00  0.00000000000E+00  0.14209617364E+04  0.14209617364E+04  0.00000000000E+00 0.  1.
         -2   -1    0    0    0  501 -0.00000000000E+00 -0.00000000000E+00 -0.18847621697E+04  0.18847621697E+04  0.00000000000E+00 0. -1.
    2000013    1    1    2    0    0  0.50304220586E+03 -0.92662947607E+03  0.59109067777E+03  0.15373944959E+04  0.95000000000E+03 0.  0.
   -2000013    1    1    2    0    0 -0.50304220586E+03  0.92662947607E+03 -0.10548911110E+04  0.17683294102E+04  0.95000000000E+03 0.  0.
<mgrwt>
<rscale>  0 0.32730261E+04</rscale>
<asrwt>0</asrwt>
<pdfrwt beam="1">  1        2 0.21860950E+00 0.32730261E+04</pdfrwt>
<pdfrwt beam="2">  1       -2 0.28996341E+00 0.32730261E+04</pdfrwt>
<totfact> 0.43131352E-01</totfact>
</mgrwt>
</event>
<event>
 4    1  0.1308745E-008  0.2994002E+04  0.7816531E-02  0.8245446E-01
         -2   -1    0    0    0  501 -0.00000000000E+00  0.00000000000E+00  0.77181813656E+03  0.77181813656E+03  0.00000000000E+00 0. -1.
          2   -1    0    0  501    0  0.00000000000E+00 -0.00000000000E+00 -0.29035487600E+04  0.29035487600E+04  0.00000000000E+00 0.  1.
    2000013    1    1    2    0    0  0.66361466258E+03  0.48622294126E+03 -0.20644478166E+04  0.24168661437E+04  0.95000000000E+03 0.  0.
   -2000013    1    1    2    0    0 -0.66361466258E+03 -0.48622294126E+03 -0.67282806877E+02  0.12585007529E+04  0.95000000000E+03 0.  0.
<mgrwt>
<rscale>  0 0.29940017E+04</rscale>
<asrwt>0</asrwt>
<pdfrwt beam="2">  1        2 0.44669981E+00 0.29940017E+04</pdfrwt>
<pdfrwt beam="1">  1       -2 0.11874125E+00 0.29940017E+04</pdfrwt>
<totfact> 0.93272275E-01</totfact>
</mgrwt>
</event>
<event>
 4    1  0.1308745E-008  0.2230191E+04  0.7816531E-02  0.8505966E-01
         -2   -1    0    0    0  501 -0.00000000000E+00  0.00000000000E+00  0.42956676403E+03  0.42956676403E+03  0.00000000000E+00 0.  1.
          2   -1    0    0  501    0  0.00000000000E+00 -0.00000000000E+00 -0.28946338250E+04  0.28946338250E+04  0.00000000000E+00 0. -1.
    2000013    1    1    2    0    0 -0.17252012590E+03  0.44128060241E+03 -0.17411714176E+04  0.20392816552E+04  0.95000000000E+03 0.  0.
   -2000013    1    1    2    0    0  0.17252012590E+03 -0.44128060241E+03 -0.72389564335E+03  0.12849189338E+04  0.95000000000E+03 0.  0.
<mgrwt>
<rscale>  0 0.22301915E+04</rscale>
<asrwt>0</asrwt>
<pdfrwt beam="2">  1        2 0.44532827E+00 0.22301915E+04</pdfrwt>
<pdfrwt beam="1">  1       -2 0.66087196E-01 0.22301915E+04</pdfrwt>
<totfact> 0.38911524E+00</totfact>
</mgrwt>
</event>
<event>
 4    1  0.1308745E-008  0.2245587E+04  0.7816531E-02  0.8499690E-01
         -2   -1    0    0    0  501 -0.00000000000E+00  0.00000000000E+00  0.61943675320E+03  0.61943675320E+03  0.00000000000E+00 0. -1.
          2   -1    0    0  501    0  0.00000000000E+00 -0.00000000000E+00 -0.20351795885E+04  0.20351795885E+04  0.00000000000E+00 0.  1.
    2000013    1    1    2    0    0  0.21112808033E+03  0.38700873516E+03 -0.11863336899E+04  0.15824785784E+04  0.95000000000E+03 0.  0.
   -2000013    1    1    2    0    0 -0.21112808033E+03 -0.38700873516E+03 -0.22940914536E+03  0.10721377632E+04  0.95000000000E+03 0.  0.
<mgrwt>
<rscale>  0 0.22455868E+04</rscale>
<asrwt>0</asrwt>
<pdfrwt beam="2">  1        2 0.31310455E+00 0.22455868E+04</pdfrwt>
<pdfrwt beam="1">  1       -2 0.95297962E-01 0.22455868E+04</pdfrwt>
<totfact> 0.53802825E+00</totfact>
</mgrwt>
</event>
<event>
 4    1  0.1308745E-008  0.3244915E+04  0.7816531E-02  0.8177055E-01
         -2   -1    0    0    0  501 -0.00000000000E+00  0.00000000000E+00  0.12623705342E+04  0.12623705342E+04  0.00000000000E+00 0. -1.
          2   -1    0    0  501    0  0.00000000000E+00 -0.00000000000E+00 -0.20852585441E+04  0.20852585441E+04  0.00000000000E+00 0.  1.
    2000013    1    1    2    0    0 -0.45184380273E+03 -0.11916270931E+04 -0.75988356883E+02  0.15913554542E+04  0.95000000000E+03 0.  0.
   -2000013    1    1    2    0    0  0.45184380273E+03  0.11916270931E+04 -0.74689965302E+03  0.17562736241E+04  0.95000000000E+03 0.  0.
<mgrwt>
<rscale>  0 0.32449154E+04</rscale>
<asrwt>0</asrwt>
<pdfrwt beam="2">  1        2 0.32080900E+00 0.32449154E+04</pdfrwt>
<pdfrwt beam="1">  1       -2 0.19421085E+00 0.32449154E+04</pdfrwt>
<totfact> 0.72985460E-01</totfact>
</mgrwt>
</event>
<event>
 4    1  0.1308745E-008  0.2601986E+04  0.7816531E-02  0.8367527E-01
         -2   -1    0    0    0  501 -0.00000000000E+00  0.00000000000E+00  0.41539171140E+03  0.41539171140E+03  0.00000000000E+00 0. -1.
          2   -1    0    0  501    0  0.00000000000E+00 -0.00000000000E+00 -0.40746673914E+04  0.40746673914E+04  0.00000000000E+00 0.  1.
    2000013    1    1    2    0    0 -0.53367638573E+03 -0.68542203960E+03 -0.21546299282E+04  0.25098892375E+04  0.95000000000E+03 0.  0.
   -2000013    1    1    2    0    0  0.53367638573E+03  0.68542203960E+03 -0.15046457519E+04  0.19801698654E+04  0.95000000000E+03 0.  0.
<mgrwt>
<rscale>  0 0.26019862E+04</rscale>
<asrwt>0</asrwt>
<pdfrwt beam="2">  1        2 0.62687190E+00 0.26019862E+04</pdfrwt>
<pdfrwt beam="1">  1       -2 0.63906417E-01 0.26019862E+04</pdfrwt>
<totfact> 0.59655626E-01</totfact>
</mgrwt>
</event>
<event>
 4    1  0.1308745E-008  0.2372644E+04  0.7816531E-02  0.8449817E-01
          2   -1    0    0  501    0  0.00000000000E+00  0.00000000000E+00  0.19604141844E+04  0.19604141844E+04  0.00000000000E+00 0.  1.
         -2   -1    0    0    0  501 -0.00000000000E+00 -0.00000000000E+00 -0.71788908934E+03  0.71788908934E+03  0.00000000000E+00 0. -1.
    2000013    1    1    2    0    0  0.48933803143E+03 -0.51513000963E+03  0.62918991236E+03  0.13428293196E+04  0.95000000000E+03 0.  0.
   -2000013    1    1    2    0    0 -0.48933803143E+03  0.51513000963E+03  0.61333518274E+03  0.13354739541E+04  0.95000000000E+03 0.  0.
<mgrwt>
<rscale>  0 0.23726441E+04</rscale>
<asrwt>0</asrwt>
<pdfrwt beam="1">  1        2 0.30160218E+00 0.23726441E+04</pdfrwt>
<pdfrwt beam="2">  1       -2 0.11044448E+00 0.23726441E+04</pdfrwt>
<totfact> 0.41213818E+00</totfact>
</mgrwt>
</event>
<event>
 4    1  0.1308745E-008  0.2161946E+04  0.7816531E-02  0.8534436E-01
          2   -1    0    0  501    0  0.00000000000E+00  0.00000000000E+00  0.12041326831E+04  0.12041326831E+04  0.00000000000E+00 0.  1.
         -2   -1    0    0    0  501 -0.00000000000E+00 -0.00000000000E+00 -0.97041036718E+03  0.97041036718E+03  0.00000000000E+00 0. -1.
    2000013    1    1    2    0    0  0.15269553170E+03 -0.29040524492E+03 -0.28339175713E+03  0.10442518947E+04  0.95000000000E+03 0.  0.
   -2000013    1    1    2    0    0 -0.15269553170E+03  0.29040524492E+03  0.51711407302E+03  0.11302911555E+04  0.95000000000E+03 0.  0.
<mgrwt>
<rscale>  0 0.21619462E+04</rscale>
<asrwt>0</asrwt>
<pdfrwt beam="1">  1        2 0.18525118E+00 0.21619462E+04</pdfrwt>
<pdfrwt beam="2">  1       -2 0.14929390E+00 0.21619462E+04</pdfrwt>
<totfact> 0.52394757E+00</totfact>
</mgrwt>
</event>
<event>
 4    1  0.1308745E-008  0.2747833E+04  0.7816531E-02  0.8319649E-01
          2   -1    0    0  501    0  0.00000000000E+00  0.00000000000E+00  0.31875865862E+04  0.31875865862E+04  0.00000000000E+00 0.  1.
         -2   -1    0    0    0  501 -0.00000000000E+00 -0.00000000000E+00 -0.59218695697E+03  0.59218695697E+03  0.00000000000E+00 0. -1.
    2000013    1    1    2    0    0  0.22912059918E+03  0.93971636293E+03  0.99140007535E+03  0.16795645868E+04  0.95000000000E+03 0.  0.
   -2000013    1    1    2    0    0 -0.22912059918E+03 -0.93971636293E+03  0.16039995539E+04  0.21002089564E+04  0.95000000000E+03 0.  0.
<mgrwt>
<rscale>  0 0.27478335E+04</rscale>
<asrwt>0</asrwt>
<pdfrwt beam="1">  1        2 0.49039793E+00 0.27478335E+04</pdfrwt>
<pdfrwt beam="2">  1       -2 0.91105687E-01 0.27478335E+04</pdfrwt>
<totfact> 0.11858177E+00</totfact>
</mgrwt>
</event>
<event>
 4    1  0.1308745E-008  0.2041108E+04  0.7816531E-02  0.8587639E-01
         -1   -1    0    0    0  501 -0.00000000000E+00  0.00000000000E+00  0.19380341054E+04  0.19380341054E+04  0.00000000000E+00 0. -1.
          1   -1    0    0  501    0  0.00000000000E+00 -0.00000000000E+00 -0.53741585186E+03  0.53741585186E+03  0.00000000000E+00 0.  1.
    2000013    1    1    2    0    0  0.26946024043E+03  0.24268360373E+03  0.59509522739E+03  0.11781945859E+04  0.95000000000E+03 0.  0.
   -2000013    1    1    2    0    0 -0.26946024043E+03 -0.24268360373E+03  0.80552302610E+03  0.12972553713E+04  0.95000000000E+03 0.  0.
<mgrwt>
<rscale>  0 0.20411078E+04</rscale>
<asrwt>0</asrwt>
<pdfrwt beam="2">  1        1 0.82679363E-01 0.20411078E+04</pdfrwt>
<pdfrwt beam="1">  1       -1 0.29815909E+00 0.20411078E+04</pdfrwt>
<totfact> 0.12583301E+00</totfact>
</mgrwt>
</event>
<event>
 4    1  0.1308745E-008  0.2381830E+04  0.7816531E-02  0.8446338E-01
          2   -1    0    0  501    0  0.00000000000E+00  0.00000000000E+00  0.10122829133E+04  0.10122829133E+04  0.00000000000E+00 0. -1.
         -2   -1    0    0    0  501 -0.00000000000E+00 -0.00000000000E+00 -0.14010689053E+04  0.14010689053E+04  0.00000000000E+00 0.  1.
    2000013    1    1    2    0    0  0.44307364345E+03 -0.56374713559E+03 -0.15319748618E+03  0.12000393978E+04  0.95000000000E+03 0.  0.
   -2000013    1    1    2    0    0 -0.44307364345E+03  0.56374713559E+03 -0.23558850590E+03  0.12133124208E+04  0.95000000000E+03 0.  0.
<mgrwt>
<rscale>  0 0.23818296E+04</rscale>
<asrwt>0</asrwt>
<pdfrwt beam="1">  1        2 0.15573583E+00 0.23818296E+04</pdfrwt>
<pdfrwt beam="2">  1       -2 0.21554906E+00 0.23818296E+04</pdfrwt>
<totfact> 0.23495347E+00</totfact>
</mgrwt>
</event>
<event>
 4    1  0.1308745E-008  0.3166805E+04  0.7816531E-02  0.8197639E-01
         -2   -1    0    0    0  501 -0.00000000000E+00  0.00000000000E+00  0.19088262025E+04  0.19088262025E+04  0.00000000000E+00 0. -1.
          2   -1    0    0  501    0  0.00000000000E+00 -0.00000000000E+00 -0.13134583972E+04  0.13134583972E+04  0.00000000000E+00 0.  1.
    2000013    1    1    2    0    0 -0.11439407100E+04 -0.28733330846E+03 -0.17247489062E+03  0.15242730615E+04  0.95000000000E+03 0.  0.
   -2000013    1    1    2    0    0  0.11439407100E+04  0.28733330846E+03  0.76784269587E+03  0.16980115382E+04  0.95000000000E+03 0.  0.
<mgrwt>
<rscale>  0 0.31668052E+04</rscale>
<asrwt>0</asrwt>
<pdfrwt beam="2">  1        2 0.20207052E+00 0.31668052E+04</pdfrwt>
<pdfrwt beam="1">  1       -2 0.29366557E+00 0.31668052E+04</pdfrwt>
<totfact> 0.47633591E-01</totfact>
</mgrwt>
</event>
<event>
 4    1  0.1308745E-008  0.2545894E+04  0.7816531E-02  0.8386816E-01
          2   -1    0    0  501    0  0.00000000000E+00  0.00000000000E+00  0.32029146637E+04  0.32029146637E+04  0.00000000000E+00 0.  1.
         -2   -1    0    0    0  501 -0.00000000000E+00 -0.00000000000E+00 -0.50591216125E+03  0.50591216125E+03  0.00000000000E+00 0. -1.
    2000013    1    1    2    0    0  0.76891216473E+03  0.33052512033E+03  0.11562234215E+04  0.17145918968E+04  0.95000000000E+03 0.  0.
   -2000013    1    1    2    0    0 -0.76891216473E+03 -0.33052512033E+03  0.15407790810E+04  0.19942349281E+04  0.95000000000E+03 0.  0.
<mgrwt>
<rscale>  0 0.25458935E+04</rscale>
<asrwt>0</asrwt>
<pdfrwt beam="1">  1        2 0.49275609E+00 0.25458935E+04</pdfrwt>
<pdfrwt beam="2">  1       -2 0.77832642E-01 0.25458935E+04</pdfrwt>
<totfact> 0.16871102E+00</totfact>
</mgrwt>
</event>
<event>
 4    1  0.1308745E-008  0.3030726E+04  0.7816531E-02  0.8235011E-01
         -2   -1    0    0    0  501 -0.00000000000E+00  0.00000000000E+00  0.10614122596E+04  0.10614122596E+04  0.00000000000E+00 0. -1.
          2   -1    0    0  501    0  0.00000000000E+00 -0.00000000000E+00 -0.21634619919E+04  0.21634619919E+04  0.00000000000E+00 0.  1.
    2000013    1    1    2    0    0 -0.54683451776E+03 -0.87250636132E+03 -0.11655411386E+04  0.18224383353E+04  0.95000000000E+03 0.  0.
   -2000013    1    1    2    0    0  0.54683451776E+03  0.87250636132E+03  0.63491406314E+02  0.14024359162E+04  0.95000000000E+03 0.  0.
<mgrwt>
<rscale>  0 0.30307260E+04</rscale>
<asrwt>0</asrwt>
<pdfrwt beam="2">  1        2 0.33284031E+00 0.30307260E+04</pdfrwt>
<pdfrwt beam="1">  1       -2 0.16329419E+00 0.30307260E+04</pdfrwt>
<totfact> 0.11012954E+00</totfact>
</mgrwt>
</event>
<event>
 4    1  0.1308745E-008  0.1937793E+04  0.7816531E-02  0.8636270E-01
          2   -1    0    0  501    0  0.00000000000E+00  0.00000000000E+00  0.47298776066E+04  0.47298776066E+04  0.00000000000E+00 0.  1.
         -2   -1    0    0    0  501 -0.00000000000E+00 -0.00000000000E+00 -0.19847450632E+03  0.19847450632E+03  0.00000000000E+00 0. -1.
    2000013    1    1    2    0    0 -0.17972491142E+03  0.61822076519E+02  0.22359212576E+04  0.24367943867E+04  0.95000000000E+03 0.  0.
   -2000013    1    1    2    0    0  0.17972491142E+03 -0.61822076519E+02  0.22954818427E+04  0.24915577262E+04  0.95000000000E+03 0.  0.
<mgrwt>
<rscale>  0 0.19377927E+04</rscale>
<asrwt>0</asrwt>
<pdfrwt beam="1">  1        2 0.72767339E+00 0.19377927E+04</pdfrwt>
<pdfrwt beam="2">  1       -2 0.30534543E-01 0.19377927E+04</pdfrwt>
<totfact> 0.67466408E-01</totfact>
</mgrwt>
</event>
<event>
 4    1  0.1308745E-008  0.2422594E+04  0.7816531E-02  0.8431093E-01
          2   -1    0    0  501    0  0.00000000000E+00  0.00000000000E+00  0.14365560248E+04  0.14365560248E+04  0.00000000000E+00 0.  1.
         -2   -1    0    0    0  501 -0.00000000000E+00 -0.00000000000E+00 -0.10213597123E+04  0.10213597123E+04  0.00000000000E+00 0. -1.
    2000013    1    1    2    0    0  0.71128573689E+03 -0.11977320371E+03 -0.63494127239E+01  0.11928173938E+04  0.95000000000E+03 0.  0.
   -2000013    1    1    2    0    0 -0.71128573689E+03  0.11977320371E+03  0.42154572523E+03  0.12650983433E+04  0.95000000000E+03 0.  0.
<mgrwt>
<rscale>  0 0.24225940E+04</rscale>
<asrwt>0</asrwt>
<pdfrwt beam="1">  1        2 0.22100862E+00 0.24225940E+04</pdfrwt>
<pdfrwt beam="2">  1       -2 0.15713226E+00 0.24225940E+04</pdfrwt>
<totfact> 0.32755656E+00</totfact>
</mgrwt>
</event>
<event>
 4    1  0.1308745E-008  0.2139456E+04  0.7816531E-02  0.8544059E-01
          2   -1    0    0  501    0  0.00000000000E+00  0.00000000000E+00  0.17139299873E+04  0.17139299873E+04  0.00000000000E+00 0.  1.
         -2   -1    0    0    0  501 -0.00000000000E+00 -0.00000000000E+00 -0.66765725660E+03  0.66765725660E+03  0.00000000000E+00 0. -1.
    2000013    1    1    2    0    0 -0.24807040367E+03  0.34826435207E+03  0.79350440448E+03  0.13095710076E+04  0.95000000000E+03 0.  0.
   -2000013    1    1    2    0    0  0.24807040367E+03 -0.34826435207E+03  0.25276832622E+03  0.10720162363E+04  0.95000000000E+03 0.  0.
<mgrwt>
<rscale>  0 0.21394558E+04</rscale>
<asrwt>0</asrwt>
<pdfrwt beam="1">  1        2 0.26368154E+00 0.21394558E+04</pdfrwt>
<pdfrwt beam="2">  1       -2 0.10271650E+00 0.21394558E+04</pdfrwt>
<totfact> 0.68572354E+00</totfact>
</mgrwt>
</event>
<event>
 4    1  0.1308745E-008  0.2336774E+04  0.7816531E-02  0.8463561E-01
          2   -1    0    0  501    0  0.00000000000E+00  0.00000000000E+00  0.19976696236E+04  0.19976696236E+04  0.00000000000E+00 0.  1.
         -2   -1    0    0    0  501 -0.00000000000E+00 -0.00000000000E+00 -0.68336022954E+03  0.68336022954E+03  0.00000000000E+00 0. -1.
    2000013    1    1    2    0    0 -0.32602288584E+03 -0.57776880734E+03  0.48497908725E+03  0.12561100397E+04  0.95000000000E+03 0.  0.
   -2000013    1    1    2    0    0  0.32602288584E+03  0.57776880734E+03  0.82933030676E+03  0.14249198134E+04  0.95000000000E+03 0.  0.
<mgrwt>
<rscale>  0 0.23367738E+04</rscale>
<asrwt>0</asrwt>
<pdfrwt beam="1">  1        2 0.30733379E+00 0.23367738E+04</pdfrwt>
<pdfrwt beam="2">  1       -2 0.10513234E+00 0.23367738E+04</pdfrwt>
<totfact> 0.44388587E+00</totfact>
</mgrwt>
</event>
<event>
 4    1  0.1308745E-008  0.2624649E+04  0.7816531E-02  0.8359877E-01
         -2   -1    0    0    0  501 -0.00000000000E+00  0.00000000000E+00  0.79035306175E+03  0.79035306175E+03  0.00000000000E+00 0. -1.
          2   -1    0    0  501    0  0.00000000000E+00 -0.00000000000E+00 -0.21790199123E+04  0.21790199123E+04  0.00000000000E+00 0.  1.
    2000013    1    1    2    0    0  0.64860774477E+03 -0.41323624506E+03 -0.12348243169E+04  0.17374542568E+04  0.95000000000E+03 0.  0.
   -2000013    1    1    2    0    0 -0.64860774477E+03  0.41323624506E+03 -0.15384253366E+03  0.12319187173E+04  0.95000000000E+03 0.  0.
<mgrwt>
<rscale>  0 0.26246486E+04</rscale>
<asrwt>0</asrwt>
<pdfrwt beam="2">  1        2 0.33523383E+00 0.26246486E+04</pdfrwt>
<pdfrwt beam="1">  1       -2 0.12159278E+00 0.26246486E+04</pdfrwt>
<totfact> 0.24066295E+00</totfact>
</mgrwt>
</event>
<event>
 4    1  0.1308745E-008  0.2268349E+04  0.7816531E-02  0.8490506E-01
         -2   -1    0    0    0  501 -0.00000000000E+00  0.00000000000E+00  0.13970074529E+04  0.13970074529E+04  0.00000000000E+00 0. -1.
          2   -1    0    0  501    0  0.00000000000E+00 -0.00000000000E+00 -0.92079079518E+03  0.92079079518E+03  0.00000000000E+00 0.  1.
    2000013    1    1    2    0    0 -0.26808759624E+03  0.49452911599E+03  0.50342546935E+03  0.12134113931E+04  0.95000000000E+03 0.  0.
   -2000013    1    1    2    0    0  0.26808759624E+03 -0.49452911599E+03 -0.27208811677E+02  0.11043868549E+04  0.95000000000E+03 0.  0.
<mgrwt>
<rscale>  0 0.22683488E+04</rscale>
<asrwt>0</asrwt>
<pdfrwt beam="2">  1        2 0.14166012E+00 0.22683488E+04</pdfrwt>
<pdfrwt beam="1">  1       -2 0.21492422E+00 0.22683488E+04</pdfrwt>
<totfact> 0.27467479E+00</totfact>
</mgrwt>
</event>
<event>
 4    1  0.1308745E-008  0.2263952E+04  0.7816531E-02  0.8492271E-01
          2   -1    0    0  501    0  0.00000000000E+00  0.00000000000E+00  0.22375624573E+04  0.22375624573E+04  0.00000000000E+00 0.  1.
         -2   -1    0    0    0  501 -0.00000000000E+00 -0.00000000000E+00 -0.57266340417E+03  0.57266340417E+03  0.00000000000E+00 0. -1.
    2000013    1    1    2    0    0  0.51153511132E+03 -0.19422248870E+03  0.11823960933E+04  0.16124363760E+04  0.95000000000E+03 0.  0.
   -2000013    1    1    2    0    0 -0.51153511132E+03  0.19422248870E+03  0.48250295982E+03  0.11977894855E+04  0.95000000000E+03 0.  0.
<mgrwt>
<rscale>  0 0.22639524E+04</rscale>
<asrwt>0</asrwt>
<pdfrwt beam="1">  1        2 0.34424037E+00 0.22639524E+04</pdfrwt>
<pdfrwt beam="2">  1       -2 0.88102063E-01 0.22639524E+04</pdfrwt>
<totfact> 0.49631705E+00</totfact>
</mgrwt>
</event>
<event>
 4    1  0.1308745E-008  0.2460142E+04  0.7816531E-02  0.8417324E-01
          2   -1    0    0  501    0  0.00000000000E+00  0.00000000000E+00  0.35111216949E+04  0.35111216949E+04  0.00000000000E+00 0.  1.
         -2   -1    0    0    0  501 -0.00000000000E+00 -0.00000000000E+00 -0.43093766805E+03  0.43093766805E+03  0.00000000000E+00 0. -1.
    2000013    1    1    2    0    0  0.13412574389E+03 -0.76338544338E+03  0.13812426359E+04  0.18469104660E+04  0.95000000000E+03 0.  0.
   -2000013    1    1    2    0    0 -0.13412574389E+03  0.76338544338E+03  0.16989413910E+04  0.20951488969E+04  0.95000000000E+03 0.  0.
<mgrwt>
<rscale>  0 0.24601419E+04</rscale>
<asrwt>0</asrwt>
<pdfrwt beam="1">  1        2 0.54017255E+00 0.24601419E+04</pdfrwt>
<pdfrwt beam="2">  1       -2 0.66298105E-01 0.24601419E+04</pdfrwt>
<totfact> 0.14971242E+00</totfact>
</mgrwt>
</event>
<event>
 4    1  0.1308745E-008  0.3146862E+04  0.7816531E-02  0.8202993E-01
         -2   -1    0    0    0  501 -0.00000000000E+00  0.00000000000E+00  0.67065006672E+03  0.67065006672E+03  0.00000000000E+00 0. -1.
          2   -1    0    0  501    0  0.00000000000E+00 -0.00000000000E+00 -0.36914717352E+04  0.36914717352E+04  0.00000000000E+00 0.  1.
    2000013    1    1    2    0    0  0.11966959682E+04  0.32064574422E+03 -0.12391622789E+04  0.19932180229E+04  0.95000000000E+03 0.  0.
   -2000013    1    1    2    0    0 -0.11966959682E+04 -0.32064574422E+03 -0.17816593896E+04  0.23689037790E+04  0.95000000000E+03 0.  0.
<mgrwt>
<rscale>  0 0.31468624E+04</rscale>
<asrwt>0</asrwt>
<pdfrwt beam="2">  1        2 0.56791873E+00 0.31468624E+04</pdfrwt>
<pdfrwt beam="1">  1       -2 0.10317693E+00 0.31468624E+04</pdfrwt>
<totfact> 0.38348804E-01</totfact>
</mgrwt>
</event>
<event>
 4    1  0.1308745E-008  0.2551679E+04  0.7816531E-02  0.8384802E-01
         -1   -1    0    0    0  501 -0.00000000000E+00  0.00000000000E+00  0.15369176249E+04  0.15369176249E+04  0.00000000000E+00 0. -1.
          1   -1    0    0  501    0  0.00000000000E+00 -0.00000000000E+00 -0.10591112871E+04  0.10591112871E+04  0.00000000000E+00 0.  1.
    2000013    1    1    2    0    0 -0.78728035433E+03 -0.31581734310E+03  0.16198587871E+03  0.12838576149E+04  0.95000000000E+03 0.  0.
   -2000013    1    1    2    0    0  0.78728035433E+03  0.31581734310E+03  0.31582045910E+03  0.13121712971E+04  0.95000000000E+03 0.  0.
<mgrwt>
<rscale>  0 0.25516793E+04</rscale>
<asrwt>0</asrwt>
<pdfrwt beam="2">  1        1 0.16294020E+00 0.25516793E+04</pdfrwt>
<pdfrwt beam="1">  1       -1 0.23644887E+00 0.25516793E+04</pdfrwt>
<totfact> 0.10304975E+00</totfact>
</mgrwt>
</event>
<event>
 4    1  0.1308745E-008  0.2115688E+04  0.7816531E-02  0.8554364E-01
         -2   -1    0    0    0  501 -0.00000000000E+00  0.00000000000E+00  0.49433963176E+03  0.49433963176E+03  0.00000000000E+00 0. -1.
          2   -1    0    0  501    0  0.00000000000E+00 -0.00000000000E+00 -0.22636939279E+04  0.22636939279E+04  0.00000000000E+00 0.  1.
    2000013    1    1    2    0    0 -0.26723855219E+03 -0.38003575619E+03 -0.85043401741E+03  0.13570488708E+04  0.95000000000E+03 0.  0.
   -2000013    1    1    2    0    0  0.26723855219E+03  0.38003575619E+03 -0.91892027872E+03  0.14009846889E+04  0.95000000000E+03 0.  0.
<mgrwt>
<rscale>  0 0.21156877E+04</rscale>
<asrwt>0</asrwt>
<pdfrwt beam="2">  1        2 0.34826062E+00 0.21156877E+04</pdfrwt>
<pdfrwt beam="1">  1       -2 0.76052248E-01 0.21156877E+04</pdfrwt>
<totfact> 0.67729201E+00</totfact>
</mgrwt>
</event>
<event>
 4    1  0.1308745E-008  0.2332227E+04  0.7816531E-02  0.8465322E-01
          2   -1    0    0  501    0  0.00000000000E+00  0.00000000000E+00  0.10059373471E+04  0.10059373471E+04  0.00000000000E+00 0. -1.
         -2   -1    0    0    0  501 -0.00000000000E+00 -0.00000000000E+00 -0.13517950491E+04  0.13517950491E+04  0.00000000000E+00 0.  1.
    2000013    1    1    2    0    0  0.53308104280E+03 -0.37912557731E+03  0.43862271367E+00  0.11534347810E+04  0.95000000000E+03 0.  0.
   -2000013    1    1    2    0    0 -0.53308104280E+03  0.37912557731E+03 -0.34629632477E+03  0.12042976153E+04  0.95000000000E+03 0.  0.
<mgrwt>
<rscale>  0 0.23322274E+04</rscale>
<asrwt>0</asrwt>
<pdfrwt beam="1">  1        2 0.15475959E+00 0.23322274E+04</pdfrwt>
<pdfrwt beam="2">  1       -2 0.20796847E+00 0.23322274E+04</pdfrwt>
<totfact> 0.26638532E+00</totfact>
</mgrwt>
</event>
<event>
 4    1  0.1308745E-008  0.2903725E+04  0.7816531E-02  0.8271770E-01
         -2   -1    0    0    0  501 -0.00000000000E+00  0.00000000000E+00  0.90527804940E+03  0.90527804940E+03  0.00000000000E+00 0. -1.
          2   -1    0    0  501    0  0.00000000000E+00 -0.00000000000E+00 -0.23284618443E+04  0.23284618443E+04  0.00000000000E+00 0.  1.
    2000013    1    1    2    0    0  0.99001900701E+03  0.81112467590E+02 -0.19080202102E+03  0.13876679278E+04  0.95000000000E+03 0.  0.
   -2000013    1    1    2    0    0 -0.99001900701E+03 -0.81112467590E+02 -0.12323817739E+04  0.18460719659E+04  0.95000000000E+03 0.  0.
<mgrwt>
<rscale>  0 0.29037255E+04</rscale>
<asrwt>0</asrwt>
<pdfrwt beam="2">  1        2 0.35822490E+00 0.29037255E+04</pdfrwt>
<pdfrwt beam="1">  1       -2 0.13927355E+00 0.29037255E+04</pdfrwt>
<totfact> 0.13717877E+00</totfact>
</mgrwt>
</event>
<event>
 4    1  0.1308745E-008  0.2770640E+04  0.7816531E-02  0.8312442E-01
         -2   -1    0    0    0  501 -0.00000000000E+00  0.00000000000E+00  0.13008965730E+04  0.13008965730E+04  0.00000000000E+00 0. -1.
          2   -1    0    0  501    0  0.00000000000E+00 -0.00000000000E+00 -0.14752226025E+04  0.14752226025E+04  0.00000000000E+00 0.  1.
    2000013    1    1    2    0    0 -0.30688500648E+03  0.90143162019E+03 -0.41926171719E+03  0.14089136810E+04  0.95000000000E+03 0.  0.
   -2000013    1    1    2    0    0  0.30688500648E+03 -0.90143162019E+03  0.24493568769E+03  0.13672054945E+04  0.95000000000E+03 0.  0.
<mgrwt>
<rscale>  0 0.27706404E+04</rscale>
<asrwt>0</asrwt>
<pdfrwt beam="2">  1        2 0.22695732E+00 0.27706404E+04</pdfrwt>
<pdfrwt beam="1">  1       -2 0.20013793E+00 0.27706404E+04</pdfrwt>
<totfact> 0.15179159E+00</totfact>
</mgrwt>
</event>
<event>
 4    1  0.1308745E-008  0.2705275E+04  0.7816531E-02  0.8333296E-01
         -2   -1    0    0    0  501 -0.00000000000E+00  0.00000000000E+00  0.12766347161E+04  0.12766347161E+04  0.00000000000E+00 0. -1.
          2   -1    0    0  501    0  0.00000000000E+00 -0.00000000000E+00 -0.14331646639E+04  0.14331646639E+04  0.00000000000E+00 0.  1.
    2000013    1    1    2    0    0 -0.69570391397E+03 -0.46591570888E+03 -0.55450352775E+03  0.13824093265E+04  0.95000000000E+03 0.  0.
   -2000013    1    1    2    0    0  0.69570391397E+03  0.46591570888E+03  0.39797357998E+03  0.13273900535E+04  0.95000000000E+03 0.  0.
<mgrwt>
<rscale>  0 0.27052747E+04</rscale>
<asrwt>0</asrwt>
<pdfrwt beam="2">  1        2 0.22048687E+00 0.27052747E+04</pdfrwt>
<pdfrwt beam="1">  1       -2 0.19640534E+00 0.27052747E+04</pdfrwt>
<totfact> 0.17065148E+00</totfact>
</mgrwt>
</event>
<event>
 4    1  0.1308745E-008  0.2588339E+04  0.7816531E-02  0.8372173E-01
         -2   -1    0    0    0  501 -0.00000000000E+00  0.00000000000E+00  0.11881863044E+04  0.11881863044E+04  0.00000000000E+00 0. -1.
          2   -1    0    0  501    0  0.00000000000E+00 -0.00000000000E+00 -0.14096055950E+04  0.14096055950E+04  0.00000000000E+00 0.  1.
    2000013    1    1    2    0    0  0.63958798688E+03 -0.43687016470E+03  0.30607288314E+03  0.12633720527E+04  0.95000000000E+03 0.  0.
   -2000013    1    1    2    0    0 -0.63958798688E+03  0.43687016470E+03 -0.52749217376E+03  0.13344198467E+04  0.95000000000E+03 0.  0.
<mgrwt>
<rscale>  0 0.25883385E+04</rscale>
<asrwt>0</asrwt>
<pdfrwt beam="2">  1        2 0.21686240E+00 0.25883385E+04</pdfrwt>
<pdfrwt beam="1">  1       -2 0.18279789E+00 0.25883385E+04</pdfrwt>
<totfact> 0.21947232E+00</totfact>
</mgrwt>
</event>
<event>
 4    1  0.1308745E-008  0.2171052E+04  0.7816531E-02  0.8530574E-01
          2   -1    0    0  501    0  0.00000000000E+00  0.00000000000E+00  0.14056179589E+04  0.14056179589E+04  0.00000000000E+00 0.  1.
         -2   -1    0    0    0  501 -0.00000000000E+00 -0.00000000000E+00 -0.83832639230E+03  0.83832639230E+03  0.00000000000E+00 0. -1.
    2000013    1    1    2    0    0 -0.14780402936E+03 -0.46518285789E+03  0.83160237772E+02  0.10712874253E+04  0.95000000000E+03 0.  0.
   -2000013    1    1    2    0    0  0.14780402936E+03  0.46518285789E+03  0.48413132879E+03  0.11726569259E+04  0.95000000000E+03 0.  0.
<mgrwt>
<rscale>  0 0.21710519E+04</rscale>
<asrwt>0</asrwt>
<pdfrwt beam="1">  1        2 0.21624892E+00 0.21710519E+04</pdfrwt>
<pdfrwt beam="2">  1       -2 0.12897329E+00 0.21710519E+04</pdfrwt>
<totfact> 0.58325264E+00</totfact>
</mgrwt>
</event>
<event>
 4    1  0.1308745E-008  0.2558300E+04  0.7816531E-02  0.8382505E-01
         -2   -1    0    0    0  501 -0.00000000000E+00  0.00000000000E+00  0.56512091826E+03  0.56512091826E+03  0.00000000000E+00 0. -1.
          2   -1    0    0  501    0  0.00000000000E+00 -0.00000000000E+00 -0.28953540071E+04  0.28953540071E+04  0.00000000000E+00 0.  1.
    2000013    1    1    2    0    0  0.13856382283E+03 -0.70703557219E+03 -0.17917668128E+04  0.21522145675E+04  0.95000000000E+03 0.  0.
   -2000013    1    1    2    0    0 -0.13856382283E+03  0.70703557219E+03 -0.53846627603E+03  0.13082603578E+04  0.95000000000E+03 0.  0.
<mgrwt>
<rscale>  0 0.25583003E+04</rscale>
<asrwt>0</asrwt>
<pdfrwt beam="2">  1        2 0.44543908E+00 0.25583003E+04</pdfrwt>
<pdfrwt beam="1">  1       -2 0.86941680E-01 0.25583003E+04</pdfrwt>
<totfact> 0.20538933E+00</totfact>
</mgrwt>
</event>
<event>
 4    1  0.1308745E-008  0.2621183E+04  0.7816531E-02  0.8361041E-01
         -2   -1    0    0    0  501 -0.00000000000E+00  0.00000000000E+00  0.12734410273E+04  0.12734410273E+04  0.00000000000E+00 0. -1.
          2   -1    0    0  501    0  0.00000000000E+00 -0.00000000000E+00 -0.13488252945E+04  0.13488252945E+04  0.00000000000E+00 0.  1.
    2000013    1    1    2    0    0 -0.47872068663E+03 -0.16473040372E+03  0.71017288953E+03  0.12896337212E+04  0.95000000000E+03 0.  0.
   -2000013    1    1    2    0    0  0.47872068663E+03  0.16473040372E+03 -0.78555715676E+03  0.13326326006E+04  0.95000000000E+03 0.  0.
<mgrwt>
<rscale>  0 0.26211825E+04</rscale>
<asrwt>0</asrwt>
<pdfrwt beam="2">  1        2 0.20751158E+00 0.26211825E+04</pdfrwt>
<pdfrwt beam="1">  1       -2 0.19591400E+00 0.26211825E+04</pdfrwt>
<totfact> 0.19354201E+00</totfact>
</mgrwt>
</event>
<event>
 4    1  0.1308745E-008  0.3820618E+04  0.7816531E-02  0.8041745E-01
          2   -1    0    0  501    0  0.00000000000E+00  0.00000000000E+00  0.30924293908E+04  0.30924293908E+04  0.00000000000E+00 0.  1.
         -2   -1    0    0    0  501 -0.00000000000E+00 -0.00000000000E+00 -0.11800690002E+04  0.11800690002E+04  0.00000000000E+00 0. -1.
    2000013    1    1    2    0    0  0.15229489474E+04  0.26549359554E+03  0.28809233095E+03  0.18372146137E+04  0.95000000000E+03 0.  0.
   -2000013    1    1    2    0    0 -0.15229489474E+04 -0.26549359554E+03  0.16242680597E+04  0.24352837772E+04  0.95000000000E+03 0.  0.
<mgrwt>
<rscale>  0 0.38206178E+04</rscale>
<asrwt>0</asrwt>
<pdfrwt beam="1">  1        2 0.47575837E+00 0.38206178E+04</pdfrwt>
<pdfrwt beam="2">  1       -2 0.18154908E+00 0.38206178E+04</pdfrwt>
<totfact> 0.21532603E-01</totfact>
</mgrwt>
</event>
<event>
 4    1  0.1308745E-008  0.2531202E+04  0.7816531E-02  0.8391953E-01
          2   -1    0    0  501    0  0.00000000000E+00  0.00000000000E+00  0.45078205830E+04  0.45078205830E+04  0.00000000000E+00 0.  1.
         -2   -1    0    0    0  501 -0.00000000000E+00 -0.00000000000E+00 -0.35532601847E+03  0.35532601847E+03  0.00000000000E+00 0. -1.
    2000013    1    1    2    0    0 -0.63309597992E+03 -0.51999970172E+03  0.23979438934E+04  0.27062603580E+04  0.95000000000E+03 0.  0.
   -2000013    1    1    2    0    0  0.63309597992E+03  0.51999970172E+03  0.17545506711E+04  0.21568862434E+04  0.95000000000E+03 0.  0.
<mgrwt>
<rscale>  0 0.25312020E+04</rscale>
<asrwt>0</asrwt>
<pdfrwt beam="1">  1        2 0.69351082E+00 0.25312020E+04</pdfrwt>
<pdfrwt beam="2">  1       -2 0.54665544E-01 0.25312020E+04</pdfrwt>
<totfact> 0.34055165E-01</totfact>
</mgrwt>
</event>
<event>
 4    1  0.1308745E-008  0.2310214E+04  0.7816531E-02  0.8473905E-01
          2   -1    0    0  501    0  0.00000000000E+00  0.00000000000E+00  0.22829734718E+04  0.22829734718E+04  0.00000000000E+00 0.  1.
         -2   -1    0    0    0  501 -0.00000000000E+00 -0.00000000000E+00 -0.58444475956E+03  0.58444475956E+03  0.00000000000E+00 0. -1.
    2000013    1    1    2    0    0  0.37970596193E+03 -0.52678684076E+03  0.72458240573E+03  0.13598531744E+04  0.95000000000E+03 0.  0.
   -2000013    1    1    2    0    0 -0.37970596193E+03  0.52678684076E+03  0.97394630652E+03  0.15075650570E+04  0.95000000000E+03 0.  0.
<mgrwt>
<rscale>  0 0.23102137E+04</rscale>
<asrwt>0</asrwt>
<pdfrwt beam="1">  1        2 0.35122668E+00 0.23102137E+04</pdfrwt>
<pdfrwt beam="2">  1       -2 0.89914580E-01 0.23102137E+04</pdfrwt>
<totfact> 0.44468787E+00</totfact>
</mgrwt>
</event>
<event>
 4    1  0.1308745E-008  0.2154388E+04  0.7816531E-02  0.8537656E-01
         -2   -1    0    0    0  501 -0.00000000000E+00  0.00000000000E+00  0.71467507401E+03  0.71467507401E+03  0.00000000000E+00 0. -1.
          2   -1    0    0  501    0  0.00000000000E+00 -0.00000000000E+00 -0.16236008166E+04  0.16236008166E+04  0.00000000000E+00 0.  1.
    2000013    1    1    2    0    0 -0.39794688596E+03 -0.27049752397E+03 -0.63053274029E+03  0.12375791575E+04  0.95000000000E+03 0.  0.
   -2000013    1    1    2    0    0  0.39794688596E+03  0.27049752397E+03 -0.27839300230E+03  0.11006967331E+04  0.95000000000E+03 0.  0.
<mgrwt>
<rscale>  0 0.21543881E+04</rscale>
<asrwt>0</asrwt>
<pdfrwt beam="2">  1        2 0.24978474E+00 0.21543881E+04</pdfrwt>
<pdfrwt beam="1">  1       -2 0.10995001E+00 0.21543881E+04</pdfrwt>
<totfact> 0.65288531E+00</totfact>
</mgrwt>
</event>
<event>
 4    1  0.1308745E-008  0.2681014E+04  0.7816531E-02  0.8341192E-01
         -1   -1    0    0    0  501 -0.00000000000E+00  0.00000000000E+00  0.12281436577E+04  0.12281436577E+04  0.00000000000E+00 0. -1.
          1   -1    0    0  501    0  0.00000000000E+00 -0.00000000000E+00 -0.14631502333E+04  0.14631502333E+04  0.00000000000E+00 0.  1.
    2000013    1    1    2    0    0  0.38233577067E+03 -0.26405461836E+03  0.70939869787E+03  0.12734410059E+04  0.95000000000E+03 0.  0.
   -2000013    1    1    2    0    0 -0.38233577067E+03  0.26405461836E+03 -0.94440527346E+03  0.14178528850E+04  0.95000000000E+03 0.  0.
<mgrwt>
<rscale>  0 0.26810137E+04</rscale>
<asrwt>0</asrwt>
<pdfrwt beam="2">  1        1 0.22510004E+00 0.26810137E+04</pdfrwt>
<pdfrwt beam="1">  1       -1 0.18894518E+00 0.26810137E+04</pdfrwt>
<totfact> 0.10909154E+00</totfact>
</mgrwt>
</event>
<event>
 4    1  0.1308745E-008  0.2425013E+04  0.7816531E-02  0.8430198E-01
          2   -1    0    0  501    0  0.00000000000E+00  0.00000000000E+00  0.30810582872E+04  0.30810582872E+04  0.00000000000E+00 0.  1.
         -2   -1    0    0    0  501 -0.00000000000E+00 -0.00000000000E+00 -0.47716443001E+03  0.47716443001E+03  0.00000000000E+00 0. -1.
    2000013    1    1    2    0    0  0.69050565977E+03  0.22625972818E+03  0.10096633758E+04  0.15652193659E+04  0.95000000000E+03 0.  0.
   -2000013    1    1    2    0    0 -0.69050565977E+03 -0.22625972818E+03  0.15942304813E+04  0.19930033513E+04  0.95000000000E+03 0.  0.
<mgrwt>
<rscale>  0 0.24250125E+04</rscale>
<asrwt>0</asrwt>
<pdfrwt beam="1">  1        2 0.47400895E+00 0.24250125E+04</pdfrwt>
<pdfrwt beam="2">  1       -2 0.73409914E-01 0.24250125E+04</pdfrwt>
<totfact> 0.23263027E+00</totfact>
</mgrwt>
</event>
<event>
 4    1  0.1308745E-008  0.3088285E+04  0.7816531E-02  0.8218960E-01
         -2   -1    0    0    0  501 -0.00000000000E+00  0.00000000000E+00  0.97248261867E+03  0.97248261867E+03  0.00000000000E+00 0. -1.
          2   -1    0    0  501    0  0.00000000000E+00 -0.00000000000E+00 -0.24518441253E+04  0.24518441253E+04  0.00000000000E+00 0.  1.
    2000013    1    1    2    0    0 -0.12772245904E+03 -0.10766774012E+04 -0.13533743364E+04  0.19772883824E+04  0.95000000000E+03 0.  0.
   -2000013    1    1    2    0    0  0.12772245904E+03  0.10766774012E+04 -0.12598717018E+03  0.14470383615E+04  0.95000000000E+03 0.  0.
<mgrwt>
<rscale>  0 0.30882848E+04</rscale>
<asrwt>0</asrwt>
<pdfrwt beam="2">  1        2 0.37720678E+00 0.30882848E+04</pdfrwt>
<pdfrwt beam="1">  1       -2 0.14961271E+00 0.30882848E+04</pdfrwt>
<totfact> 0.95143990E-01</totfact>
</mgrwt>
</event>
<event>
 4    1  0.1308745E-008  0.3165685E+04  0.7816531E-02  0.8197939E-01
         -2   -1    0    0    0  501 -0.00000000000E+00  0.00000000000E+00  0.15989901491E+04  0.15989901491E+04  0.00000000000E+00 0. -1.
          2   -1    0    0  501    0  0.00000000000E+00 -0.00000000000E+00 -0.15668575183E+04  0.15668575183E+04  0.00000000000E+00 0.  1.
    2000013    1    1    2    0    0  0.11977857906E+04  0.20052139059E+03 -0.34170916615E+03  0.15792924943E+04  0.95000000000E+03 0.  0.
   -2000013    1    1    2    0    0 -0.11977857906E+04 -0.20052139059E+03  0.37384179694E+03  0.15865551731E+04  0.95000000000E+03 0.  0.
<mgrwt>
<rscale>  0 0.31656846E+04</rscale>
<asrwt>0</asrwt>
<pdfrwt beam="2">  1        2 0.24105500E+00 0.31656846E+04</pdfrwt>
<pdfrwt beam="1">  1       -2 0.24599849E+00 0.31656846E+04</pdfrwt>
<totfact> 0.66854208E-01</totfact>
</mgrwt>
</event>
<event>
 4    1  0.1308745E-008  0.2815209E+04  0.7816531E-02  0.8298562E-01
          2   -1    0    0  501    0  0.00000000000E+00  0.00000000000E+00  0.89141243081E+03  0.89141243081E+03  0.00000000000E+00 0.  1.
         -2   -1    0    0    0  501 -0.00000000000E+00 -0.00000000000E+00 -0.22227091588E+04  0.22227091588E+04  0.00000000000E+00 0. -1.
    2000013    1    1    2    0    0  0.35373612702E+03 -0.93528517440E+03 -0.97648817959E+03  0.16899457890E+04  0.95000000000E+03 0.  0.
   -2000013    1    1    2    0    0 -0.35373612702E+03  0.93528517440E+03 -0.35480854845E+03  0.14241758006E+04  0.95000000000E+03 0.  0.
<mgrwt>
<rscale>  0 0.28152091E+04</rscale>
<asrwt>0</asrwt>
<pdfrwt beam="1">  1        2 0.13714037E+00 0.28152091E+04</pdfrwt>
<pdfrwt beam="2">  1       -2 0.34195525E+00 0.28152091E+04</pdfrwt>
<totfact> 0.45145793E-01</totfact>
</mgrwt>
</event>
<event>
 4    1  0.1308745E-008  0.2105702E+04  0.7816531E-02  0.8558736E-01
          2   -1    0    0  501    0  0.00000000000E+00  0.00000000000E+00  0.72702625636E+03  0.72702625636E+03  0.00000000000E+00 0.  1.
         -2   -1    0    0    0  501 -0.00000000000E+00 -0.00000000000E+00 -0.15246982367E+04  0.15246982367E+04  0.00000000000E+00 0. -1.
    2000013    1    1    2    0    0 -0.67194552338E+02 -0.44262736969E+03 -0.31908861994E+03  0.10976117910E+04  0.95000000000E+03 0.  0.
   -2000013    1    1    2    0    0  0.67194552338E+02  0.44262736969E+03 -0.47858336037E+03  0.11541127021E+04  0.95000000000E+03 0.  0.
<mgrwt>
<rscale>  0 0.21057024E+04</rscale>
<asrwt>0</asrwt>
<pdfrwt beam="1">  1        2 0.11185020E+00 0.21057024E+04</pdfrwt>
<pdfrwt beam="2">  1       -2 0.23456895E+00 0.21057024E+04</pdfrwt>
<totfact> 0.28778429E+00</totfact>
</mgrwt>
</event>
<event>
 4    1  0.1308745E-008  0.3310738E+04  0.7816531E-02  0.8160168E-01
          2   -1    0    0  501    0  0.00000000000E+00  0.00000000000E+00  0.20645865952E+04  0.20645865952E+04  0.00000000000E+00 0.  1.
         -2   -1    0    0    0  501 -0.00000000000E+00 -0.00000000000E+00 -0.13272617998E+04  0.13272617998E+04  0.00000000000E+00 0. -1.
    2000013    1    1    2    0    0  0.59582923523E+03 -0.12173344908E+04  0.39819890685E+03  0.17023448856E+04  0.95000000000E+03 0.  0.
   -2000013    1    1    2    0    0 -0.59582923523E+03  0.12173344908E+04  0.33912588864E+03  0.16895035094E+04  0.95000000000E+03 0.  0.
<mgrwt>
<rscale>  0 0.33107382E+04</rscale>
<asrwt>0</asrwt>
<pdfrwt beam="1">  1        2 0.31762871E+00 0.33107382E+04</pdfrwt>
<pdfrwt beam="2">  1       -2 0.20419412E+00 0.33107382E+04</pdfrwt>
<totfact> 0.64078865E-01</totfact>
</mgrwt>
</event>
<event>
 4    1  0.1308745E-008  0.2737026E+04  0.7816531E-02  0.8323090E-01
          2   -1    0    0  501    0  0.00000000000E+00  0.00000000000E+00  0.44102962452E+04  0.44102962452E+04  0.00000000000E+00 0.  1.
         -2   -1    0    0    0  501 -0.00000000000E+00 -0.00000000000E+00 -0.42464905638E+03  0.42464905638E+03  0.00000000000E+00 0. -1.
    2000013    1    1    2    0    0 -0.40693421489E+03 -0.65029546739E+03  0.30844100659E+04  0.33173129344E+04  0.95000000000E+03 0.  0.
   -2000013    1    1    2    0    0  0.40693421489E+03  0.65029546739E+03  0.90123712293E+03  0.15176323672E+04  0.95000000000E+03 0.  0.
<mgrwt>
<rscale>  0 0.27370262E+04</rscale>
<asrwt>0</asrwt>
<pdfrwt beam="1">  1        2 0.67850708E+00 0.27370262E+04</pdfrwt>
<pdfrwt beam="2">  1       -2 0.65330627E-01 0.27370262E+04</pdfrwt>
<totfact> 0.28406948E-01</totfact>
</mgrwt>
</event>
<event>
 4    1  0.1308745E-008  0.2216384E+04  0.7816531E-02  0.8511640E-01
         -2   -1    0    0    0  501 -0.00000000000E+00  0.00000000000E+00  0.49904183402E+03  0.49904183402E+03  0.00000000000E+00 0. -1.
          2   -1    0    0  501    0  0.00000000000E+00 -0.00000000000E+00 -0.24608948449E+04  0.24608948449E+04  0.00000000000E+00 0.  1.
    2000013    1    1    2    0    0 -0.52797295053E+03 -0.21337616303E+03 -0.93268898520E+03  0.14479963973E+04  0.95000000000E+03 0.  0.
   -2000013    1    1    2    0    0  0.52797295053E+03  0.21337616303E+03 -0.10291640257E+04  0.15119402816E+04  0.95000000000E+03 0.  0.
<mgrwt>
<rscale>  0 0.22163840E+04</rscale>
<asrwt>0</asrwt>
<pdfrwt beam="2">  1        2 0.37859921E+00 0.22163840E+04</pdfrwt>
<pdfrwt beam="1">  1       -2 0.76775666E-01 0.22163840E+04</pdfrwt>
<totfact> 0.50743895E+00</totfact>
</mgrwt>
</event>
<event>
 4    1  0.1308745E-008  0.2419865E+04  0.7816531E-02  0.8432104E-01
         -2   -1    0    0    0  501 -0.00000000000E+00  0.00000000000E+00  0.85362236125E+03  0.85362236125E+03  0.00000000000E+00 0. -1.
          2   -1    0    0  501    0  0.00000000000E+00 -0.00000000000E+00 -0.17149695990E+04  0.17149695990E+04  0.00000000000E+00 0.  1.
    2000013    1    1    2    0    0  0.67331810349E+03  0.32227621954E+03 -0.49960460524E+03  0.13074111793E+04  0.95000000000E+03 0.  0.
   -2000013    1    1    2    0    0 -0.67331810349E+03 -0.32227621954E+03 -0.36174263255E+03  0.12611807810E+04  0.95000000000E+03 0.  0.
<mgrwt>
<rscale>  0 0.24198648E+04</rscale>
<asrwt>0</asrwt>
<pdfrwt beam="2">  1        2 0.26384147E+00 0.24198648E+04</pdfrwt>
<pdfrwt beam="1">  1       -2 0.13132652E+00 0.24198648E+04</pdfrwt>
<totfact> 0.36561675E+00</totfact>
</mgrwt>
</event>
<event>
 4    1  0.1308745E-008  0.2212530E+04  0.7816531E-02  0.8513231E-01
         -2   -1    0    0    0  501 -0.00000000000E+00  0.00000000000E+00  0.38036015513E+03  0.38036015513E+03  0.00000000000E+00 0. -1.
          2   -1    0    0  501    0  0.00000000000E+00 -0.00000000000E+00 -0.32175358578E+04  0.32175358578E+04  0.00000000000E+00 0.  1.
    2000013    1    1    2    0    0 -0.49662582144E+03  0.26068557823E+03 -0.12852016780E+04  0.16937643078E+04  0.95000000000E+03 0.  0.
   -2000013    1    1    2    0    0  0.49662582144E+03 -0.26068557823E+03 -0.15519740247E+04  0.19041317051E+04  0.95000000000E+03 0.  0.
<mgrwt>
<rscale>  0 0.22125302E+04</rscale>
<asrwt>0</asrwt>
<pdfrwt beam="2">  1        2 0.49500553E+00 0.22125302E+04</pdfrwt>
<pdfrwt beam="1">  1       -2 0.58516946E-01 0.22125302E+04</pdfrwt>
<totfact> 0.31550969E+00</totfact>
</mgrwt>
</event>
<event>
 4    1  0.1308745E-008  0.2182624E+04  0.7816531E-02  0.8525695E-01
          2   -1    0    0  501    0  0.00000000000E+00  0.00000000000E+00  0.19975725466E+04  0.19975725466E+04  0.00000000000E+00 0. -1.
         -2   -1    0    0    0  501 -0.00000000000E+00 -0.00000000000E+00 -0.59620477302E+03  0.59620477302E+03  0.00000000000E+00 0.  1.
    2000013    1    1    2    0    0  0.36565398114E+02 -0.51156214264E+03  0.89018947602E+03  0.13992748684E+04  0.95000000000E+03 0.  0.
   -2000013    1    1    2    0    0 -0.36565398114E+02  0.51156214264E+03  0.51117829760E+03  0.11945024513E+04  0.95000000000E+03 0.  0.
<mgrwt>
<rscale>  0 0.21826244E+04</rscale>
<asrwt>0</asrwt>
<pdfrwt beam="1">  1        2 0.30731885E+00 0.21826244E+04</pdfrwt>
<pdfrwt beam="2">  1       -2 0.91723813E-01 0.21826244E+04</pdfrwt>
<totfact> 0.62040915E+00</totfact>
</mgrwt>
</event>
<event>
 4    1  0.1308745E-008  0.2355744E+04  0.7816531E-02  0.8456261E-01
         -2   -1    0    0    0  501 -0.00000000000E+00  0.00000000000E+00  0.99798245355E+03  0.99798245355E+03  0.00000000000E+00 0. -1.
          2   -1    0    0  501    0  0.00000000000E+00 -0.00000000000E+00 -0.13901870480E+04  0.13901870480E+04  0.00000000000E+00 0.  1.
    2000013    1    1    2    0    0  0.64904332069E+03 -0.24794853494E+03 -0.24307114504E+03  0.12017983565E+04  0.95000000000E+03 0.  0.
   -2000013    1    1    2    0    0 -0.64904332069E+03  0.24794853494E+03 -0.14913344943E+03  0.11863711451E+04  0.95000000000E+03 0.  0.
<mgrwt>
<rscale>  0 0.23557439E+04</rscale>
<asrwt>0</asrwt>
<pdfrwt beam="2">  1        2 0.21387493E+00 0.23557439E+04</pdfrwt>
<pdfrwt beam="1">  1       -2 0.15353576E+00 0.23557439E+04</pdfrwt>
<totfact> 0.37260095E+00</totfact>
</mgrwt>
</event>
<event>
 4    1  0.1308745E-008  0.3573744E+04  0.7816531E-02  0.8096532E-01
         -2   -1    0    0    0  501 -0.00000000000E+00  0.00000000000E+00  0.21739962480E+04  0.21739962480E+04  0.00000000000E+00 0. -1.
          2   -1    0    0  501    0  0.00000000000E+00 -0.00000000000E+00 -0.14686834010E+04  0.14686834010E+04  0.00000000000E+00 0.  1.
    2000013    1    1    2    0    0  0.19213565379E+03 -0.14366706920E+04  0.79633824846E+03  0.19072475961E+04  0.95000000000E+03 0.  0.
   -2000013    1    1    2    0    0 -0.19213565379E+03  0.14366706920E+04 -0.91025401389E+02  0.17354320529E+04  0.95000000000E+03 0.  0.
<mgrwt>
<rscale>  0 0.35737444E+04</rscale>
<asrwt>0</asrwt>
<pdfrwt beam="2">  1        2 0.22595129E+00 0.35737444E+04</pdfrwt>
<pdfrwt beam="1">  1       -2 0.33446096E+00 0.35737444E+04</pdfrwt>
<totfact> 0.21024454E-01</totfact>
</mgrwt>
</event>
<event>
 4    1  0.1308745E-008  0.2063474E+04  0.7816531E-02  0.8577506E-01
          2   -1    0    0  501    0  0.00000000000E+00  0.00000000000E+00  0.14941299611E+04  0.14941299611E+04  0.00000000000E+00 0.  1.
         -2   -1    0    0    0  501 -0.00000000000E+00 -0.00000000000E+00 -0.71244236107E+03  0.71244236107E+03  0.00000000000E+00 0. -1.
    2000013    1    1    2    0    0  0.13382837973E+03  0.37737222387E+03  0.43443395933E+03  0.11187281598E+04  0.95000000000E+03 0.  0.
   -2000013    1    1    2    0    0 -0.13382837973E+03 -0.37737222387E+03  0.34725364071E+03  0.10878441623E+04  0.95000000000E+03 0.  0.
<mgrwt>
<rscale>  0 0.20634742E+04</rscale>
<asrwt>0</asrwt>
<pdfrwt beam="1">  1        2 0.22986615E+00 0.20634742E+04</pdfrwt>
<pdfrwt beam="2">  1       -2 0.10960652E+00 0.20634742E+04</pdfrwt>
<totfact> 0.78366792E+00</totfact>
</mgrwt>
</event>
<event>
 4    1  0.1308745E-008  0.2712699E+04  0.7816531E-02  0.8330896E-01
          2   -1    0    0  501    0  0.00000000000E+00  0.00000000000E+00  0.92011862811E+03  0.92011862811E+03  0.00000000000E+00 0.  1.
         -2   -1    0    0    0  501 -0.00000000000E+00 -0.00000000000E+00 -0.19993988215E+04  0.19993988215E+04  0.00000000000E+00 0. -1.
    2000013    1    1    2    0    0  0.76816751381E+03  0.47726524122E+03 -0.91140404963E+03  0.15971915294E+04  0.95000000000E+03 0.  0.
   -2000013    1    1    2    0    0 -0.76816751381E+03 -0.47726524122E+03 -0.16787614377E+03  0.13223259203E+04  0.95000000000E+03 0.  0.
<mgrwt>
<rscale>  0 0.27126991E+04</rscale>
<asrwt>0</asrwt>
<pdfrwt beam="1">  1        2 0.14155671E+00 0.27126991E+04</pdfrwt>
<pdfrwt beam="2">  1       -2 0.30759981E+00 0.27126991E+04</pdfrwt>
<totfact> 0.71109938E-01</totfact>
</mgrwt>
</event>
<event>
 4    1  0.1308745E-008  0.2662505E+04  0.7816531E-02  0.8347274E-01
         -1   -1    0    0    0  501 -0.00000000000E+00  0.00000000000E+00  0.12702710309E+04  0.12702710309E+04  0.00000000000E+00 0. -1.
          1   -1    0    0  501    0  0.00000000000E+00 -0.00000000000E+00 -0.13951609794E+04  0.13951609794E+04  0.00000000000E+00 0.  1.
    2000013    1    1    2    0    0  0.44005451334E+03 -0.55754675441E+03 -0.66744895000E+03  0.13610637233E+04  0.95000000000E+03 0.  0.
   -2000013    1    1    2    0    0 -0.44005451334E+03  0.55754675441E+03  0.54255900153E+03  0.13043682870E+04  0.95000000000E+03 0.  0.
<mgrwt>
<rscale>  0 0.26625045E+04</rscale>
<asrwt>0</asrwt>
<pdfrwt beam="2">  1        1 0.21464015E+00 0.26625045E+04</pdfrwt>
<pdfrwt beam="1">  1       -1 0.19542631E+00 0.26625045E+04</pdfrwt>
<totfact> 0.10982662E+00</totfact>
</mgrwt>
</event>
<event>
 4    1  0.1308745E-008  0.2315809E+04  0.7816531E-02  0.8471714E-01
          2   -1    0    0  501    0  0.00000000000E+00  0.00000000000E+00  0.30173195508E+04  0.30173195508E+04  0.00000000000E+00 0.  1.
         -2   -1    0    0    0  501 -0.00000000000E+00 -0.00000000000E+00 -0.44434878505E+03  0.44434878505E+03  0.00000000000E+00 0. -1.
    2000013    1    1    2    0    0  0.46115148402E+03  0.47174275480E+03  0.13689077744E+04  0.17920966527E+04  0.95000000000E+03 0.  0.
   -2000013    1    1    2    0    0 -0.46115148402E+03 -0.47174275480E+03  0.12040629913E+04  0.16695716831E+04  0.95000000000E+03 0.  0.
<mgrwt>
<rscale>  0 0.23158085E+04</rscale>
<asrwt>0</asrwt>
<pdfrwt beam="1">  1        2 0.46420299E+00 0.23158085E+04</pdfrwt>
<pdfrwt beam="2">  1       -2 0.68361354E-01 0.23158085E+04</pdfrwt>
<totfact> 0.30120342E+00</totfact>
</mgrwt>
</event>
<event>
 4    1  0.1308745E-008  0.2391928E+04  0.7816531E-02  0.8442532E-01
          2   -1    0    0  501    0  0.00000000000E+00  0.00000000000E+00  0.27986078392E+04  0.27986078392E+04  0.00000000000E+00 0.  1.
         -2   -1    0    0    0  501 -0.00000000000E+00 -0.00000000000E+00 -0.51108600661E+03  0.51108600661E+03  0.00000000000E+00 0. -1.
    2000013    1    1    2    0    0 -0.53014232179E+03 -0.18640112031E+02  0.18306513235E+04  0.21295968171E+04  0.95000000000E+03 0.  0.
   -2000013    1    1    2    0    0  0.53014232179E+03  0.18640112031E+02  0.45687050909E+03  0.11800970287E+04  0.95000000000E+03 0.  0.
<mgrwt>
<rscale>  0 0.23919275E+04</rscale>
<asrwt>0</asrwt>
<pdfrwt beam="1">  1        2 0.43055505E+00 0.23919275E+04</pdfrwt>
<pdfrwt beam="2">  1       -2 0.78628618E-01 0.23919275E+04</pdfrwt>
<totfact> 0.29964514E+00</totfact>
</mgrwt>
</event>
<event>
 4    1  0.1308745E-008  0.2859750E+04  0.7816531E-02  0.8284955E-01
          1   -1    0    0  501    0  0.00000000000E+00  0.00000000000E+00  0.20907346991E+04  0.20907346991E+04  0.00000000000E+00 0.  1.
         -1   -1    0    0    0  501 -0.00000000000E+00 -0.00000000000E+00 -0.97790631324E+03  0.97790631324E+03  0.00000000000E+00 0. -1.
    2000013    1    1    2    0    0 -0.98842627085E+03 -0.30420270878E+03  0.26745430651E+03  0.14295305478E+04  0.95000000000E+03 0.  0.
   -2000013    1    1    2    0    0  0.98842627085E+03  0.30420270878E+03  0.84537407931E+03  0.16391104645E+04  0.95000000000E+03 0.  0.
<mgrwt>
<rscale>  0 0.28597501E+04</rscale>
<asrwt>0</asrwt>
<pdfrwt beam="1">  1        1 0.32165149E+00 0.28597501E+04</pdfrwt>
<pdfrwt beam="2">  1       -1 0.15044713E+00 0.28597501E+04</pdfrwt>
<totfact> 0.77071305E-01</totfact>
</mgrwt>
</event>
<event>
 4    1  0.1308745E-008  0.3312158E+04  0.7816531E-02  0.8159809E-01
          2   -1    0    0  501    0  0.00000000000E+00  0.00000000000E+00  0.15052171614E+04  0.15052171614E+04  0.00000000000E+00 0.  1.
         -2   -1    0    0    0  501 -0.00000000000E+00 -0.00000000000E+00 -0.18220607819E+04  0.18220607819E+04  0.00000000000E+00 0. -1.
    2000013    1    1    2    0    0  0.55144040362E+03  0.10072679290E+04  0.56697014166E+03  0.15945627429E+04  0.95000000000E+03 0.  0.
   -2000013    1    1    2    0    0 -0.55144040362E+03 -0.10072679290E+04 -0.88381376212E+03  0.17327152004E+04  0.95000000000E+03 0.  0.
<mgrwt>
<rscale>  0 0.33121577E+04</rscale>
<asrwt>0</asrwt>
<pdfrwt beam="1">  1        2 0.23157187E+00 0.33121577E+04</pdfrwt>
<pdfrwt beam="2">  1       -2 0.28031704E+00 0.33121577E+04</pdfrwt>
<totfact> 0.44103041E-01</totfact>
</mgrwt>
</event>
<event>
 4    1  0.1308745E-008  0.3597923E+04  0.7816531E-02  0.8090968E-01
          2   -1    0    0  501    0  0.00000000000E+00  0.00000000000E+00  0.17047348953E+04  0.17047348953E+04  0.00000000000E+00 0.  1.
         -2   -1    0    0    0  501 -0.00000000000E+00 -0.00000000000E+00 -0.18983961711E+04  0.18983961711E+04  0.00000000000E+00 0. -1.
    2000013    1    1    2    0    0  0.41167947985E+03  0.14681342173E+04 -0.25448748262E+01  0.17964978571E+04  0.95000000000E+03 0.  0.
   -2000013    1    1    2    0    0 -0.41167947985E+03 -0.14681342173E+04 -0.19111640101E+03  0.18066332093E+04  0.95000000000E+03 0.  0.
<mgrwt>
<rscale>  0 0.35979228E+04</rscale>
<asrwt>0</asrwt>
<pdfrwt beam="1">  1        2 0.26226691E+00 0.35979228E+04</pdfrwt>
<pdfrwt beam="2">  1       -2 0.29206095E+00 0.35979228E+04</pdfrwt>
<totfact> 0.28241852E-01</totfact>
</mgrwt>
</event>
<event>
 4    1  0.1308745E-008  0.2357039E+04  0.7816531E-02  0.8455765E-01
          2   -1    0    0  501    0  0.00000000000E+00  0.00000000000E+00  0.11571651092E+04  0.11571651092E+04  0.00000000000E+00 0.  1.
         -2   -1    0    0    0  501 -0.00000000000E+00 -0.00000000000E+00 -0.12002679225E+04  0.12002679225E+04  0.00000000000E+00 0. -1.
    2000013    1    1    2    0    0 -0.54041860662E+02 -0.67452219529E+03  0.14731830664E+03  0.11756289373E+04  0.95000000000E+03 0.  0.
   -2000013    1    1    2    0    0  0.54041860662E+02  0.67452219529E+03 -0.19042111993E+03  0.11818040944E+04  0.95000000000E+03 0.  0.
<mgrwt>
<rscale>  0 0.23570390E+04</rscale>
<asrwt>0</asrwt>
<pdfrwt beam="1">  1        2 0.17802540E+00 0.23570390E+04</pdfrwt>
<pdfrwt beam="2">  1       -2 0.18465660E+00 0.23570390E+04</pdfrwt>
<totfact> 0.30554014E+00</totfact>
</mgrwt>
</event>
<event>
 4    1  0.1308745E-008  0.2563280E+04  0.7816531E-02  0.8380782E-01
          2   -1    0    0  501    0  0.00000000000E+00  0.00000000000E+00  0.93585449702E+03  0.93585449702E+03  0.00000000000E+00 0.  1.
         -2   -1    0    0    0  501 -0.00000000000E+00 -0.00000000000E+00 -0.17551882845E+04  0.17551882845E+04  0.00000000000E+00 0. -1.
    2000013    1    1    2    0    0  0.28385457511E+03  0.80658955457E+03 -0.31039853811E+03  0.13152974499E+04  0.95000000000E+03 0.  0.
   -2000013    1    1    2    0    0 -0.28385457511E+03 -0.80658955457E+03 -0.50893524940E+03  0.13757453316E+04  0.95000000000E+03 0.  0.
<mgrwt>
<rscale>  0 0.25632798E+04</rscale>
<asrwt>0</asrwt>
<pdfrwt beam="1">  1        2 0.14397762E+00 0.25632798E+04</pdfrwt>
<pdfrwt beam="2">  1       -2 0.27002896E+00 0.25632798E+04</pdfrwt>
<totfact> 0.11924071E+00</totfact>
</mgrwt>
</event>
<event>
 4    1  0.1308745E-008  0.2341659E+04  0.7816531E-02  0.8461674E-01
         -2   -1    0    0    0  501 -0.00000000000E+00  0.00000000000E+00  0.41451021854E+03  0.41451021854E+03  0.00000000000E+00 0. -1.
          2   -1    0    0  501    0  0.00000000000E+00 -0.00000000000E+00 -0.33071358641E+04  0.33071358641E+04  0.00000000000E+00 0.  1.
    2000013    1    1    2    0    0 -0.34764162230E+03 -0.21004306844E+03 -0.23216934037E+04  0.25412070063E+04  0.95000000000E+03 0.  0.
   -2000013    1    1    2    0    0  0.34764162230E+03  0.21004306844E+03 -0.57093224188E+03  0.11804390763E+04  0.95000000000E+03 0.  0.
<mgrwt>
<rscale>  0 0.23416589E+04</rscale>
<asrwt>0</asrwt>
<pdfrwt beam="2">  1        2 0.50879011E+00 0.23416589E+04</pdfrwt>
<pdfrwt beam="1">  1       -2 0.63770806E-01 0.23416589E+04</pdfrwt>
<totfact> 0.22677124E+00</totfact>
</mgrwt>
</event>
<event>
 4    1  0.1308745E-008  0.2416604E+04  0.7816531E-02  0.8433313E-01
         -2   -1    0    0    0  501 -0.00000000000E+00  0.00000000000E+00  0.11281173801E+04  0.11281173801E+04  0.00000000000E+00 0. -1.
          2   -1    0    0  501    0  0.00000000000E+00 -0.00000000000E+00 -0.12941862297E+04  0.12941862297E+04  0.00000000000E+00 0.  1.
    2000013    1    1    2    0    0 -0.19674042171E+03 -0.71886992657E+03 -0.38059752288E+02  0.12080684209E+04  0.95000000000E+03 0.  0.
   -2000013    1    1    2    0    0  0.19674042171E+03  0.71886992657E+03 -0.12800909738E+03  0.12142351889E+04  0.95000000000E+03 0.  0.
<mgrwt>
<rscale>  0 0.24166042E+04</rscale>
<asrwt>0</asrwt>
<pdfrwt beam="2">  1        2 0.19910557E+00 0.24166042E+04</pdfrwt>
<pdfrwt beam="1">  1       -2 0.17355652E+00 0.24166042E+04</pdfrwt>
<totfact> 0.30095496E+00</totfact>
</mgrwt>
</event>
<event>
 4    1  0.1308745E-008  0.3017725E+04  0.7816531E-02  0.8238687E-01
          2   -1    0    0  501    0  0.00000000000E+00  0.00000000000E+00  0.22182120488E+04  0.22182120488E+04  0.00000000000E+00 0.  1.
         -2   -1    0    0    0  501 -0.00000000000E+00 -0.00000000000E+00 -0.10263520794E+04  0.10263520794E+04  0.00000000000E+00 0. -1.
    2000013    1    1    2    0    0  0.81739379374E+03 -0.30908799450E+03  0.14360067448E+04  0.19308763227E+04  0.95000000000E+03 0.  0.
   -2000013    1    1    2    0    0 -0.81739379374E+03  0.30908799450E+03 -0.24414677542E+03  0.13136878055E+04  0.95000000000E+03 0.  0.
<mgrwt>
<rscale>  0 0.30177253E+04</rscale>
<asrwt>0</asrwt>
<pdfrwt beam="1">  1        2 0.34126339E+00 0.30177253E+04</pdfrwt>
<pdfrwt beam="2">  1       -2 0.15790032E+00 0.30177253E+04</pdfrwt>
<totfact> 0.11255514E+00</totfact>
</mgrwt>
</event>
<event>
 4    1  0.1308745E-008  0.2807094E+04  0.7816531E-02  0.8301069E-01
          2   -1    0    0  501    0  0.00000000000E+00  0.00000000000E+00  0.14059588309E+04  0.14059588309E+04  0.00000000000E+00 0.  1.
         -2   -1    0    0    0  501 -0.00000000000E+00 -0.00000000000E+00 -0.14011390431E+04  0.14011390431E+04  0.00000000000E+00 0. -1.
    2000013    1    1    2    0    0 -0.10035592225E+04  0.19329322223E+03  0.15390410475E+03  0.14038090526E+04  0.95000000000E+03 0.  0.
   -2000013    1    1    2    0    0  0.10035592225E+04 -0.19329322223E+03 -0.14908431696E+03  0.14032888214E+04  0.95000000000E+03 0.  0.
<mgrwt>
<rscale>  0 0.28070937E+04</rscale>
<asrwt>0</asrwt>
<pdfrwt beam="1">  1        2 0.21630136E+00 0.28070937E+04</pdfrwt>
<pdfrwt beam="2">  1       -2 0.21555985E+00 0.28070937E+04</pdfrwt>
<totfact> 0.13170731E+00</totfact>
</mgrwt>
</event>
<event>
 4    1  0.1308745E-008  0.2776624E+04  0.7816531E-02  0.8310563E-01
         -2   -1    0    0    0  501 -0.00000000000E+00  0.00000000000E+00  0.13599107398E+04  0.13599107398E+04  0.00000000000E+00 0. -1.
          2   -1    0    0  501    0  0.00000000000E+00 -0.00000000000E+00 -0.14173063066E+04  0.14173063066E+04  0.00000000000E+00 0.  1.
    2000013    1    1    2    0    0 -0.88188491332E+01 -0.95308774297E+03  0.31263169167E+03  0.13815544117E+04  0.95000000000E+03 0.  0.
   -2000013    1    1    2    0    0  0.88188491332E+01  0.95308774297E+03 -0.37002725841E+03  0.13956626347E+04  0.95000000000E+03 0.  0.
<mgrwt>
<rscale>  0 0.27766239E+04</rscale>
<asrwt>0</asrwt>
<pdfrwt beam="2">  1        2 0.21804712E+00 0.27766239E+04</pdfrwt>
<pdfrwt beam="1">  1       -2 0.20921704E+00 0.27766239E+04</pdfrwt>
<totfact> 0.14286518E+00</totfact>
</mgrwt>
</event>
<event>
 4    1  0.1308745E-008  0.2328003E+04  0.7816531E-02  0.8466961E-01
          1   -1    0    0  501    0  0.00000000000E+00  0.00000000000E+00  0.27387458420E+04  0.27387458420E+04  0.00000000000E+00 0. -1.
         -1   -1    0    0    0  501 -0.00000000000E+00 -0.00000000000E+00 -0.49471509707E+03  0.49471509707E+03  0.00000000000E+00 0.  1.
    2000013    1    1    2    0    0 -0.39976887388E+02  0.66858936699E+03  0.10365189913E+04  0.15573957469E+04  0.95000000000E+03 0.  0.
   -2000013    1    1    2    0    0  0.39976887388E+02 -0.66858936699E+03  0.12075117535E+04  0.16760651921E+04  0.95000000000E+03 0.  0.
<mgrwt>
<rscale>  0 0.23280025E+04</rscale>
<asrwt>0</asrwt>
<pdfrwt beam="1">  1        1 0.42134551E+00 0.23280025E+04</pdfrwt>
<pdfrwt beam="2">  1       -1 0.76110016E-01 0.23280025E+04</pdfrwt>
<totfact> 0.14403233E+00</totfact>
</mgrwt>
</event>
<event>
 4    1  0.1308745E-008  0.2524011E+04  0.7816531E-02  0.8394481E-01
          1   -1    0    0  501    0  0.00000000000E+00  0.00000000000E+00  0.99997808235E+03  0.99997808235E+03  0.00000000000E+00 0. -1.
         -1   -1    0    0    0  501 -0.00000000000E+00 -0.00000000000E+00 -0.15926929224E+04  0.15926929224E+04  0.00000000000E+00 0.  1.
    2000013    1    1    2    0    0  0.21402310056E+03  0.65221268567E+03 -0.77702982666E+03  0.14062228225E+04  0.95000000000E+03 0.  0.
   -2000013    1    1    2    0    0 -0.21402310056E+03 -0.65221268567E+03  0.18431498662E+03  0.11864481823E+04  0.95000000000E+03 0.  0.
<mgrwt>
<rscale>  0 0.25240111E+04</rscale>
<asrwt>0</asrwt>
<pdfrwt beam="1">  1        1 0.15384278E+00 0.25240111E+04</pdfrwt>
<pdfrwt beam="2">  1       -1 0.24502968E+00 0.25240111E+04</pdfrwt>
<totfact> 0.10079719E+00</totfact>
</mgrwt>
</event>
<event>
 4    1  0.1308745E-008  0.2923592E+04  0.7816531E-02  0.8265892E-01
         -2   -1    0    0    0  501 -0.00000000000E+00  0.00000000000E+00  0.36089446048E+04  0.36089446048E+04  0.00000000000E+00 0. -1.
          2   -1    0    0  501    0  0.00000000000E+00 -0.00000000000E+00 -0.59209778223E+03  0.59209778223E+03  0.00000000000E+00 0.  1.
    2000013    1    1    2    0    0 -0.70229565907E+03  0.82403609295E+03  0.18664893728E+04  0.23576550329E+04  0.95000000000E+03 0.  0.
   -2000013    1    1    2    0    0  0.70229565907E+03 -0.82403609295E+03  0.11503574498E+04  0.18433873542E+04  0.95000000000E+03 0.  0.
<mgrwt>
<rscale>  0 0.29235924E+04</rscale>
<asrwt>0</asrwt>
<pdfrwt beam="2">  1        2 0.91091968E-01 0.29235924E+04</pdfrwt>
<pdfrwt beam="1">  1       -2 0.55522224E+00 0.29235924E+04</pdfrwt>
<totfact> 0.34555911E-02</totfact>
</mgrwt>
</event>
<event>
 4    1  0.1308745E-008  0.2101807E+04  0.7816531E-02  0.8560448E-01
          2   -1    0    0  501    0  0.00000000000E+00  0.00000000000E+00  0.13397827390E+04  0.13397827390E+04  0.00000000000E+00 0.  1.
         -2   -1    0    0    0  501 -0.00000000000E+00 -0.00000000000E+00 -0.82431128512E+03  0.82431128512E+03  0.00000000000E+00 0. -1.
    2000013    1    1    2    0    0  0.31678962873E+03  0.78186890197E+02  0.57580659758E+03  0.11578091797E+04  0.95000000000E+03 0.  0.
   -2000013    1    1    2    0    0 -0.31678962873E+03 -0.78186890197E+02 -0.60335143689E+02  0.10062848445E+04  0.95000000000E+03 0.  0.
<mgrwt>
<rscale>  0 0.21018069E+04</rscale>
<asrwt>0</asrwt>
<pdfrwt beam="1">  1        2 0.20612042E+00 0.21018069E+04</pdfrwt>
<pdfrwt beam="2">  1       -2 0.12681712E+00 0.21018069E+04</pdfrwt>
<totfact> 0.66789459E+00</totfact>
</mgrwt>
</event>
<event>
 4    1  0.1308745E-008  0.2250412E+04  0.7816531E-02  0.8497734E-01
          2   -1    0    0  501    0  0.00000000000E+00  0.00000000000E+00  0.21764662341E+04  0.21764662341E+04  0.00000000000E+00 0.  1.
         -2   -1    0    0    0  501 -0.00000000000E+00 -0.00000000000E+00 -0.58171763481E+03  0.58171763481E+03  0.00000000000E+00 0. -1.
    2000013    1    1    2    0    0 -0.15120661384E+03  0.21977499347E+03  0.13459662982E+03  0.99588189088E+03  0.95000000000E+03 0.  0.
   -2000013    1    1    2    0    0  0.15120661384E+03 -0.21977499347E+03  0.14601519695E+04  0.17623019780E+04  0.95000000000E+03 0.  0.
<mgrwt>
<rscale>  0 0.22504122E+04</rscale>
<asrwt>0</asrwt>
<pdfrwt beam="1">  1        2 0.33484095E+00 0.22504122E+04</pdfrwt>
<pdfrwt beam="2">  1       -2 0.89495022E-01 0.22504122E+04</pdfrwt>
<totfact> 0.51876015E+00</totfact>
</mgrwt>
</event>
<event>
 4    1  0.1308745E-008  0.2493180E+04  0.7816531E-02  0.8405419E-01
         -2   -1    0    0    0  501 -0.00000000000E+00  0.00000000000E+00  0.15573082564E+04  0.15573082564E+04  0.00000000000E+00 0. -1.
          2   -1    0    0  501    0  0.00000000000E+00 -0.00000000000E+00 -0.99786743679E+03  0.99786743679E+03  0.00000000000E+00 0.  1.
    2000013    1    1    2    0    0 -0.18603859228E+02 -0.68403105392E+03  0.71843319408E+03  0.13736414527E+04  0.95000000000E+03 0.  0.
   -2000013    1    1    2    0    0  0.18603859228E+02  0.68403105392E+03 -0.15899237444E+03  0.11815342405E+04  0.95000000000E+03 0.  0.
<mgrwt>
<rscale>  0 0.24931805E+04</rscale>
<asrwt>0</asrwt>
<pdfrwt beam="2">  1        2 0.15351807E+00 0.24931805E+04</pdfrwt>
<pdfrwt beam="1">  1       -2 0.23958589E+00 0.24931805E+04</pdfrwt>
<totfact> 0.16799755E+00</totfact>
</mgrwt>
</event>
<event>
 4    1  0.1308745E-008  0.3168310E+04  0.7816531E-02  0.8197237E-01
         -2   -1    0    0    0  501 -0.00000000000E+00  0.00000000000E+00  0.70695498682E+03  0.70695498682E+03  0.00000000000E+00 0. -1.
          2   -1    0    0  501    0  0.00000000000E+00 -0.00000000000E+00 -0.35497978288E+04  0.35497978288E+04  0.00000000000E+00 0.  1.
    2000013    1    1    2    0    0 -0.11857963145E+04  0.35831381631E+03 -0.10595483677E+04  0.18867019992E+04  0.95000000000E+03 0.  0.
   -2000013    1    1    2    0    0  0.11857963145E+04 -0.35831381631E+03 -0.17832944744E+04  0.23700508165E+04  0.95000000000E+03 0.  0.
<mgrwt>
<rscale>  0 0.31683101E+04</rscale>
<asrwt>0</asrwt>
<pdfrwt beam="2">  1        2 0.54612273E+00 0.31683101E+04</pdfrwt>
<pdfrwt beam="1">  1       -2 0.10876231E+00 0.31683101E+04</pdfrwt>
<totfact> 0.42694382E-01</totfact>
</mgrwt>
</event>
<event>
 4    1  0.1308745E-008  0.2071338E+04  0.7816531E-02  0.8573976E-01
          2   -1    0    0  501    0  0.00000000000E+00  0.00000000000E+00  0.32431167885E+04  0.32431167885E+04  0.00000000000E+00 0.  1.
         -2   -1    0    0    0  501 -0.00000000000E+00 -0.00000000000E+00 -0.33073427907E+03  0.33073427907E+03  0.00000000000E+00 0. -1.
    2000013    1    1    2    0    0  0.37731988795E+03  0.94220523420E+02  0.16931542003E+04  0.19800300379E+04  0.95000000000E+03 0.  0.
   -2000013    1    1    2    0    0 -0.37731988795E+03 -0.94220523420E+02  0.12192283091E+04  0.15938210297E+04  0.95000000000E+03 0.  0.
<mgrwt>
<rscale>  0 0.20713376E+04</rscale>
<asrwt>0</asrwt>
<pdfrwt beam="1">  1        2 0.49894102E+00 0.20713376E+04</pdfrwt>
<pdfrwt beam="2">  1       -2 0.50882199E-01 0.20713376E+04</pdfrwt>
<totfact> 0.41107165E+00</totfact>
</mgrwt>
</event>
<event>
 4    1  0.1308745E-008  0.2977315E+04  0.7816531E-02  0.8250239E-01
          2   -1    0    0  501    0  0.00000000000E+00  0.00000000000E+00  0.14678105696E+04  0.14678105696E+04  0.00000000000E+00 0.  1.
         -2   -1    0    0    0  501 -0.00000000000E+00 -0.00000000000E+00 -0.15098000241E+04  0.15098000241E+04  0.00000000000E+00 0. -1.
    2000013    1    1    2    0    0 -0.10797388517E+04  0.38203837038E+03  0.21566864825E+02  0.14882051048E+04  0.95000000000E+03 0.  0.
   -2000013    1    1    2    0    0  0.10797388517E+04 -0.38203837038E+03 -0.63556319366E+02  0.14894054888E+04  0.95000000000E+03 0.  0.
<mgrwt>
<rscale>  0 0.29773145E+04</rscale>
<asrwt>0</asrwt>
<pdfrwt beam="1">  1        2 0.22581701E+00 0.29773145E+04</pdfrwt>
<pdfrwt beam="2">  1       -2 0.23227693E+00 0.29773145E+04</pdfrwt>
<totfact> 0.93940369E-01</totfact>
</mgrwt>
</event>
<event>
 4    1  0.1308745E-008  0.2533558E+04  0.7816531E-02  0.8391127E-01
          2   -1    0    0  501    0  0.00000000000E+00  0.00000000000E+00  0.11381061801E+04  0.11381061801E+04  0.00000000000E+00 0.  1.
         -2   -1    0    0    0  501 -0.00000000000E+00 -0.00000000000E+00 -0.14099994084E+04  0.14099994084E+04  0.00000000000E+00 0. -1.
    2000013    1    1    2    0    0  0.32012841084E+03  0.77000998586E+03 -0.21907386637E+03  0.12829228101E+04  0.95000000000E+03 0.  0.
   -2000013    1    1    2    0    0 -0.32012841084E+03 -0.77000998586E+03 -0.52819361842E+02  0.12651827784E+04  0.95000000000E+03 0.  0.
<mgrwt>
<rscale>  0 0.25335580E+04</rscale>
<asrwt>0</asrwt>
<pdfrwt beam="1">  1        2 0.17509326E+00 0.25335580E+04</pdfrwt>
<pdfrwt beam="2">  1       -2 0.21692299E+00 0.25335580E+04</pdfrwt>
<totfact> 0.18981374E+00</totfact>
</mgrwt>
</event>
<event>
 4    1  0.1308745E-008  0.2582290E+04  0.7816531E-02  0.8374242E-01
         -2   -1    0    0    0  501 -0.00000000000E+00  0.00000000000E+00  0.84627541908E+03  0.84627541908E+03  0.00000000000E+00 0. -1.
          2   -1    0    0  501    0  0.00000000000E+00 -0.00000000000E+00 -0.19698730340E+04  0.19698730340E+04  0.00000000000E+00 0.  1.
    2000013    1    1    2    0    0  0.69879813927E+03  0.49055187544E+03 -0.76755170247E+03  0.14901662987E+04  0.95000000000E+03 0.  0.
   -2000013    1    1    2    0    0 -0.69879813927E+03 -0.49055187544E+03 -0.35604591248E+03  0.13259821544E+04  0.95000000000E+03 0.  0.
<mgrwt>
<rscale>  0 0.25822898E+04</rscale>
<asrwt>0</asrwt>
<pdfrwt beam="2">  1        2 0.30305739E+00 0.25822898E+04</pdfrwt>
<pdfrwt beam="1">  1       -2 0.13019622E+00 0.25822898E+04</pdfrwt>
<totfact> 0.26615107E+00</totfact>
</mgrwt>
</event>
<event>
 4    1  0.1308745E-008  0.2992077E+04  0.7816531E-02  0.8245997E-01
          4   -1    0    0  501    0  0.00000000000E+00  0.00000000000E+00  0.15389909831E+04  0.15389909831E+04  0.00000000000E+00 0.  1.
         -4   -1    0    0    0  501 -0.00000000000E+00 -0.00000000000E+00 -0.14542847448E+04  0.14542847448E+04  0.00000000000E+00 0. -1.
    2000013    1    1    2    0    0  0.73902046849E+03 -0.70542429133E+03 -0.49810070734E+03  0.14813436463E+04  0.95000000000E+03 0.  0.
   -2000013    1    1    2    0    0 -0.73902046849E+03  0.70542429133E+03  0.58280694561E+03  0.15119320816E+04  0.95000000000E+03 0.  0.
<mgrwt>
<rscale>  0 0.29920769E+04</rscale>
<asrwt>0</asrwt>
<pdfrwt beam="1">  1        4 0.23676784E+00 0.29920769E+04</pdfrwt>
<pdfrwt beam="2">  1       -4 0.22373611E+00 0.29920769E+04</pdfrwt>
<totfact> 0.11992048E-02</totfact>
</mgrwt>
</event>
<event>
 4    1  0.1308745E-008  0.2880457E+04  0.7816531E-02  0.8278716E-01
          2   -1    0    0  501    0  0.00000000000E+00  0.00000000000E+00  0.27023900709E+04  0.27023900709E+04  0.00000000000E+00 0.  1.
         -2   -1    0    0    0  501 -0.00000000000E+00 -0.00000000000E+00 -0.76756446153E+03  0.76756446153E+03  0.00000000000E+00 0. -1.
    2000013    1    1    2    0    0 -0.26414199165E+03 -0.10348363258E+04  0.11798605265E+04  0.18534368279E+04  0.95000000000E+03 0.  0.
   -2000013    1    1    2    0    0  0.26414199165E+03  0.10348363258E+04  0.75496508293E+03  0.16165177046E+04  0.95000000000E+03 0.  0.
<mgrwt>
<rscale>  0 0.28804573E+04</rscale>
<asrwt>0</asrwt>
<pdfrwt beam="1">  1        2 0.41575231E+00 0.28804573E+04</pdfrwt>
<pdfrwt beam="2">  1       -2 0.11808684E+00 0.28804573E+04</pdfrwt>
<totfact> 0.12639055E+00</totfact>
</mgrwt>
</event>
<event>
 4    1  0.1308745E-008  0.2140400E+04  0.7816531E-02  0.8543653E-01
         -2   -1    0    0    0  501 -0.00000000000E+00  0.00000000000E+00  0.20231170717E+04  0.20231170717E+04  0.00000000000E+00 0. -1.
          2   -1    0    0  501    0  0.00000000000E+00 -0.00000000000E+00 -0.56612070586E+03  0.56612070586E+03  0.00000000000E+00 0.  1.
    2000013    1    1    2    0    0 -0.11240043799E+03 -0.47248389876E+03  0.62762380285E+03  0.12378556180E+04  0.95000000000E+03 0.  0.
   -2000013    1    1    2    0    0  0.11240043799E+03  0.47248389876E+03  0.82937256301E+03  0.13513821596E+04  0.95000000000E+03 0.  0.
<mgrwt>
<rscale>  0 0.21404004E+04</rscale>
<asrwt>0</asrwt>
<pdfrwt beam="2">  1        2 0.87095494E-01 0.21404004E+04</pdfrwt>
<pdfrwt beam="1">  1       -2 0.31124878E+00 0.21404004E+04</pdfrwt>
<totfact> 0.13257667E+00</totfact>
</mgrwt>
</event>
<event>
 4    1  0.1308745E-008  0.2345194E+04  0.7816531E-02  0.8460312E-01
         -2   -1    0    0    0  501 -0.00000000000E+00  0.00000000000E+00  0.20077514373E+04  0.20077514373E+04  0.00000000000E+00 0. -1.
          2   -1    0    0  501    0  0.00000000000E+00 -0.00000000000E+00 -0.68483757030E+03  0.68483757030E+03  0.00000000000E+00 0.  1.
    2000013    1    1    2    0    0  0.66456928099E+03  0.78844853144E+02  0.84158826312E+03  0.14347960290E+04  0.95000000000E+03 0.  0.
   -2000013    1    1    2    0    0 -0.66456928099E+03 -0.78844853144E+02  0.48132560385E+03  0.12577929786E+04  0.95000000000E+03 0.  0.
<mgrwt>
<rscale>  0 0.23451939E+04</rscale>
<asrwt>0</asrwt>
<pdfrwt beam="2">  1        2 0.10535963E+00 0.23451939E+04</pdfrwt>
<pdfrwt beam="1">  1       -2 0.30888483E+00 0.23451939E+04</pdfrwt>
<totfact> 0.10671540E+00</totfact>
</mgrwt>
</event>
<event>
 4    1  0.1308745E-008  0.2674672E+04  0.7816531E-02  0.8343270E-01
         -2   -1    0    0    0  501 -0.00000000000E+00  0.00000000000E+00  0.10330762733E+04  0.10330762733E+04  0.00000000000E+00 0. -1.
          2   -1    0    0  501    0  0.00000000000E+00 -0.00000000000E+00 -0.17312053385E+04  0.17312053385E+04  0.00000000000E+00 0.  1.
    2000013    1    1    2    0    0  0.39512082784E+03  0.85347052567E+03 -0.38821169680E+03  0.13920275602E+04  0.95000000000E+03 0.  0.
   -2000013    1    1    2    0    0 -0.39512082784E+03 -0.85347052567E+03 -0.30991736841E+03  0.13722540516E+04  0.95000000000E+03 0.  0.
<mgrwt>
<rscale>  0 0.26746717E+04</rscale>
<asrwt>0</asrwt>
<pdfrwt beam="2">  1        2 0.26633928E+00 0.26746717E+04</pdfrwt>
<pdfrwt beam="1">  1       -2 0.15893481E+00 0.26746717E+04</pdfrwt>
<totfact> 0.21252022E+00</totfact>
</mgrwt>
</event>
<event>
 4    1  0.1308745E-008  0.2075118E+04  0.7816531E-02  0.8572284E-01
         -2   -1    0    0    0  501 -0.00000000000E+00  0.00000000000E+00  0.10085714343E+04  0.10085714343E+04  0.00000000000E+00 0.  1.
          2   -1    0    0  501    0  0.00000000000E+00 -0.00000000000E+00 -0.10673792579E+04  0.10673792579E+04  0.00000000000E+00 0. -1.
    2000013    1    1    2    0    0 -0.32354225426E+03  0.21187135662E+03 -0.18586096960E+03  0.10424074837E+04  0.95000000000E+03 0.  0.
   -2000013    1    1    2    0    0  0.32354225426E+03 -0.21187135662E+03  0.12705314599E+03  0.10335432086E+04  0.95000000000E+03 0.  0.
<mgrwt>
<rscale>  0 0.20751176E+04</rscale>
<asrwt>0</asrwt>
<pdfrwt beam="2">  1        2 0.16421219E+00 0.20751176E+04</pdfrwt>
<pdfrwt beam="1">  1       -2 0.15516484E+00 0.20751176E+04</pdfrwt>
<totfact> 0.57700204E+00</totfact>
</mgrwt>
</event>
<event>
 4    1  0.1308745E-008  0.3120506E+04  0.7816531E-02  0.8210133E-01
          2   -1    0    0  501    0  0.00000000000E+00  0.00000000000E+00  0.17541529182E+04  0.17541529182E+04  0.00000000000E+00 0.  1.
         -2   -1    0    0    0  501 -0.00000000000E+00 -0.00000000000E+00 -0.13877862791E+04  0.13877862791E+04  0.00000000000E+00 0. -1.
    2000013    1    1    2    0    0 -0.11321317730E+04 -0.98786864305E+01 -0.32032082149E+03  0.15122583670E+04  0.95000000000E+03 0.  0.
   -2000013    1    1    2    0    0  0.11321317730E+04  0.98786864305E+01  0.68668746056E+03  0.16296808302E+04  0.95000000000E+03 0.  0.
<mgrwt>
<rscale>  0 0.31205060E+04</rscale>
<asrwt>0</asrwt>
<pdfrwt beam="1">  1        2 0.26986968E+00 0.31205060E+04</pdfrwt>
<pdfrwt beam="2">  1       -2 0.21350558E+00 0.31205060E+04</pdfrwt>
<totfact> 0.84323050E-01</totfact>
</mgrwt>
</event>
<event>
 4    1  0.1308745E-008  0.2896262E+04  0.7816531E-02  0.8273991E-01
          2   -1    0    0  501    0  0.00000000000E+00  0.00000000000E+00  0.26469050483E+04  0.26469050483E+04  0.00000000000E+00 0.  1.
         -2   -1    0    0    0  501 -0.00000000000E+00 -0.00000000000E+00 -0.79227736597E+03  0.79227736597E+03  0.00000000000E+00 0. -1.
    2000013    1    1    2    0    0  0.10108597933E+04 -0.33062941426E+03  0.62825028478E+03  0.15583169612E+04  0.95000000000E+03 0.  0.
   -2000013    1    1    2    0    0 -0.10108597933E+04  0.33062941426E+03  0.12263773975E+04  0.18808654531E+04  0.95000000000E+03 0.  0.
<mgrwt>
<rscale>  0 0.28962617E+04</rscale>
<asrwt>0</asrwt>
<pdfrwt beam="1">  1        2 0.40721616E+00 0.28962617E+04</pdfrwt>
<pdfrwt beam="2">  1       -2 0.12188883E+00 0.28962617E+04</pdfrwt>
<totfact> 0.12586511E+00</totfact>
</mgrwt>
</event>
<event>
 4    1  0.1308745E-008  0.2427859E+04  0.7816531E-02  0.8429147E-01
         -2   -1    0    0    0  501 -0.00000000000E+00  0.00000000000E+00  0.12493616334E+04  0.12493616334E+04  0.00000000000E+00 0. -1.
          2   -1    0    0  501    0  0.00000000000E+00 -0.00000000000E+00 -0.11795021286E+04  0.11795021286E+04  0.00000000000E+00 0.  1.
    2000013    1    1    2    0    0  0.63200501055E+03  0.16423932281E+02  0.44913568927E+03  0.12263453618E+04  0.95000000000E+03 0.  0.
   -2000013    1    1    2    0    0 -0.63200501055E+03 -0.16423932281E+02 -0.37927618445E+03  0.12025184003E+04  0.95000000000E+03 0.  0.
<mgrwt>
<rscale>  0 0.24278589E+04</rscale>
<asrwt>0</asrwt>
<pdfrwt beam="2">  1        2 0.18146187E+00 0.24278589E+04</pdfrwt>
<pdfrwt beam="1">  1       -2 0.19220948E+00 0.24278589E+04</pdfrwt>
<totfact> 0.26187703E+00</totfact>
</mgrwt>
</event>
<event>
 4    1  0.1308745E-008  0.2307123E+04  0.7816531E-02  0.8475118E-01
          2   -1    0    0  501    0  0.00000000000E+00  0.00000000000E+00  0.30567394566E+04  0.30567394566E+04  0.00000000000E+00 0.  1.
         -2   -1    0    0    0  501 -0.00000000000E+00 -0.00000000000E+00 -0.43533454385E+03  0.43533454385E+03  0.00000000000E+00 0. -1.
    2000013    1    1    2    0    0 -0.31672776127E+03  0.52345876659E+03  0.95936754337E+03  0.14822994429E+04  0.95000000000E+03 0.  0.
   -2000013    1    1    2    0    0  0.31672776127E+03 -0.52345876659E+03  0.16620373694E+04  0.20097745576E+04  0.95000000000E+03 0.  0.
<mgrwt>
<rscale>  0 0.23071231E+04</rscale>
<asrwt>0</asrwt>
<pdfrwt beam="1">  1        2 0.47026760E+00 0.23071231E+04</pdfrwt>
<pdfrwt beam="2">  1       -2 0.66974547E-01 0.23071231E+04</pdfrwt>
<totfact> 0.29760898E+00</totfact>
</mgrwt>
</event>
<event>
 4    1  0.1308745E-008  0.2859467E+04  0.7816531E-02  0.8285040E-01
         -2   -1    0    0    0  501 -0.00000000000E+00  0.00000000000E+00  0.92875272739E+03  0.92875272739E+03  0.00000000000E+00 0. -1.
          2   -1    0    0  501    0  0.00000000000E+00 -0.00000000000E+00 -0.22009498789E+04  0.22009498789E+04  0.00000000000E+00 0.  1.
    2000013    1    1    2    0    0 -0.47912982562E+03 -0.41290905662E+03  0.30643458275E+03  0.11817196928E+04  0.95000000000E+03 0.  0.
   -2000013    1    1    2    0    0  0.47912982562E+03  0.41290905662E+03 -0.15786317342E+04  0.19479829135E+04  0.95000000000E+03 0.  0.
<mgrwt>
<rscale>  0 0.28594672E+04</rscale>
<asrwt>0</asrwt>
<pdfrwt beam="2">  1        2 0.33860767E+00 0.28594672E+04</pdfrwt>
<pdfrwt beam="1">  1       -2 0.14288504E+00 0.28594672E+04</pdfrwt>
<totfact> 0.15208318E+00</totfact>
</mgrwt>
</event>
<event>
 4    1  0.1308745E-008  0.2328295E+04  0.7816531E-02  0.8466848E-01
         -2   -1    0    0    0  501 -0.00000000000E+00  0.00000000000E+00  0.57403444790E+03  0.57403444790E+03  0.00000000000E+00 0. -1.
          2   -1    0    0  501    0  0.00000000000E+00 -0.00000000000E+00 -0.23609016342E+04  0.23609016342E+04  0.00000000000E+00 0.  1.
    2000013    1    1    2    0    0 -0.33051032823E+03  0.58609021042E+03 -0.89313984252E+03  0.14672891978E+04  0.95000000000E+03 0.  0.
   -2000013    1    1    2    0    0  0.33051032823E+03 -0.58609021042E+03 -0.89372734374E+03  0.14676468842E+04  0.95000000000E+03 0.  0.
<mgrwt>
<rscale>  0 0.23282945E+04</rscale>
<asrwt>0</asrwt>
<pdfrwt beam="2">  1        2 0.36321563E+00 0.23282945E+04</pdfrwt>
<pdfrwt beam="1">  1       -2 0.88312992E-01 0.23282945E+04</pdfrwt>
<totfact> 0.41789623E+00</totfact>
</mgrwt>
</event>
<event>
 4    1  0.1308745E-008  0.2421943E+04  0.7816531E-02  0.8431334E-01
          2   -1    0    0  501    0  0.00000000000E+00  0.00000000000E+00  0.30599562453E+04  0.30599562453E+04  0.00000000000E+00 0.  1.
         -2   -1    0    0    0  501 -0.00000000000E+00 -0.00000000000E+00 -0.47923939781E+03  0.47923939781E+03  0.00000000000E+00 0. -1.
    2000013    1    1    2    0    0  0.50532701135E+03  0.49382418659E+03  0.16621559573E+04  0.20407057951E+04  0.95000000000E+03 0.  0.
   -2000013    1    1    2    0    0 -0.50532701135E+03 -0.49382418659E+03  0.91856089022E+03  0.14984898481E+04  0.95000000000E+03 0.  0.
<mgrwt>
<rscale>  0 0.24219427E+04</rscale>
<asrwt>0</asrwt>
<pdfrwt beam="1">  1        2 0.47076249E+00 0.24219427E+04</pdfrwt>
<pdfrwt beam="2">  1       -2 0.73729140E-01 0.24219427E+04</pdfrwt>
<totfact> 0.23769250E+00</totfact>
</mgrwt>
</event>
<event>
 4    1  0.1308745E-008  0.2862045E+04  0.7816531E-02  0.8284261E-01
          2   -1    0    0  501    0  0.00000000000E+00  0.00000000000E+00  0.23054004692E+04  0.23054004692E+04  0.00000000000E+00 0.  1.
         -2   -1    0    0    0  501 -0.00000000000E+00 -0.00000000000E+00 -0.88827326065E+03  0.88827326065E+03  0.00000000000E+00 0. -1.
    2000013    1    1    2    0    0 -0.84339066294E+03  0.43434765528E+03  0.12612971928E+04  0.18421010571E+04  0.95000000000E+03 0.  0.
   -2000013    1    1    2    0    0  0.84339066294E+03 -0.43434765528E+03  0.15583001578E+03  0.13515726728E+04  0.95000000000E+03 0.  0.
<mgrwt>
<rscale>  0 0.28620451E+04</rscale>
<asrwt>0</asrwt>
<pdfrwt beam="1">  1        2 0.35467699E+00 0.28620451E+04</pdfrwt>
<pdfrwt beam="2">  1       -2 0.13665743E+00 0.28620451E+04</pdfrwt>
<totfact> 0.14900877E+00</totfact>
</mgrwt>
</event>
<event>
 4    1  0.1308745E-008  0.2315127E+04  0.7816531E-02  0.8471981E-01
          2   -1    0    0  501    0  0.00000000000E+00  0.00000000000E+00  0.17344271177E+04  0.17344271177E+04  0.00000000000E+00 0. -1.
         -2   -1    0    0    0  501 -0.00000000000E+00 -0.00000000000E+00 -0.77256245106E+03  0.77256245106E+03  0.00000000000E+00 0.  1.
    2000013    1    1    2    0    0 -0.49633750457E+03 -0.11615378138E+03  0.93729719960E+03  0.14285897451E+04  0.95000000000E+03 0.  0.
   -2000013    1    1    2    0    0  0.49633750457E+03  0.11615378138E+03  0.24567467095E+02  0.10783998237E+04  0.95000000000E+03 0.  0.
<mgrwt>
<rscale>  0 0.23151270E+04</rscale>
<asrwt>0</asrwt>
<pdfrwt beam="1">  1        2 0.26683494E+00 0.23151270E+04</pdfrwt>
<pdfrwt beam="2">  1       -2 0.11885576E+00 0.23151270E+04</pdfrwt>
<totfact> 0.46210940E+00</totfact>
</mgrwt>
</event>
<event>
 4    1  0.1308745E-008  0.2429597E+04  0.7816531E-02  0.8428505E-01
         -2   -1    0    0    0  501 -0.00000000000E+00  0.00000000000E+00  0.89043310472E+03  0.89043310472E+03  0.00000000000E+00 0. -1.
          2   -1    0    0  501    0  0.00000000000E+00 -0.00000000000E+00 -0.16573232875E+04  0.16573232875E+04  0.00000000000E+00 0.  1.
    2000013    1    1    2    0    0  0.44685237548E+03  0.59983924977E+03 -0.26047590578E+03  0.12368637227E+04  0.95000000000E+03 0.  0.
   -2000013    1    1    2    0    0 -0.44685237548E+03 -0.59983924977E+03 -0.50641427700E+03  0.13108926695E+04  0.95000000000E+03 0.  0.
<mgrwt>
<rscale>  0 0.24295971E+04</rscale>
<asrwt>0</asrwt>
<pdfrwt beam="2">  1        2 0.25497281E+00 0.24295971E+04</pdfrwt>
<pdfrwt beam="1">  1       -2 0.13698971E+00 0.24295971E+04</pdfrwt>
<totfact> 0.35315480E+00</totfact>
</mgrwt>
</event>
<event>
 4    1  0.1308745E-008  0.3891148E+04  0.7816531E-02  0.8026873E-01
         -2   -1    0    0    0  501 -0.00000000000E+00  0.00000000000E+00  0.16115787435E+04  0.16115787435E+04  0.00000000000E+00 0. -1.
          2   -1    0    0  501    0  0.00000000000E+00 -0.00000000000E+00 -0.23487886665E+04  0.23487886665E+04  0.00000000000E+00 0.  1.
    2000013    1    1    2    0    0 -0.15525007218E+04  0.58285760658E+03  0.22620478894E+01  0.19111479790E+04  0.95000000000E+03 0.  0.
   -2000013    1    1    2    0    0  0.15525007218E+04 -0.58285760658E+03 -0.73947197093E+03  0.20492194310E+04  0.95000000000E+03 0.  0.
<mgrwt>
<rscale>  0 0.38911478E+04</rscale>
<asrwt>0</asrwt>
<pdfrwt beam="2">  1        2 0.36135210E+00 0.38911478E+04</pdfrwt>
<pdfrwt beam="1">  1       -2 0.24793519E+00 0.38911478E+04</pdfrwt>
<totfact> 0.22397888E-01</totfact>
</mgrwt>
</event>
<event>
 4    1  0.1308745E-008  0.2327995E+04  0.7816531E-02  0.8466964E-01
         -2   -1    0    0    0  501 -0.00000000000E+00  0.00000000000E+00  0.79325634745E+03  0.79325634745E+03  0.00000000000E+00 0. -1.
          2   -1    0    0  501    0  0.00000000000E+00 -0.00000000000E+00 -0.17080111364E+04  0.17080111364E+04  0.00000000000E+00 0.  1.
    2000013    1    1    2    0    0  0.29990107353E+03 -0.87989460587E+01  0.18940127833E+03  0.10140961096E+04  0.95000000000E+03 0.  0.
   -2000013    1    1    2    0    0 -0.29990107353E+03  0.87989460587E+01 -0.11041560673E+04  0.14871713742E+04  0.95000000000E+03 0.  0.
<mgrwt>
<rscale>  0 0.23279954E+04</rscale>
<asrwt>0</asrwt>
<pdfrwt beam="2">  1        2 0.26277094E+00 0.23279954E+04</pdfrwt>
<pdfrwt beam="1">  1       -2 0.12203944E+00 0.23279954E+04</pdfrwt>
<totfact> 0.44709810E+00</totfact>
</mgrwt>
</event>
<event>
 4    1  0.1308745E-008  0.2611462E+04  0.7816531E-02  0.8364318E-01
          2   -1    0    0  501    0  0.00000000000E+00  0.00000000000E+00  0.35399472663E+04  0.35399472663E+04  0.00000000000E+00 0.  1.
         -2   -1    0    0    0  501 -0.00000000000E+00 -0.00000000000E+00 -0.48162669122E+03  0.48162669122E+03  0.00000000000E+00 0. -1.
    2000013    1    1    2    0    0  0.89763669908E+02 -0.87357190698E+03  0.18013811427E+04  0.22178050893E+04  0.95000000000E+03 0.  0.
   -2000013    1    1    2    0    0 -0.89763669908E+02  0.87357190698E+03  0.12569394324E+04  0.18037688682E+04  0.95000000000E+03 0.  0.
<mgrwt>
<rscale>  0 0.26114617E+04</rscale>
<asrwt>0</asrwt>
<pdfrwt beam="1">  1        2 0.54460725E+00 0.26114617E+04</pdfrwt>
<pdfrwt beam="2">  1       -2 0.74096416E-01 0.26114617E+04</pdfrwt>
<totfact> 0.11053742E+00</totfact>
</mgrwt>
</event>
<event>
 4    1  0.1308745E-008  0.2908351E+04  0.7816531E-02  0.8270397E-01
          2   -1    0    0  501    0  0.00000000000E+00  0.00000000000E+00  0.18806545436E+04  0.18806545436E+04  0.00000000000E+00 0.  1.
         -2   -1    0    0    0  501 -0.00000000000E+00 -0.00000000000E+00 -0.11244096772E+04  0.11244096772E+04  0.00000000000E+00 0. -1.
    2000013    1    1    2    0    0  0.33566249257E+02 -0.87013547337E+03  0.10742193360E+04  0.16777096343E+04  0.95000000000E+03 0.  0.
   -2000013    1    1    2    0    0 -0.33566249257E+02  0.87013547337E+03 -0.31797446953E+03  0.13273545865E+04  0.95000000000E+03 0.  0.
<mgrwt>
<rscale>  0 0.29083509E+04</rscale>
<asrwt>0</asrwt>
<pdfrwt beam="1">  1        2 0.28933147E+00 0.29083509E+04</pdfrwt>
<pdfrwt beam="2">  1       -2 0.17298610E+00 0.29083509E+04</pdfrwt>
<totfact> 0.13629411E+00</totfact>
</mgrwt>
</event>
<event>
 4    1  0.1308745E-008  0.2825963E+04  0.7816531E-02  0.8295253E-01
         -2   -1    0    0    0  501 -0.00000000000E+00  0.00000000000E+00  0.19926765314E+04  0.19926765314E+04  0.00000000000E+00 0.  1.
          2   -1    0    0  501    0  0.00000000000E+00 -0.00000000000E+00 -0.10019272891E+04  0.10019272891E+04  0.00000000000E+00 0. -1.
    2000013    1    1    2    0    0  0.54734135982E+03  0.67927186717E+03 -0.11614549041E+03  0.12949836326E+04  0.95000000000E+03 0.  0.
   -2000013    1    1    2    0    0 -0.54734135982E+03 -0.67927186717E+03  0.11068947327E+04  0.16996201879E+04  0.95000000000E+03 0.  0.
<mgrwt>
<rscale>  0 0.28259632E+04</rscale>
<asrwt>0</asrwt>
<pdfrwt beam="2">  1        2 0.15414266E+00 0.28259632E+04</pdfrwt>
<pdfrwt beam="1">  1       -2 0.30656562E+00 0.28259632E+04</pdfrwt>
<totfact> 0.63178125E-01</totfact>
</mgrwt>
</event>
<event>
 4    1  0.1308745E-008  0.2161068E+04  0.7816531E-02  0.8534810E-01
         -2   -1    0    0    0  501 -0.00000000000E+00  0.00000000000E+00  0.17674995357E+04  0.17674995357E+04  0.00000000000E+00 0. -1.
          2   -1    0    0  501    0  0.00000000000E+00 -0.00000000000E+00 -0.66056792941E+03  0.66056792941E+03  0.00000000000E+00 0.  1.
    2000013    1    1    2    0    0  0.33965997828E+02  0.45342245409E+03  0.28216189565E+03  0.10903490020E+04  0.95000000000E+03 0.  0.
   -2000013    1    1    2    0    0 -0.33965997828E+02 -0.45342245409E+03  0.82476971065E+03  0.13377184631E+04  0.95000000000E+03 0.  0.
<mgrwt>
<rscale>  0 0.21610678E+04</rscale>
<asrwt>0</asrwt>
<pdfrwt beam="2">  1        2 0.10162584E+00 0.21610678E+04</pdfrwt>
<pdfrwt beam="1">  1       -2 0.27192300E+00 0.21610678E+04</pdfrwt>
<totfact> 0.19065387E+00</totfact>
</mgrwt>
</event>
<event>
 4    1  0.1308745E-008  0.2829204E+04  0.7816531E-02  0.8294259E-01
          1   -1    0    0  501    0  0.00000000000E+00  0.00000000000E+00  0.75688994129E+03  0.75688994129E+03  0.00000000000E+00 0.  1.
         -1   -1    0    0    0  501 -0.00000000000E+00 -0.00000000000E+00 -0.26438438774E+04  0.26438438774E+04  0.00000000000E+00 0. -1.
    2000013    1    1    2    0    0 -0.10358485818E+04  0.15757553310E+03 -0.97718697634E+03  0.17190714703E+04  0.95000000000E+03 0.  0.
   -2000013    1    1    2    0    0  0.10358485818E+04 -0.15757553310E+03 -0.90976695981E+03  0.16816623485E+04  0.95000000000E+03 0.  0.
<mgrwt>
<rscale>  0 0.28292040E+04</rscale>
<asrwt>0</asrwt>
<pdfrwt beam="1">  1        1 0.11644461E+00 0.28292040E+04</pdfrwt>
<pdfrwt beam="2">  1       -1 0.40674521E+00 0.28292040E+04</pdfrwt>
<totfact> 0.13402527E-01</totfact>
</mgrwt>
</event>
<event>
 4    1  0.1308745E-008  0.2607444E+04  0.7816531E-02  0.8365677E-01
          2   -1    0    0  501    0  0.00000000000E+00  0.00000000000E+00  0.12796352336E+04  0.12796352336E+04  0.00000000000E+00 0.  1.
         -2   -1    0    0    0  501 -0.00000000000E+00 -0.00000000000E+00 -0.13282625960E+04  0.13282625960E+04  0.00000000000E+00 0. -1.
    2000013    1    1    2    0    0  0.23717984432E+03  0.83813550089E+03 -0.22047585760E+03  0.13076065923E+04  0.95000000000E+03 0.  0.
   -2000013    1    1    2    0    0 -0.23717984432E+03 -0.83813550089E+03  0.17184849521E+03  0.13002912373E+04  0.95000000000E+03 0.  0.
<mgrwt>
<rscale>  0 0.26074444E+04</rscale>
<asrwt>0</asrwt>
<pdfrwt beam="1">  1        2 0.19686696E+00 0.26074444E+04</pdfrwt>
<pdfrwt beam="2">  1       -2 0.20434809E+00 0.26074444E+04</pdfrwt>
<totfact> 0.18711705E+00</totfact>
</mgrwt>
</event>
<event>
 4    1  0.1308745E-008  0.2377876E+04  0.7816531E-02  0.8447833E-01
         -1   -1    0    0    0  501 -0.00000000000E+00  0.00000000000E+00  0.12470305021E+04  0.12470305021E+04  0.00000000000E+00 0. -1.
          1   -1    0    0  501    0  0.00000000000E+00 -0.00000000000E+00 -0.11335515133E+04  0.11335515133E+04  0.00000000000E+00 0.  1.
    2000013    1    1    2    0    0 -0.45837862343E+03  0.20228642225E+03 -0.45378454293E+03  0.11659550465E+04  0.95000000000E+03 0.  0.
   -2000013    1    1    2    0    0  0.45837862343E+03 -0.20228642225E+03  0.56726353178E+03  0.12146269689E+04  0.95000000000E+03 0.  0.
<mgrwt>
<rscale>  0 0.23778758E+04</rscale>
<asrwt>0</asrwt>
<pdfrwt beam="2">  1        1 0.17439254E+00 0.23778758E+04</pdfrwt>
<pdfrwt beam="1">  1       -1 0.19185085E+00 0.23778758E+04</pdfrwt>
<totfact> 0.18423434E+00</totfact>
</mgrwt>
</event>
<event>
 4    1  0.1308745E-008  0.2261387E+04  0.7816531E-02  0.8493303E-01
          2   -1    0    0  501    0  0.00000000000E+00  0.00000000000E+00  0.70115230723E+03  0.70115230723E+03  0.00000000000E+00 0.  1.
         -2   -1    0    0    0  501 -0.00000000000E+00 -0.00000000000E+00 -0.18233813650E+04  0.18233813650E+04  0.00000000000E+00 0. -1.
    2000013    1    1    2    0    0 -0.29017680631E+03 -0.51988769317E+03 -0.39749083130E+03  0.11895313167E+04  0.95000000000E+03 0.  0.
   -2000013    1    1    2    0    0  0.29017680631E+03  0.51988769317E+03 -0.72473822652E+03  0.13350023556E+04  0.95000000000E+03 0.  0.
<mgrwt>
<rscale>  0 0.22613872E+04</rscale>
<asrwt>0</asrwt>
<pdfrwt beam="1">  1        2 0.10786959E+00 0.22613872E+04</pdfrwt>
<pdfrwt beam="2">  1       -2 0.28052021E+00 0.22613872E+04</pdfrwt>
<totfact> 0.15548384E+00</totfact>
</mgrwt>
</event>
<event>
 4    1  0.1308745E-008  0.2900290E+04  0.7816531E-02  0.8272791E-01
          2   -1    0    0  501    0  0.00000000000E+00  0.00000000000E+00  0.12385935293E+04  0.12385935293E+04  0.00000000000E+00 0.  1.
         -2   -1    0    0    0  501 -0.00000000000E+00 -0.00000000000E+00 -0.16978299539E+04  0.16978299539E+04  0.00000000000E+00 0. -1.
    2000013    1    1    2    0    0 -0.74905601961E+03 -0.76497394507E+03  0.59848800151E+01  0.14313650394E+04  0.95000000000E+03 0.  0.
   -2000013    1    1    2    0    0  0.74905601961E+03  0.76497394507E+03 -0.46522130459E+03  0.15050584438E+04  0.95000000000E+03 0.  0.
<mgrwt>
<rscale>  0 0.29002905E+04</rscale>
<asrwt>0</asrwt>
<pdfrwt beam="1">  1        2 0.19055285E+00 0.29002905E+04</pdfrwt>
<pdfrwt beam="2">  1       -2 0.26120461E+00 0.29002905E+04</pdfrwt>
<totfact> 0.85045689E-01</totfact>
</mgrwt>
</event>
<event>
 4    1  0.1308745E-008  0.2547761E+04  0.7816531E-02  0.8386165E-01
         -2   -1    0    0    0  501 -0.00000000000E+00  0.00000000000E+00  0.20045749901E+04  0.20045749901E+04  0.00000000000E+00 0. -1.
          2   -1    0    0  501    0  0.00000000000E+00 -0.00000000000E+00 -0.80953418110E+03  0.80953418110E+03  0.00000000000E+00 0.  1.
    2000013    1    1    2    0    0 -0.44132276784E+03  0.92139140459E+02 -0.19668790437E+03  0.10697857441E+04  0.95000000000E+03 0.  0.
   -2000013    1    1    2    0    0  0.44132276784E+03 -0.92139140459E+02  0.13917287133E+04  0.17443234270E+04  0.95000000000E+03 0.  0.
<mgrwt>
<rscale>  0 0.25477613E+04</rscale>
<asrwt>0</asrwt>
<pdfrwt beam="2">  1        2 0.12454372E+00 0.25477613E+04</pdfrwt>
<pdfrwt beam="1">  1       -2 0.30839615E+00 0.25477613E+04</pdfrwt>
<totfact> 0.85043080E-01</totfact>
</mgrwt>
</event>
<event>
 4    1  0.1308745E-008  0.2665276E+04  0.7816531E-02  0.8346360E-01
         -2   -1    0    0    0  501 -0.00000000000E+00  0.00000000000E+00  0.40440070199E+03  0.40440070199E+03  0.00000000000E+00 0. -1.
          2   -1    0    0  501    0  0.00000000000E+00 -0.00000000000E+00 -0.43914961261E+04  0.43914961261E+04  0.00000000000E+00 0.  1.
    2000013    1    1    2    0    0  0.32099895561E+03  0.80693409952E+03 -0.26149040088E+04  0.29145164171E+04  0.95000000000E+03 0.  0.
   -2000013    1    1    2    0    0 -0.32099895561E+03 -0.80693409952E+03 -0.13721914153E+04  0.18813804109E+04  0.95000000000E+03 0.  0.
<mgrwt>
<rscale>  0 0.26652761E+04</rscale>
<asrwt>0</asrwt>
<pdfrwt beam="2">  1        2 0.67561479E+00 0.26652761E+04</pdfrwt>
<pdfrwt beam="1">  1       -2 0.62215493E-01 0.26652761E+04</pdfrwt>
<totfact> 0.33073632E-01</totfact>
</mgrwt>
</event>
<event>
 4    1  0.1308745E-008  0.3172751E+04  0.7816531E-02  0.8196051E-01
         -2   -1    0    0    0  501 -0.00000000000E+00  0.00000000000E+00  0.23232363009E+04  0.23232363009E+04  0.00000000000E+00 0. -1.
          2   -1    0    0  501    0  0.00000000000E+00 -0.00000000000E+00 -0.10832249601E+04  0.10832249601E+04  0.00000000000E+00 0.  1.
    2000013    1    1    2    0    0 -0.11475678692E+04  0.52163207704E+03  0.44998867662E+03  0.16413414780E+04  0.95000000000E+03 0.  0.
   -2000013    1    1    2    0    0  0.11475678692E+04 -0.52163207704E+03  0.79002266417E+03  0.17651197830E+04  0.95000000000E+03 0.  0.
<mgrwt>
<rscale>  0 0.31727512E+04</rscale>
<asrwt>0</asrwt>
<pdfrwt beam="2">  1        2 0.16664999E+00 0.31727512E+04</pdfrwt>
<pdfrwt beam="1">  1       -2 0.35742097E+00 0.31727512E+04</pdfrwt>
<totfact> 0.26286243E-01</totfact>
</mgrwt>
</event>
<event>
 4    1  0.1308745E-008  0.2753945E+04  0.7816531E-02  0.8317711E-01
         -2   -1    0    0    0  501 -0.00000000000E+00  0.00000000000E+00  0.19679666553E+04  0.19679666553E+04  0.00000000000E+00 0. -1.
          2   -1    0    0  501    0  0.00000000000E+00 -0.00000000000E+00 -0.96345822493E+03  0.96345822493E+03  0.00000000000E+00 0.  1.
    2000013    1    1    2    0    0 -0.15971725240E+03  0.44895194618E+03  0.14341677828E+04  0.17850503298E+04  0.95000000000E+03 0.  0.
   -2000013    1    1    2    0    0  0.15971725240E+03 -0.44895194618E+03 -0.42965935245E+03  0.11463745504E+04  0.95000000000E+03 0.  0.
<mgrwt>
<rscale>  0 0.27539453E+04</rscale>
<asrwt>0</asrwt>
<pdfrwt beam="2">  1        2 0.14822434E+00 0.27539453E+04</pdfrwt>
<pdfrwt beam="1">  1       -2 0.30276410E+00 0.27539453E+04</pdfrwt>
<totfact> 0.71028136E-01</totfact>
</mgrwt>
</event>
<event>
 4    1  0.1308745E-008  0.2211780E+04  0.7816531E-02  0.8513541E-01
         -2   -1    0    0    0  501 -0.00000000000E+00  0.00000000000E+00  0.42566287976E+03  0.42566287976E+03  0.00000000000E+00 0. -1.
          2   -1    0    0  501    0  0.00000000000E+00 -0.00000000000E+00 -0.28731492582E+04  0.28731492582E+04  0.00000000000E+00 0.  1.
    2000013    1    1    2    0    0  0.27624972217E+02 -0.52704191021E+03 -0.91823973401E+03  0.14227440119E+04  0.95000000000E+03 0.  0.
   -2000013    1    1    2    0    0 -0.27624972217E+02  0.52704191021E+03 -0.15292466444E+04  0.18760681260E+04  0.95000000000E+03 0.  0.
<mgrwt>
<rscale>  0 0.22117803E+04</rscale>
<asrwt>0</asrwt>
<pdfrwt beam="2">  1        2 0.44202296E+00 0.22117803E+04</pdfrwt>
<pdfrwt beam="1">  1       -2 0.65486597E-01 0.22117803E+04</pdfrwt>
<totfact> 0.40972444E+00</totfact>
</mgrwt>
</event>
<event>
 4    1  0.1308745E-008  0.2515624E+04  0.7816531E-02  0.8397440E-01
          2   -1    0    0  501    0  0.00000000000E+00  0.00000000000E+00  0.31197938689E+04  0.31197938689E+04  0.00000000000E+00 0.  1.
         -2   -1    0    0    0  501 -0.00000000000E+00 -0.00000000000E+00 -0.50711408682E+03  0.50711408682E+03  0.00000000000E+00 0. -1.
    2000013    1    1    2    0    0 -0.25831211216E+03  0.72507724296E+03  0.17319116222E+04  0.21200188732E+04  0.95000000000E+03 0.  0.
   -2000013    1    1    2    0    0  0.25831211216E+03 -0.72507724296E+03  0.88076815980E+03  0.15068890825E+04  0.95000000000E+03 0.  0.
<mgrwt>
<rscale>  0 0.25156243E+04</rscale>
<asrwt>0</asrwt>
<pdfrwt beam="1">  1        2 0.47996827E+00 0.25156243E+04</pdfrwt>
<pdfrwt beam="2">  1       -2 0.78017554E-01 0.25156243E+04</pdfrwt>
<totfact> 0.19043751E+00</totfact>
</mgrwt>
</event>
<event>
 4    1  0.1308745E-008  0.2682426E+04  0.7816531E-02  0.8340730E-01
         -2   -1    0    0    0  501 -0.00000000000E+00  0.00000000000E+00  0.12032227382E+04  0.12032227382E+04  0.00000000000E+00 0. -1.
          2   -1    0    0  501    0  0.00000000000E+00 -0.00000000000E+00 -0.14950285014E+04  0.14950285014E+04  0.00000000000E+00 0.  1.
    2000013    1    1    2    0    0  0.19716712810E+02  0.49338557450E+03 -0.95846445774E+03  0.14370011102E+04  0.95000000000E+03 0.  0.
   -2000013    1    1    2    0    0 -0.19716712810E+02 -0.49338557450E+03  0.66665869458E+03  0.12612501294E+04  0.95000000000E+03 0.  0.
<mgrwt>
<rscale>  0 0.26824260E+04</rscale>
<asrwt>0</asrwt>
<pdfrwt beam="2">  1        2 0.23000438E+00 0.26824260E+04</pdfrwt>
<pdfrwt beam="1">  1       -2 0.18511119E+00 0.26824260E+04</pdfrwt>
<totfact> 0.18776915E+00</totfact>
</mgrwt>
</event>
<event>
 4    1  0.1308745E-008  0.2175038E+04  0.7816531E-02  0.8528890E-01
         -2   -1    0    0    0  501 -0.00000000000E+00  0.00000000000E+00  0.61713082742E+03  0.61713082742E+03  0.00000000000E+00 0. -1.
          2   -1    0    0  501    0  0.00000000000E+00 -0.00000000000E+00 -0.19164446921E+04  0.19164446921E+04  0.00000000000E+00 0.  1.
    2000013    1    1    2    0    0  0.11139387056E+03 -0.35883200551E+03 -0.10839854845E+04  0.14895279565E+04  0.95000000000E+03 0.  0.
   -2000013    1    1    2    0    0 -0.11139387056E+03  0.35883200551E+03 -0.21532838019E+03  0.10440475630E+04  0.95000000000E+03 0.  0.
<mgrwt>
<rscale>  0 0.21750376E+04</rscale>
<asrwt>0</asrwt>
<pdfrwt beam="2">  1        2 0.29483765E+00 0.21750376E+04</pdfrwt>
<pdfrwt beam="1">  1       -2 0.94943203E-01 0.21750376E+04</pdfrwt>
<totfact> 0.63557362E+00</totfact>
</mgrwt>
</event>
<event>
 4    1  0.1308745E-008  0.2391492E+04  0.7816531E-02  0.8442696E-01
         -2   -1    0    0    0  501 -0.00000000000E+00  0.00000000000E+00  0.54741270768E+03  0.54741270768E+03  0.00000000000E+00 0. -1.
          2   -1    0    0  501    0  0.00000000000E+00 -0.00000000000E+00 -0.26119396756E+04  0.26119396756E+04  0.00000000000E+00 0.  1.
    2000013    1    1    2    0    0  0.59031859222E+03  0.16559697866E+03 -0.15463156126E+04  0.19155913900E+04  0.95000000000E+03 0.  0.
   -2000013    1    1    2    0    0 -0.59031859222E+03 -0.16559697866E+03 -0.51821135532E+03  0.12437609933E+04  0.95000000000E+03 0.  0.
<mgrwt>
<rscale>  0 0.23914924E+04</rscale>
<asrwt>0</asrwt>
<pdfrwt beam="2">  1        2 0.40183687E+00 0.23914924E+04</pdfrwt>
<pdfrwt beam="1">  1       -2 0.84217339E-01 0.23914924E+04</pdfrwt>
<totfact> 0.33156814E+00</totfact>
</mgrwt>
</event>
<event>
 4    1  0.1308745E-008  0.2207271E+04  0.7816531E-02  0.8515408E-01
         -2   -1    0    0    0  501 -0.00000000000E+00  0.00000000000E+00  0.59157928809E+03  0.59157928809E+03  0.00000000000E+00 0. -1.
          2   -1    0    0  501    0  0.00000000000E+00 -0.00000000000E+00 -0.20589151569E+04  0.20589151569E+04  0.00000000000E+00 0.  1.
    2000013    1    1    2    0    0 -0.53201234155E+03 -0.11693978612E+03 -0.89831141928E+03  0.14163952313E+04  0.95000000000E+03 0.  0.
   -2000013    1    1    2    0    0  0.53201234155E+03  0.11693978612E+03 -0.56902444950E+03  0.12340992137E+04  0.95000000000E+03 0.  0.
<mgrwt>
<rscale>  0 0.22072712E+04</rscale>
<asrwt>0</asrwt>
<pdfrwt beam="2">  1        2 0.31675618E+00 0.22072712E+04</pdfrwt>
<pdfrwt beam="1">  1       -2 0.91012198E-01 0.22072712E+04</pdfrwt>
<totfact> 0.58270261E+00</totfact>
</mgrwt>
</event>
<event>
 4    1  0.1308745E-008  0.2038402E+04  0.7816531E-02  0.8588874E-01
         -2   -1    0    0    0  501 -0.00000000000E+00  0.00000000000E+00  0.84880208534E+03  0.84880208534E+03  0.00000000000E+00 0. -1.
          2   -1    0    0  501    0  0.00000000000E+00 -0.00000000000E+00 -0.12238074522E+04  0.12238074522E+04  0.00000000000E+00 0.  1.
    2000013    1    1    2    0    0 -0.18269166080E+03  0.30836654451E+03 -0.27732629245E+03  0.10525569064E+04  0.95000000000E+03 0.  0.
   -2000013    1    1    2    0    0  0.18269166080E+03 -0.30836654451E+03 -0.97679074390E+02  0.10200526311E+04  0.95000000000E+03 0.  0.
<mgrwt>
<rscale>  0 0.20384016E+04</rscale>
<asrwt>0</asrwt>
<pdfrwt beam="2">  1        2 0.18827807E+00 0.20384016E+04</pdfrwt>
<pdfrwt beam="1">  1       -2 0.13058494E+00 0.20384016E+04</pdfrwt>
<totfact> 0.72912118E+00</totfact>
</mgrwt>
</event>
<event>
 4    1  0.1308745E-008  0.2326545E+04  0.7816531E-02  0.8467528E-01
         -2   -1    0    0    0  501 -0.00000000000E+00  0.00000000000E+00  0.11124532051E+04  0.11124532051E+04  0.00000000000E+00 0. -1.
          2   -1    0    0  501    0  0.00000000000E+00 -0.00000000000E+00 -0.12164129355E+04  0.12164129355E+04  0.00000000000E+00 0.  1.
    2000013    1    1    2    0    0 -0.39228602538E+03  0.10042153036E+03 -0.58798561656E+03  0.11883601705E+04  0.95000000000E+03 0.  0.
   -2000013    1    1    2    0    0  0.39228602538E+03 -0.10042153036E+03  0.48402588611E+03  0.11405059701E+04  0.95000000000E+03 0.  0.
<mgrwt>
<rscale>  0 0.23265446E+04</rscale>
<asrwt>0</asrwt>
<pdfrwt beam="2">  1        2 0.18714045E+00 0.23265446E+04</pdfrwt>
<pdfrwt beam="1">  1       -2 0.17114665E+00 0.23265446E+04</pdfrwt>
<totfact> 0.35042577E+00</totfact>
</mgrwt>
</event>
<event>
 4    1  0.1308745E-008  0.2495657E+04  0.7816531E-02  0.8404534E-01
          2   -1    0    0  501    0  0.00000000000E+00  0.00000000000E+00  0.76037208678E+03  0.76037208678E+03  0.00000000000E+00 0.  1.
         -2   -1    0    0    0  501 -0.00000000000E+00 -0.00000000000E+00 -0.20477819245E+04  0.20477819245E+04  0.00000000000E+00 0. -1.
    2000013    1    1    2    0    0  0.76590714988E+03 -0.13894386554E+03 -0.89190899077E+03  0.15178671904E+04  0.95000000000E+03 0.  0.
   -2000013    1    1    2    0    0 -0.76590714988E+03  0.13894386554E+03 -0.39550084690E+03  0.12902868208E+04  0.95000000000E+03 0.  0.
<mgrwt>
<rscale>  0 0.24956572E+04</rscale>
<asrwt>0</asrwt>
<pdfrwt beam="1">  1        2 0.11698032E+00 0.24956572E+04</pdfrwt>
<pdfrwt beam="2">  1       -2 0.31504337E+00 0.24956572E+04</pdfrwt>
<totfact> 0.84457015E-01</totfact>
</mgrwt>
</event>
<event>
 4    1  0.1308745E-008  0.3356153E+04  0.7816531E-02  0.8148753E-01
         -2   -1    0    0    0  501 -0.00000000000E+00  0.00000000000E+00  0.77863675727E+03  0.77863675727E+03  0.00000000000E+00 0. -1.
          2   -1    0    0  501    0  0.00000000000E+00 -0.00000000000E+00 -0.36165002434E+04  0.36165002434E+04  0.00000000000E+00 0.  1.
    2000013    1    1    2    0    0 -0.40215099773E+03  0.13225846450E+04 -0.14842066410E+04  0.22397153662E+04  0.95000000000E+03 0.  0.
   -2000013    1    1    2    0    0  0.40215099773E+03 -0.13225846450E+04 -0.13536568451E+04  0.21554216345E+04  0.95000000000E+03 0.  0.
<mgrwt>
<rscale>  0 0.33561526E+04</rscale>
<asrwt>0</asrwt>
<pdfrwt beam="2">  1        2 0.55638464E+00 0.33561526E+04</pdfrwt>
<pdfrwt beam="1">  1       -2 0.11979027E+00 0.33561526E+04</pdfrwt>
<totfact> 0.29735960E-01</totfact>
</mgrwt>
</event>
<event>
 4    1  0.1308745E-008  0.2211464E+04  0.7816531E-02  0.8513672E-01
         -2   -1    0    0    0  501 -0.00000000000E+00  0.00000000000E+00  0.12674143222E+04  0.12674143222E+04  0.00000000000E+00 0. -1.
          2   -1    0    0  501    0  0.00000000000E+00 -0.00000000000E+00 -0.96467507625E+03  0.96467507625E+03  0.00000000000E+00 0.  1.
    2000013    1    1    2    0    0  0.44151040980E+03  0.11006585071E+03  0.49080526295E+03  0.11620825012E+04  0.95000000000E+03 0.  0.
   -2000013    1    1    2    0    0 -0.44151040980E+03 -0.11006585071E+03 -0.18806601698E+03  0.10700068973E+04  0.95000000000E+03 0.  0.
<mgrwt>
<rscale>  0 0.22114638E+04</rscale>
<asrwt>0</asrwt>
<pdfrwt beam="2">  1        2 0.14841155E+00 0.22114638E+04</pdfrwt>
<pdfrwt beam="1">  1       -2 0.19498682E+00 0.22114638E+04</pdfrwt>
<totfact> 0.34798571E+00</totfact>
</mgrwt>
</event>
<event>
 4    1  0.1308745E-008  0.2162691E+04  0.7816531E-02  0.8534119E-01
         -2   -1    0    0    0  501 -0.00000000000E+00  0.00000000000E+00  0.38076546567E+03  0.38076546567E+03  0.00000000000E+00 0. -1.
          2   -1    0    0  501    0  0.00000000000E+00 -0.00000000000E+00 -0.30709409474E+04  0.30709409474E+04  0.00000000000E+00 0.  1.
    2000013    1    1    2    0    0  0.43952172538E+03  0.16153399307E+03 -0.99711180696E+03  0.14546492820E+04  0.95000000000E+03 0.  0.
   -2000013    1    1    2    0    0 -0.43952172538E+03 -0.16153399307E+03 -0.16930636747E+04  0.19970571311E+04  0.95000000000E+03 0.  0.
<mgrwt>
<rscale>  0 0.21626912E+04</rscale>
<asrwt>0</asrwt>
<pdfrwt beam="2">  1        2 0.47245246E+00 0.21626912E+04</pdfrwt>
<pdfrwt beam="1">  1       -2 0.58579302E-01 0.21626912E+04</pdfrwt>
<totfact> 0.39294643E+00</totfact>
</mgrwt>
</event>
<event>
 4    1  0.1308745E-008  0.2574814E+04  0.7816531E-02  0.8376807E-01
         -2   -1    0    0    0  501 -0.00000000000E+00  0.00000000000E+00  0.83005710999E+03  0.83005710999E+03  0.00000000000E+00 0. -1.
          2   -1    0    0  501    0  0.00000000000E+00 -0.00000000000E+00 -0.19967500802E+04  0.19967500802E+04  0.00000000000E+00 0.  1.
    2000013    1    1    2    0    0  0.21261272314E+03 -0.71926545154E+03 -0.10182173247E+03  0.12146664666E+04  0.95000000000E+03 0.  0.
   -2000013    1    1    2    0    0 -0.21261272314E+03  0.71926545154E+03 -0.10648712378E+04  0.16121407236E+04  0.95000000000E+03 0.  0.
<mgrwt>
<rscale>  0 0.25748139E+04</rscale>
<asrwt>0</asrwt>
<pdfrwt beam="2">  1        2 0.30719231E+00 0.25748139E+04</pdfrwt>
<pdfrwt beam="1">  1       -2 0.12770110E+00 0.25748139E+04</pdfrwt>
<totfact> 0.27020698E+00</totfact>
</mgrwt>
</event>
<event>
 4    1  0.1308745E-008  0.2242130E+04  0.7816531E-02  0.8501095E-01
         -2   -1    0    0    0  501 -0.00000000000E+00  0.00000000000E+00  0.78863446084E+03  0.78863446084E+03  0.00000000000E+00 0. -1.
          2   -1    0    0  501    0  0.00000000000E+00 -0.00000000000E+00 -0.15936233705E+04  0.15936233705E+04  0.00000000000E+00 0.  1.
    2000013    1    1    2    0    0 -0.41871699780E+03  0.24229462709E+03 -0.77094642012E+03  0.13156325449E+04  0.95000000000E+03 0.  0.
   -2000013    1    1    2    0    0  0.41871699780E+03 -0.24229462709E+03 -0.34042489546E+02  0.10666252864E+04  0.95000000000E+03 0.  0.
<mgrwt>
<rscale>  0 0.22421296E+04</rscale>
<asrwt>0</asrwt>
<pdfrwt beam="2">  1        2 0.24517282E+00 0.22421296E+04</pdfrwt>
<pdfrwt beam="1">  1       -2 0.12132838E+00 0.22421296E+04</pdfrwt>
<totfact> 0.52922408E+00</totfact>
</mgrwt>
</event>
<event>
 4    1  0.1308745E-008  0.4386012E+04  0.7816531E-02  0.7930902E-01
         -2   -1    0    0    0  501 -0.00000000000E+00  0.00000000000E+00  0.17273954925E+04  0.17273954925E+04  0.00000000000E+00 0. -1.
          2   -1    0    0  501    0  0.00000000000E+00 -0.00000000000E+00 -0.27841191769E+04  0.27841191769E+04  0.00000000000E+00 0.  1.
    2000013    1    1    2    0    0  0.12675196410E+04  0.14998615224E+04 -0.75970699578E+03  0.23099448795E+04  0.95000000000E+03 0.  0.
   -2000013    1    1    2    0    0 -0.12675196410E+04 -0.14998615224E+04 -0.29701668862E+03  0.22015697900E+04  0.95000000000E+03 0.  0.
<mgrwt>
<rscale>  0 0.43860118E+04</rscale>
<asrwt>0</asrwt>
<pdfrwt beam="2">  1        2 0.42832602E+00 0.43860118E+04</pdfrwt>
<pdfrwt beam="1">  1       -2 0.26575316E+00 0.43860118E+04</pdfrwt>
<totfact> 0.92998682E-02</totfact>
</mgrwt>
</event>
<event>
 4    1  0.1308745E-008  0.2098106E+04  0.7816531E-02  0.8562078E-01
          2   -1    0    0  501    0  0.00000000000E+00  0.00000000000E+00  0.12129998691E+04  0.12129998691E+04  0.00000000000E+00 0.  1.
         -2   -1    0    0    0  501 -0.00000000000E+00 -0.00000000000E+00 -0.90726454940E+03  0.90726454940E+03  0.00000000000E+00 0. -1.
    2000013    1    1    2    0    0 -0.17655688783E+02 -0.44424427110E+03  0.17169460651E+03  0.10628469945E+04  0.95000000000E+03 0.  0.
   -2000013    1    1    2    0    0  0.17655688783E+02  0.44424427110E+03  0.13404071315E+03  0.10574174240E+04  0.95000000000E+03 0.  0.
<mgrwt>
<rscale>  0 0.20981056E+04</rscale>
<asrwt>0</asrwt>
<pdfrwt beam="1">  1        2 0.18661537E+00 0.20981056E+04</pdfrwt>
<pdfrwt beam="2">  1       -2 0.13957916E+00 0.20981056E+04</pdfrwt>
<totfact> 0.62080761E+00</totfact>
</mgrwt>
</event>
<event>
 4    1  0.1308745E-008  0.2780473E+04  0.7816531E-02  0.8309356E-01
         -2   -1    0    0    0  501 -0.00000000000E+00  0.00000000000E+00  0.98113876802E+03  0.98113876802E+03  0.00000000000E+00 0. -1.
          2   -1    0    0  501    0  0.00000000000E+00 -0.00000000000E+00 -0.19699128932E+04  0.19699128932E+04  0.00000000000E+00 0.  1.
    2000013    1    1    2    0    0 -0.79425779715E+03 -0.51964520975E+03 -0.87615009411E+03  0.16034386735E+04  0.95000000000E+03 0.  0.
   -2000013    1    1    2    0    0  0.79425779715E+03  0.51964520975E+03 -0.11262403112E+03  0.13476129877E+04  0.95000000000E+03 0.  0.
<mgrwt>
<rscale>  0 0.27804733E+04</rscale>
<asrwt>0</asrwt>
<pdfrwt beam="2">  1        2 0.30306352E+00 0.27804733E+04</pdfrwt>
<pdfrwt beam="1">  1       -2 0.15094443E+00 0.27804733E+04</pdfrwt>
<totfact> 0.17833986E+00</totfact>
</mgrwt>
</event>
<event>
 4    1  0.1308745E-008  0.2179556E+04  0.7816531E-02  0.8526986E-01
         -2   -1    0    0    0  501 -0.00000000000E+00  0.00000000000E+00  0.99924745889E+03  0.99924745889E+03  0.00000000000E+00 0. -1.
          2   -1    0    0  501    0  0.00000000000E+00 -0.00000000000E+00 -0.11885109439E+04  0.11885109439E+04  0.00000000000E+00 0.  1.
    2000013    1    1    2    0    0 -0.47043937962E+03  0.27493163931E+01  0.15889699533E+03  0.10719463717E+04  0.95000000000E+03 0.  0.
   -2000013    1    1    2    0    0  0.47043937962E+03 -0.27493163931E+01 -0.34816048032E+03  0.11158120311E+04  0.95000000000E+03 0.  0.
<mgrwt>
<rscale>  0 0.21795564E+04</rscale>
<asrwt>0</asrwt>
<pdfrwt beam="2">  1        2 0.18284784E+00 0.21795564E+04</pdfrwt>
<pdfrwt beam="1">  1       -2 0.15373038E+00 0.21795564E+04</pdfrwt>
<totfact> 0.49448840E+00</totfact>
</mgrwt>
</event>
<event>
 4    1  0.1308745E-008  0.3367743E+04  0.7816531E-02  0.8145869E-01
          2   -1    0    0  501    0  0.00000000000E+00  0.00000000000E+00  0.15932443611E+04  0.15932443611E+04  0.00000000000E+00 0.  1.
         -2   -1    0    0    0  501 -0.00000000000E+00 -0.00000000000E+00 -0.17796532707E+04  0.17796532707E+04  0.00000000000E+00 0. -1.
    2000013    1    1    2    0    0  0.37870250222E+03 -0.10630739674E+04 -0.90647002079E+03  0.17313953171E+04  0.95000000000E+03 0.  0.
   -2000013    1    1    2    0    0 -0.37870250222E+03  0.10630739674E+04  0.72006111120E+03  0.16415023147E+04  0.95000000000E+03 0.  0.
<mgrwt>
<rscale>  0 0.33677426E+04</rscale>
<asrwt>0</asrwt>
<pdfrwt beam="1">  1        2 0.24511452E+00 0.33677426E+04</pdfrwt>
<pdfrwt beam="2">  1       -2 0.27379281E+00 0.33677426E+04</pdfrwt>
<totfact> 0.42935130E-01</totfact>
</mgrwt>
</event>
<event>
 4    1  0.1308745E-008  0.2775321E+04  0.7816531E-02  0.8310971E-01
         -2   -1    0    0    0  501 -0.00000000000E+00  0.00000000000E+00  0.91249731820E+03  0.91249731820E+03  0.00000000000E+00 0. -1.
          2   -1    0    0  501    0  0.00000000000E+00 -0.00000000000E+00 -0.21102542721E+04  0.21102542721E+04  0.00000000000E+00 0.  1.
    2000013    1    1    2    0    0  0.94057236504E+03  0.26448912476E+03 -0.88387594235E+03  0.16243052522E+04  0.95000000000E+03 0.  0.
   -2000013    1    1    2    0    0 -0.94057236504E+03 -0.26448912476E+03 -0.31388101155E+03  0.13984463381E+04  0.95000000000E+03 0.  0.
<mgrwt>
<rscale>  0 0.27753208E+04</rscale>
<asrwt>0</asrwt>
<pdfrwt beam="2">  1        2 0.32465450E+00 0.27753208E+04</pdfrwt>
<pdfrwt beam="1">  1       -2 0.14038420E+00 0.27753208E+04</pdfrwt>
<totfact> 0.18030307E+00</totfact>
</mgrwt>
</event>
<event>
 4    1  0.1308745E-008  0.1997169E+04  0.7816531E-02  0.8607946E-01
         -2   -1    0    0    0  501 -0.00000000000E+00  0.00000000000E+00  0.75027409597E+03  0.75027409597E+03  0.00000000000E+00 0. -1.
          2   -1    0    0  501    0  0.00000000000E+00 -0.00000000000E+00 -0.13290751286E+04  0.13290751286E+04  0.00000000000E+00 0.  1.
    2000013    1    1    2    0    0 -0.24176366606E+03 -0.24486926367E+02 -0.48590295772E+03  0.10943724065E+04  0.95000000000E+03 0.  0.
   -2000013    1    1    2    0    0  0.24176366606E+03  0.24486926367E+02 -0.92898074898E+02  0.98497681806E+03  0.95000000000E+03 0.  0.
<mgrwt>
<rscale>  0 0.19971686E+04</rscale>
<asrwt>0</asrwt>
<pdfrwt beam="2">  1        2 0.20447310E+00 0.19971686E+04</pdfrwt>
<pdfrwt beam="1">  1       -2 0.11542678E+00 0.19971686E+04</pdfrwt>
<totfact> 0.86350631E+00</totfact>
</mgrwt>
</event>
<event>
 4    1  0.1308745E-008  0.2041822E+04  0.7816531E-02  0.8587313E-01
         -2   -1    0    0    0  501 -0.00000000000E+00  0.00000000000E+00  0.11229346474E+04  0.11229346474E+04  0.00000000000E+00 0. -1.
          2   -1    0    0  501    0  0.00000000000E+00 -0.00000000000E+00 -0.92815695810E+03  0.92815695810E+03  0.00000000000E+00 0.  1.
    2000013    1    1    2    0    0  0.30237260555E+03 -0.21713654730E+03  0.13192710086E+03  0.10288256571E+04  0.95000000000E+03 0.  0.
   -2000013    1    1    2    0    0 -0.30237260555E+03  0.21713654730E+03  0.62850588423E+02  0.10222659484E+04  0.95000000000E+03 0.  0.
<mgrwt>
<rscale>  0 0.20418223E+04</rscale>
<asrwt>0</asrwt>
<pdfrwt beam="2">  1        2 0.14279338E+00 0.20418223E+04</pdfrwt>
<pdfrwt beam="1">  1       -2 0.17275918E+00 0.20418223E+04</pdfrwt>
<totfact> 0.52941942E+00</totfact>
</mgrwt>
</event>
<event>
 4    1  0.1308745E-008  0.2745438E+04  0.7816531E-02  0.8320411E-01
          2   -1    0    0  501    0  0.00000000000E+00  0.00000000000E+00  0.20502810517E+04  0.20502810517E+04  0.00000000000E+00 0.  1.
         -2   -1    0    0    0  501 -0.00000000000E+00 -0.00000000000E+00 -0.91907268063E+03  0.91907268063E+03  0.00000000000E+00 0. -1.
    2000013    1    1    2    0    0  0.53369717167E+03  0.80774931436E+03  0.33728071086E+03  0.13976944959E+04  0.95000000000E+03 0.  0.
   -2000013    1    1    2    0    0 -0.53369717167E+03 -0.80774931436E+03  0.79392766024E+03  0.15716592365E+04  0.95000000000E+03 0.  0.
<mgrwt>
<rscale>  0 0.27454379E+04</rscale>
<asrwt>0</asrwt>
<pdfrwt beam="1">  1        2 0.31542785E+00 0.27454379E+04</pdfrwt>
<pdfrwt beam="2">  1       -2 0.14139580E+00 0.27454379E+04</pdfrwt>
<totfact> 0.19162641E+00</totfact>
</mgrwt>
</event>
<event>
 4    1  0.1308745E-008  0.2175435E+04  0.7816531E-02  0.8528723E-01
          2   -1    0    0  501    0  0.00000000000E+00  0.00000000000E+00  0.94261459117E+03  0.94261459117E+03  0.00000000000E+00 0.  1.
         -2   -1    0    0    0  501 -0.00000000000E+00 -0.00000000000E+00 -0.12551570376E+04  0.12551570376E+04  0.00000000000E+00 0. -1.
    2000013    1    1    2    0    0 -0.14894373458E+03 -0.32550048246E+03  0.23824384833E+03  0.10427823030E+04  0.95000000000E+03 0.  0.
   -2000013    1    1    2    0    0  0.14894373458E+03  0.32550048246E+03 -0.55078629472E+03  0.11549893258E+04  0.95000000000E+03 0.  0.
<mgrwt>
<rscale>  0 0.21754350E+04</rscale>
<asrwt>0</asrwt>
<pdfrwt beam="1">  1        2 0.14501763E+00 0.21754350E+04</pdfrwt>
<pdfrwt beam="2">  1       -2 0.19310108E+00 0.21754350E+04</pdfrwt>
<totfact> 0.37147022E+00</totfact>
</mgrwt>
</event>
<event>
 4    1  0.1308745E-008  0.2684481E+04  0.7816531E-02  0.8340058E-01
         -1   -1    0    0    0  501 -0.00000000000E+00  0.00000000000E+00  0.87514440807E+03  0.87514440807E+03  0.00000000000E+00 0. -1.
          1   -1    0    0  501    0  0.00000000000E+00 -0.00000000000E+00 -0.20586432411E+04  0.20586432411E+04  0.00000000000E+00 0.  1.
    2000013    1    1    2    0    0 -0.41651369487E+03 -0.42484298444E+03 -0.13986504426E+04  0.17924001451E+04  0.95000000000E+03 0.  0.
   -2000013    1    1    2    0    0  0.41651369487E+03  0.42484298444E+03  0.21515160958E+03  0.11413875041E+04  0.95000000000E+03 0.  0.
<mgrwt>
<rscale>  0 0.26844814E+04</rscale>
<asrwt>0</asrwt>
<pdfrwt beam="2">  1        1 0.31671434E+00 0.26844814E+04</pdfrwt>
<pdfrwt beam="1">  1       -1 0.13463760E+00 0.26844814E+04</pdfrwt>
<totfact> 0.11024017E+00</totfact>
</mgrwt>
</event>
<event>
 4    1  0.1308745E-008  0.2492356E+04  0.7816531E-02  0.8405714E-01
          2   -1    0    0  501    0  0.00000000000E+00  0.00000000000E+00  0.15639376844E+04  0.15639376844E+04  0.00000000000E+00 0.  1.
         -2   -1    0    0    0  501 -0.00000000000E+00 -0.00000000000E+00 -0.99298057970E+03  0.99298057970E+03  0.00000000000E+00 0. -1.
    2000013    1    1    2    0    0 -0.60571746492E+03 -0.28612457581E+02  0.83099277983E+03  0.14002718737E+04  0.95000000000E+03 0.  0.
   -2000013    1    1    2    0    0  0.60571746492E+03  0.28612457581E+02 -0.26003567518E+03  0.11566463904E+04  0.95000000000E+03 0.  0.
<mgrwt>
<rscale>  0 0.24923561E+04</rscale>
<asrwt>0</asrwt>
<pdfrwt beam="1">  1        2 0.24060580E+00 0.24923561E+04</pdfrwt>
<pdfrwt beam="2">  1       -2 0.15276624E+00 0.24923561E+04</pdfrwt>
<totfact> 0.29762659E+00</totfact>
</mgrwt>
</event>
<event>
 4    1  0.1308745E-008  0.1987603E+04  0.7816531E-02  0.8612439E-01
         -2   -1    0    0    0  501 -0.00000000000E+00  0.00000000000E+00  0.26592356631E+03  0.26592356631E+03  0.00000000000E+00 0. -1.
          2   -1    0    0  501    0  0.00000000000E+00 -0.00000000000E+00 -0.37140057760E+04  0.37140057760E+04  0.00000000000E+00 0.  1.
    2000013    1    1    2    0    0  0.22379125957E+03  0.49359087202E+02 -0.20857060156E+04  0.23032994662E+04  0.95000000000E+03 0.  0.
   -2000013    1    1    2    0    0 -0.22379125957E+03 -0.49359087202E+02 -0.13623761941E+04  0.16766298762E+04  0.95000000000E+03 0.  0.
<mgrwt>
<rscale>  0 0.19876032E+04</rscale>
<asrwt>0</asrwt>
<pdfrwt beam="2">  1        2 0.57138549E+00 0.19876032E+04</pdfrwt>
<pdfrwt beam="1">  1       -2 0.40911319E-01 0.19876032E+04</pdfrwt>
<totfact> 0.30221961E+00</totfact>
</mgrwt>
</event>
<event>
 4    1  0.1308745E-008  0.2498871E+04  0.7816531E-02  0.8403388E-01
         -2   -1    0    0    0  501 -0.00000000000E+00  0.00000000000E+00  0.10172599737E+04  0.10172599737E+04  0.00000000000E+00 0.  1.
          2   -1    0    0  501    0  0.00000000000E+00 -0.00000000000E+00 -0.15346017640E+04  0.15346017640E+04  0.00000000000E+00 0. -1.
    2000013    1    1    2    0    0  0.65280821396E+03 -0.11528882497E+03 -0.73672057465E+03  0.13728464162E+04  0.95000000000E+03 0.  0.
   -2000013    1    1    2    0    0 -0.65280821396E+03  0.11528882497E+03  0.21937878435E+03  0.11790153215E+04  0.95000000000E+03 0.  0.
<mgrwt>
<rscale>  0 0.24988709E+04</rscale>
<asrwt>0</asrwt>
<pdfrwt beam="2">  1        2 0.23609258E+00 0.24988709E+04</pdfrwt>
<pdfrwt beam="1">  1       -2 0.15650153E+00 0.24988709E+04</pdfrwt>
<totfact> 0.28958153E+00</totfact>
</mgrwt>
</event>
<event>
 4    1  0.1308745E-008  0.2495195E+04  0.7816531E-02  0.8404699E-01
          2   -1    0    0  501    0  0.00000000000E+00  0.00000000000E+00  0.30782892442E+04  0.30782892442E+04  0.00000000000E+00 0.  1.
         -2   -1    0    0    0  501 -0.00000000000E+00 -0.00000000000E+00 -0.50563769010E+03  0.50563769010E+03  0.00000000000E+00 0. -1.
    2000013    1    1    2    0    0 -0.66026432542E+03  0.45459778152E+03  0.14396230793E+04  0.19020049245E+04  0.95000000000E+03 0.  0.
   -2000013    1    1    2    0    0  0.66026432542E+03 -0.45459778152E+03  0.11330284749E+04  0.16819220099E+04  0.95000000000E+03 0.  0.
<mgrwt>
<rscale>  0 0.24951946E+04</rscale>
<asrwt>0</asrwt>
<pdfrwt beam="1">  1        2 0.47358295E+00 0.24951946E+04</pdfrwt>
<pdfrwt beam="2">  1       -2 0.77790416E-01 0.24951946E+04</pdfrwt>
<totfact> 0.20410828E+00</totfact>
</mgrwt>
</event>
<event>
 4    1  0.1308745E-008  0.2450744E+04  0.7816531E-02  0.8420747E-01
         -2   -1    0    0    0  501 -0.00000000000E+00  0.00000000000E+00  0.46326222841E+03  0.46326222841E+03  0.00000000000E+00 0. -1.
          2   -1    0    0  501    0  0.00000000000E+00 -0.00000000000E+00 -0.32412226290E+04  0.32412226290E+04  0.00000000000E+00 0.  1.
    2000013    1    1    2    0    0  0.71312958434E+03 -0.22214836730E+03 -0.10824159301E+04  0.16223525963E+04  0.95000000000E+03 0.  0.
   -2000013    1    1    2    0    0 -0.71312958434E+03  0.22214836730E+03 -0.16955444705E+04  0.20821322611E+04  0.95000000000E+03 0.  0.
<mgrwt>
<rscale>  0 0.24507436E+04</rscale>
<asrwt>0</asrwt>
<pdfrwt beam="2">  1        2 0.49864965E+00 0.24507436E+04</pdfrwt>
<pdfrwt beam="1">  1       -2 0.71271109E-01 0.24507436E+04</pdfrwt>
<totfact> 0.19515270E+00</totfact>
</mgrwt>
</event>
<event>
 4    1  0.1308745E-008  0.3193148E+04  0.7816531E-02  0.8190629E-01
          2   -1    0    0  501    0  0.00000000000E+00  0.00000000000E+00  0.13274270944E+04  0.13274270944E+04  0.00000000000E+00 0.  1.
         -2   -1    0    0    0  501 -0.00000000000E+00 -0.00000000000E+00 -0.19202922947E+04  0.19202922947E+04  0.00000000000E+00 0. -1.
    2000013    1    1    2    0    0  0.29251313376E+03 -0.12246238495E+04 -0.54821229158E+03  0.16698216141E+04  0.95000000000E+03 0.  0.
   -2000013    1    1    2    0    0 -0.29251313376E+03  0.12246238495E+04 -0.44652908714E+02  0.15778977750E+04  0.95000000000E+03 0.  0.
<mgrwt>
<rscale>  0 0.31931477E+04</rscale>
<asrwt>0</asrwt>
<pdfrwt beam="1">  1        2 0.20421955E+00 0.31931477E+04</pdfrwt>
<pdfrwt beam="2">  1       -2 0.29542958E+00 0.31931477E+04</pdfrwt>
<totfact> 0.45505038E-01</totfact>
</mgrwt>
</event>
<event>
 4    1  0.1308745E-008  0.3959987E+04  0.7816531E-02  0.8012667E-01
          2   -1    0    0  501    0  0.00000000000E+00  0.00000000000E+00  0.19617476151E+04  0.19617476151E+04  0.00000000000E+00 0.  1.
         -2   -1    0    0    0  501 -0.00000000000E+00 -0.00000000000E+00 -0.19984094683E+04  0.19984094683E+04  0.00000000000E+00 0. -1.
    2000013    1    1    2    0    0  0.16049591828E+04  0.66144663050E+03  0.48525397949E+02  0.19794596075E+04  0.95000000000E+03 0.  0.
   -2000013    1    1    2    0    0 -0.16049591828E+04 -0.66144663050E+03 -0.85187251131E+02  0.19806974759E+04  0.95000000000E+03 0.  0.
<mgrwt>
<rscale>  0 0.39599874E+04</rscale>
<asrwt>0</asrwt>
<pdfrwt beam="1">  1        2 0.30180733E+00 0.39599874E+04</pdfrwt>
<pdfrwt beam="2">  1       -2 0.30744761E+00 0.39599874E+04</pdfrwt>
<totfact> 0.15887809E-01</totfact>
</mgrwt>
</event>
<event>
 4    1  0.1308745E-008  0.2360694E+04  0.7816531E-02  0.8454368E-01
         -2   -1    0    0    0  501 -0.00000000000E+00  0.00000000000E+00  0.70825864146E+03  0.70825864146E+03  0.00000000000E+00 0. -1.
          2   -1    0    0  501    0  0.00000000000E+00 -0.00000000000E+00 -0.19671041107E+04  0.19671041107E+04  0.00000000000E+00 0.  1.
    2000013    1    1    2    0    0  0.63306231089E+03  0.61779252196E+02 -0.96202880546E+03  0.14941833850E+04  0.95000000000E+03 0.  0.
   -2000013    1    1    2    0    0 -0.63306231089E+03 -0.61779252196E+02 -0.29681666375E+03  0.11811793671E+04  0.95000000000E+03 0.  0.
<mgrwt>
<rscale>  0 0.23606935E+04</rscale>
<asrwt>0</asrwt>
<pdfrwt beam="2">  1        2 0.30263140E+00 0.23606935E+04</pdfrwt>
<pdfrwt beam="1">  1       -2 0.10896287E+00 0.23606935E+04</pdfrwt>
<totfact> 0.42262439E+00</totfact>
</mgrwt>
</event>
<event>
 4    1  0.1308745E-008  0.2959029E+04  0.7816531E-02  0.8255528E-01
          1   -1    0    0  501    0  0.00000000000E+00  0.00000000000E+00  0.44624697872E+04  0.44624697872E+04  0.00000000000E+00 0.  1.
         -1   -1    0    0    0  501 -0.00000000000E+00 -0.00000000000E+00 -0.49052719764E+03  0.49052719764E+03  0.00000000000E+00 0. -1.
    2000013    1    1    2    0    0 -0.12326763791E+03  0.11198358370E+04  0.17662197605E+04  0.23002737782E+04  0.95000000000E+03 0.  0.
   -2000013    1    1    2    0    0  0.12326763791E+03 -0.11198358370E+04  0.22057228290E+04  0.26527232066E+04  0.95000000000E+03 0.  0.
<mgrwt>
<rscale>  0 0.29590288E+04</rscale>
<asrwt>0</asrwt>
<pdfrwt beam="1">  1        1 0.68653379E+00 0.29590288E+04</pdfrwt>
<pdfrwt beam="2">  1       -1 0.75465726E-01 0.29590288E+04</pdfrwt>
<totfact> 0.53026564E-02</totfact>
</mgrwt>
</event>
<event>
 4    1  0.1308745E-008  0.2460624E+04  0.7816531E-02  0.8417149E-01
          2   -1    0    0  501    0  0.00000000000E+00  0.00000000000E+00  0.19110540451E+04  0.19110540451E+04  0.00000000000E+00 0.  1.
         -2   -1    0    0    0  501 -0.00000000000E+00 -0.00000000000E+00 -0.79205932214E+03  0.79205932214E+03  0.00000000000E+00 0. -1.
    2000013    1    1    2    0    0  0.49647765751E+03  0.59252913227E+03  0.43144545181E+03  0.12985476560E+04  0.95000000000E+03 0.  0.
   -2000013    1    1    2    0    0 -0.49647765751E+03 -0.59252913227E+03  0.68754927117E+03  0.14045657113E+04  0.95000000000E+03 0.  0.
<mgrwt>
<rscale>  0 0.24606245E+04</rscale>
<asrwt>0</asrwt>
<pdfrwt beam="1">  1        2 0.29400831E+00 0.24606245E+04</pdfrwt>
<pdfrwt beam="2">  1       -2 0.12185528E+00 0.24606245E+04</pdfrwt>
<totfact> 0.34238874E+00</totfact>
</mgrwt>
</event>
<event>
 4    1  0.1308745E-008  0.2506975E+04  0.7816531E-02  0.8400505E-01
          2   -1    0    0  501    0  0.00000000000E+00  0.00000000000E+00  0.30071249550E+04  0.30071249550E+04  0.00000000000E+00 0.  1.
         -2   -1    0    0    0  501 -0.00000000000E+00 -0.00000000000E+00 -0.52250290143E+03  0.52250290143E+03  0.00000000000E+00 0. -1.
    2000013    1    1    2    0    0 -0.61260386341E+03 -0.51177647235E+03  0.14923228416E+04  0.19408055325E+04  0.95000000000E+03 0.  0.
   -2000013    1    1    2    0    0  0.61260386341E+03  0.51177647235E+03  0.99229921191E+03  0.15888223239E+04  0.95000000000E+03 0.  0.
<mgrwt>
<rscale>  0 0.25069755E+04</rscale>
<asrwt>0</asrwt>
<pdfrwt beam="1">  1        2 0.46263460E+00 0.25069755E+04</pdfrwt>
<pdfrwt beam="2">  1       -2 0.80385064E-01 0.25069755E+04</pdfrwt>
<totfact> 0.21008467E+00</totfact>
</mgrwt>
</event>
<event>
 4    1  0.1308745E-008  0.3187052E+04  0.7816531E-02  0.8192245E-01
         -2   -1    0    0    0  501 -0.00000000000E+00  0.00000000000E+00  0.15770619044E+04  0.15770619044E+04  0.00000000000E+00 0. -1.
          2   -1    0    0  501    0  0.00000000000E+00 -0.00000000000E+00 -0.16101616617E+04  0.16101616617E+04  0.00000000000E+00 0.  1.
    2000013    1    1    2    0    0 -0.59274832527E+03 -0.11334965679E+04  0.91335993303E+01  0.15933450566E+04  0.95000000000E+03 0.  0.
   -2000013    1    1    2    0    0  0.59274832527E+03  0.11334965679E+04 -0.42233356583E+02  0.15938785095E+04  0.95000000000E+03 0.  0.
<mgrwt>
<rscale>  0 0.31870517E+04</rscale>
<asrwt>0</asrwt>
<pdfrwt beam="2">  1        2 0.24771718E+00 0.31870517E+04</pdfrwt>
<pdfrwt beam="1">  1       -2 0.24262491E+00 0.31870517E+04</pdfrwt>
<totfact> 0.66209292E-01</totfact>
</mgrwt>
</event>
<event>
 4    1  0.1308745E-008  0.2098456E+04  0.7816531E-02  0.8561924E-01
         -2   -1    0    0    0  501 -0.00000000000E+00  0.00000000000E+00  0.13089229667E+04  0.13089229667E+04  0.00000000000E+00 0. -1.
          2   -1    0    0  501    0  0.00000000000E+00 -0.00000000000E+00 -0.84105706452E+03  0.84105706452E+03  0.00000000000E+00 0.  1.
    2000013    1    1    2    0    0 -0.34051931661E+03 -0.15986903694E+03 -0.10391155248E+02  0.10218216528E+04  0.95000000000E+03 0.  0.
   -2000013    1    1    2    0    0  0.34051931661E+03  0.15986903694E+03  0.47825705747E+03  0.11281583785E+04  0.95000000000E+03 0.  0.
<mgrwt>
<rscale>  0 0.20984555E+04</rscale>
<asrwt>0</asrwt>
<pdfrwt beam="2">  1        2 0.12939339E+00 0.20984555E+04</pdfrwt>
<pdfrwt beam="1">  1       -2 0.20137276E+00 0.20984555E+04</pdfrwt>
<totfact> 0.38644217E+00</totfact>
</mgrwt>
</event>
<event>
 4    1  0.1308745E-008  0.2768499E+04  0.7816531E-02  0.8313115E-01
          2   -1    0    0  501    0  0.00000000000E+00  0.00000000000E+00  0.18267032159E+04  0.18267032159E+04  0.00000000000E+00 0.  1.
         -2   -1    0    0    0  501 -0.00000000000E+00 -0.00000000000E+00 -0.10489643309E+04  0.10489643309E+04  0.00000000000E+00 0. -1.
    2000013    1    1    2    0    0  0.53557070243E+03  0.75194204502E+03  0.80615909236E+03  0.15506918774E+04  0.95000000000E+03 0.  0.
   -2000013    1    1    2    0    0 -0.53557070243E+03 -0.75194204502E+03 -0.28420207367E+02  0.13249756694E+04  0.95000000000E+03 0.  0.
<mgrwt>
<rscale>  0 0.27684989E+04</rscale>
<asrwt>0</asrwt>
<pdfrwt beam="1">  1        2 0.28103126E+00 0.27684989E+04</pdfrwt>
<pdfrwt beam="2">  1       -2 0.16137913E+00 0.27684989E+04</pdfrwt>
<totfact> 0.17903595E+00</totfact>
</mgrwt>
</event>
<event>
 4    1  0.1308745E-008  0.2483532E+04  0.7816531E-02  0.8408876E-01
         -2   -1    0    0    0  501 -0.00000000000E+00  0.00000000000E+00  0.76559372370E+03  0.76559372370E+03  0.00000000000E+00 0. -1.
          2   -1    0    0  501    0  0.00000000000E+00 -0.00000000000E+00 -0.20141005889E+04  0.20141005889E+04  0.00000000000E+00 0.  1.
    2000013    1    1    2    0    0 -0.60015868658E+03  0.40617944293E+03 -0.10026703103E+04  0.15598140723E+04  0.95000000000E+03 0.  0.
   -2000013    1    1    2    0    0  0.60015868658E+03 -0.40617944293E+03 -0.24583655487E+03  0.12198802403E+04  0.95000000000E+03 0.  0.
<mgrwt>
<rscale>  0 0.24835320E+04</rscale>
<asrwt>0</asrwt>
<pdfrwt beam="2">  1        2 0.30986163E+00 0.24835320E+04</pdfrwt>
<pdfrwt beam="1">  1       -2 0.11778365E+00 0.24835320E+04</pdfrwt>
<totfact> 0.32586874E+00</totfact>
</mgrwt>
</event>
<event>
 4    1  0.1308745E-008  0.3065015E+04  0.7816531E-02  0.8225405E-01
         -2   -1    0    0    0  501 -0.00000000000E+00  0.00000000000E+00  0.10909556910E+04  0.10909556910E+04  0.00000000000E+00 0. -1.
          2   -1    0    0  501    0  0.00000000000E+00 -0.00000000000E+00 -0.21527723605E+04  0.21527723605E+04  0.00000000000E+00 0.  1.
    2000013    1    1    2    0    0  0.11142612528E+04 -0.27889509204E+03 -0.15417669783E+03  0.14985429811E+04  0.95000000000E+03 0.  0.
   -2000013    1    1    2    0    0 -0.11142612528E+04  0.27889509204E+03 -0.90763997162E+03  0.17451850704E+04  0.95000000000E+03 0.  0.
<mgrwt>
<rscale>  0 0.30650150E+04</rscale>
<asrwt>0</asrwt>
<pdfrwt beam="2">  1        2 0.33119574E+00 0.30650150E+04</pdfrwt>
<pdfrwt beam="1">  1       -2 0.16783934E+00 0.30650150E+04</pdfrwt>
<totfact> 0.10322425E+00</totfact>
</mgrwt>
</event>
<event>
 4    1  0.1308745E-008  0.2079762E+04  0.7816531E-02  0.8570211E-01
          2   -1    0    0  501    0  0.00000000000E+00  0.00000000000E+00  0.55021060362E+03  0.55021060362E+03  0.00000000000E+00 0.  1.
         -2   -1    0    0    0  501 -0.00000000000E+00 -0.00000000000E+00 -0.19653438083E+04  0.19653438083E+04  0.00000000000E+00 0. -1.
    2000013    1    1    2    0    0 -0.29404370245E+03 -0.28635610576E+03 -0.58426782271E+03  0.11884150819E+04  0.95000000000E+03 0.  0.
   -2000013    1    1    2    0    0  0.29404370245E+03  0.28635610576E+03 -0.83086538194E+03  0.13271393300E+04  0.95000000000E+03 0.  0.
<mgrwt>
<rscale>  0 0.20797625E+04</rscale>
<asrwt>0</asrwt>
<pdfrwt beam="1">  1        2 0.84647785E-01 0.20797625E+04</pdfrwt>
<pdfrwt beam="2">  1       -2 0.30236059E+00 0.20797625E+04</pdfrwt>
<totfact> 0.15629180E+00</totfact>
</mgrwt>
</event>
<event>
 4    1  0.1308745E-008  0.2604906E+04  0.7816531E-02  0.8366537E-01
         -2   -1    0    0    0  501 -0.00000000000E+00  0.00000000000E+00  0.86958489410E+03  0.86958489410E+03  0.00000000000E+00 0. -1.
          2   -1    0    0  501    0  0.00000000000E+00 -0.00000000000E+00 -0.19507966547E+04  0.19507966547E+04  0.00000000000E+00 0.  1.
    2000013    1    1    2    0    0  0.11482554982E+03 -0.59100980681E+03  0.17054027487E+03  0.11375682327E+04  0.95000000000E+03 0.  0.
   -2000013    1    1    2    0    0 -0.11482554982E+03  0.59100980681E+03 -0.12517520354E+04  0.16828133161E+04  0.95000000000E+03 0.  0.
<mgrwt>
<rscale>  0 0.26049056E+04</rscale>
<asrwt>0</asrwt>
<pdfrwt beam="2">  1        2 0.30012256E+00 0.26049056E+04</pdfrwt>
<pdfrwt beam="1">  1       -2 0.13378229E+00 0.26049056E+04</pdfrwt>
<totfact> 0.25404834E+00</totfact>
</mgrwt>
</event>
<event>
 4    1  0.1308745E-008  0.2050358E+04  0.7816531E-02  0.8583432E-01
          2   -1    0    0  501    0  0.00000000000E+00  0.00000000000E+00  0.12195363999E+04  0.12195363999E+04  0.00000000000E+00 0.  1.
         -2   -1    0    0    0  501 -0.00000000000E+00 -0.00000000000E+00 -0.86179656604E+03  0.86179656604E+03  0.00000000000E+00 0. -1.
    2000013    1    1    2    0    0  0.31735569476E+03  0.20549568492E+03  0.25448801404E+03  0.10536637333E+04  0.95000000000E+03 0.  0.
   -2000013    1    1    2    0    0 -0.31735569476E+03 -0.20549568492E+03  0.10325181983E+03  0.10276692327E+04  0.95000000000E+03 0.  0.
<mgrwt>
<rscale>  0 0.20503583E+04</rscale>
<asrwt>0</asrwt>
<pdfrwt beam="1">  1        2 0.18762099E+00 0.20503583E+04</pdfrwt>
<pdfrwt beam="2">  1       -2 0.13258409E+00 0.20503583E+04</pdfrwt>
<totfact> 0.70492962E+00</totfact>
</mgrwt>
</event>
<event>
 4    1  0.1308745E-008  0.2078509E+04  0.7816531E-02  0.8570770E-01
         -1   -1    0    0    0  501 -0.00000000000E+00  0.00000000000E+00  0.87011667170E+03  0.87011667170E+03  0.00000000000E+00 0. -1.
          1   -1    0    0  501    0  0.00000000000E+00 -0.00000000000E+00 -0.12412699554E+04  0.12412699554E+04  0.00000000000E+00 0.  1.
    2000013    1    1    2    0    0 -0.64481902054E+02  0.41531242103E+03 -0.15497775643E+03  0.10503144423E+04  0.95000000000E+03 0.  0.
   -2000013    1    1    2    0    0  0.64481902054E+02 -0.41531242103E+03 -0.21617552730E+03  0.10610721848E+04  0.95000000000E+03 0.  0.
<mgrwt>
<rscale>  0 0.20785088E+04</rscale>
<asrwt>0</asrwt>
<pdfrwt beam="2">  1        1 0.19096461E+00 0.20785088E+04</pdfrwt>
<pdfrwt beam="1">  1       -1 0.13386410E+00 0.20785088E+04</pdfrwt>
<totfact> 0.43249751E+00</totfact>
</mgrwt>
</event>
<event>
 4    1  0.1308745E-008  0.2430609E+04  0.7816531E-02  0.8428132E-01
          2   -1    0    0  501    0  0.00000000000E+00  0.00000000000E+00  0.32336815951E+04  0.32336815951E+04  0.00000000000E+00 0.  1.
         -2   -1    0    0    0  501 -0.00000000000E+00 -0.00000000000E+00 -0.45674400424E+03  0.45674400424E+03  0.00000000000E+00 0. -1.
    2000013    1    1    2    0    0 -0.12087637501E+03  0.68061019556E+03  0.18604257990E+04  0.22003466749E+04  0.95000000000E+03 0.  0.
   -2000013    1    1    2    0    0  0.12087637501E+03 -0.68061019556E+03  0.91651179187E+03  0.14900789244E+04  0.95000000000E+03 0.  0.
<mgrwt>
<rscale>  0 0.24306087E+04</rscale>
<asrwt>0</asrwt>
<pdfrwt beam="1">  1        2 0.49748946E+00 0.24306087E+04</pdfrwt>
<pdfrwt beam="2">  1       -2 0.70268310E-01 0.24306087E+04</pdfrwt>
<totfact> 0.20397518E+00</totfact>
</mgrwt>
</event>
<event>
 4    1  0.1308745E-008  0.2342169E+04  0.7816531E-02  0.8461478E-01
          2   -1    0    0  501    0  0.00000000000E+00  0.00000000000E+00  0.11056991480E+04  0.11056991480E+04  0.00000000000E+00 0.  1.
         -2   -1    0    0    0  501 -0.00000000000E+00 -0.00000000000E+00 -0.12403364601E+04  0.12403364601E+04  0.00000000000E+00 0. -1.
    2000013    1    1    2    0    0 -0.49060017785E+03  0.25214371559E+03  0.33915167518E+03  0.11496907613E+04  0.95000000000E+03 0.  0.
   -2000013    1    1    2    0    0  0.49060017785E+03 -0.25214371559E+03 -0.47378898729E+03  0.11963448467E+04  0.95000000000E+03 0.  0.
<mgrwt>
<rscale>  0 0.23421691E+04</rscale>
<asrwt>0</asrwt>
<pdfrwt beam="1">  1        2 0.17010756E+00 0.23421691E+04</pdfrwt>
<pdfrwt beam="2">  1       -2 0.19082099E+00 0.23421691E+04</pdfrwt>
<totfact> 0.29879224E+00</totfact>
</mgrwt>
</event>
<event>
 4    1  0.1308745E-008  0.2244045E+04  0.7816531E-02  0.8500316E-01
         -1   -1    0    0    0  501 -0.00000000000E+00  0.00000000000E+00  0.22780881907E+04  0.22780881907E+04  0.00000000000E+00 0. -1.
          1   -1    0    0  501    0  0.00000000000E+00 -0.00000000000E+00 -0.55262783370E+03  0.55262783370E+03  0.00000000000E+00 0.  1.
    2000013    1    1    2    0    0 -0.47402921377E+03 -0.36294735226E+03  0.86359109185E+03  0.14158827811E+04  0.95000000000E+03 0.  0.
   -2000013    1    1    2    0    0  0.47402921377E+03  0.36294735226E+03  0.86186926516E+03  0.14148332433E+04  0.95000000000E+03 0.  0.
<mgrwt>
<rscale>  0 0.22440454E+04</rscale>
<asrwt>0</asrwt>
<pdfrwt beam="2">  1        1 0.85019668E-01 0.22440454E+04</pdfrwt>
<pdfrwt beam="1">  1       -1 0.35047510E+00 0.22440454E+04</pdfrwt>
<totfact> 0.54023757E-01</totfact>
</mgrwt>
</event>
<event>
 4    1  0.1308745E-008  0.2393375E+04  0.7816531E-02  0.8441988E-01
         -2   -1    0    0    0  501 -0.00000000000E+00  0.00000000000E+00  0.70324922135E+03  0.70324922135E+03  0.00000000000E+00 0. -1.
          2   -1    0    0  501    0  0.00000000000E+00 -0.00000000000E+00 -0.20363485932E+04  0.20363485932E+04  0.00000000000E+00 0.  1.
    2000013    1    1    2    0    0  0.10884926531E+03  0.52854642235E+03 -0.12253860837E+04  0.16417309576E+04  0.95000000000E+03 0.  0.
   -2000013    1    1    2    0    0 -0.10884926531E+03 -0.52854642235E+03 -0.10771328820E+03  0.10978668569E+04  0.95000000000E+03 0.  0.
<mgrwt>
<rscale>  0 0.23933747E+04</rscale>
<asrwt>0</asrwt>
<pdfrwt beam="2">  1        2 0.31328440E+00 0.23933747E+04</pdfrwt>
<pdfrwt beam="1">  1       -2 0.10819219E+00 0.23933747E+04</pdfrwt>
<totfact> 0.39236175E+00</totfact>
</mgrwt>
</event>
<event>
 4    1  0.1308745E-008  0.2551927E+04  0.7816531E-02  0.8384716E-01
          1   -1    0    0  501    0  0.00000000000E+00  0.00000000000E+00  0.16513149637E+04  0.16513149637E+04  0.00000000000E+00 0.  1.
         -1   -1    0    0    0  501 -0.00000000000E+00 -0.00000000000E+00 -0.98593126549E+03  0.98593126549E+03  0.00000000000E+00 0. -1.
    2000013    1    1    2    0    0 -0.66361212330E+03  0.48411479469E+03  0.99687915165E+02  0.12598356500E+04  0.95000000000E+03 0.  0.
   -2000013    1    1    2    0    0  0.66361212330E+03 -0.48411479469E+03  0.56569578301E+03  0.13774105791E+04  0.95000000000E+03 0.  0.
<mgrwt>
<rscale>  0 0.25519272E+04</rscale>
<asrwt>0</asrwt>
<pdfrwt beam="1">  1        1 0.25404845E+00 0.25519272E+04</pdfrwt>
<pdfrwt beam="2">  1       -1 0.15168173E+00 0.25519272E+04</pdfrwt>
<totfact> 0.15406316E+00</totfact>
</mgrwt>
</event>
<event>
 4    1  0.1308745E-008  0.2146089E+04  0.7816531E-02  0.8541208E-01
         -2   -1    0    0    0  501 -0.00000000000E+00  0.00000000000E+00  0.32903892577E+03  0.32903892577E+03  0.00000000000E+00 0. -1.
          2   -1    0    0  501    0  0.00000000000E+00 -0.00000000000E+00 -0.34993557685E+04  0.34993557685E+04  0.00000000000E+00 0.  1.
    2000013    1    1    2    0    0 -0.34580377189E+03  0.32707358759E+03 -0.18519497751E+04  0.21351288837E+04  0.95000000000E+03 0.  0.
   -2000013    1    1    2    0    0  0.34580377189E+03 -0.32707358759E+03 -0.13183670676E+04  0.16932658106E+04  0.95000000000E+03 0.  0.
<mgrwt>
<rscale>  0 0.21460888E+04</rscale>
<asrwt>0</asrwt>
<pdfrwt beam="2">  1        2 0.53836245E+00 0.21460888E+04</pdfrwt>
<pdfrwt beam="1">  1       -2 0.50621371E-01 0.21460888E+04</pdfrwt>
<totfact> 0.27681034E+00</totfact>
</mgrwt>
</event>
<event>
 4    1  0.1308745E-008  0.2039017E+04  0.7816531E-02  0.8588593E-01
         -2   -1    0    0    0  501 -0.00000000000E+00  0.00000000000E+00  0.13283419301E+04  0.13283419301E+04  0.00000000000E+00 0. -1.
          2   -1    0    0  501    0  0.00000000000E+00 -0.00000000000E+00 -0.78247712291E+03  0.78247712291E+03  0.00000000000E+00 0.  1.
    2000013    1    1    2    0    0 -0.28586031684E+03  0.16169561322E+03  0.96533657143E+02  0.10097922257E+04  0.95000000000E+03 0.  0.
   -2000013    1    1    2    0    0  0.28586031684E+03 -0.16169561322E+03  0.44933115004E+03  0.11010268273E+04  0.95000000000E+03 0.  0.
<mgrwt>
<rscale>  0 0.20390166E+04</rscale>
<asrwt>0</asrwt>
<pdfrwt beam="2">  1        2 0.12038110E+00 0.20390166E+04</pdfrwt>
<pdfrwt beam="1">  1       -2 0.20436030E+00 0.20390166E+04</pdfrwt>
<totfact> 0.40896705E+00</totfact>
</mgrwt>
</event>
<event>
 4    1  0.1308745E-008  0.3073337E+04  0.7816531E-02  0.8223094E-01
          2   -1    0    0  501    0  0.00000000000E+00  0.00000000000E+00  0.20147184046E+04  0.20147184046E+04  0.00000000000E+00 0.  1.
         -2   -1    0    0    0  501 -0.00000000000E+00 -0.00000000000E+00 -0.11720494830E+04  0.11720494830E+04  0.00000000000E+00 0. -1.
    2000013    1    1    2    0    0  0.25962071908E+03 -0.64229990155E+03 -0.60457471447E+03  0.13221053917E+04  0.95000000000E+03 0.  0.
   -2000013    1    1    2    0    0 -0.25962071908E+03  0.64229990155E+03  0.14472436361E+04  0.18646624959E+04  0.95000000000E+03 0.  0.
<mgrwt>
<rscale>  0 0.30733367E+04</rscale>
<asrwt>0</asrwt>
<pdfrwt beam="1">  1        2 0.30995668E+00 0.30733367E+04</pdfrwt>
<pdfrwt beam="2">  1       -2 0.18031531E+00 0.30733367E+04</pdfrwt>
<totfact> 0.10065765E+00</totfact>
</mgrwt>
</event>
<event>
 4    1  0.1308745E-008  0.2499876E+04  0.7816531E-02  0.8403030E-01
          2   -1    0    0  501    0  0.00000000000E+00  0.00000000000E+00  0.34124488562E+04  0.34124488562E+04  0.00000000000E+00 0.  1.
         -2   -1    0    0    0  501 -0.00000000000E+00 -0.00000000000E+00 -0.45783699427E+03  0.45783699427E+03  0.00000000000E+00 0. -1.
    2000013    1    1    2    0    0 -0.18391231853E+03  0.39774654771E+03  0.25362269861E+04  0.27435330109E+04  0.95000000000E+03 0.  0.
   -2000013    1    1    2    0    0  0.18391231853E+03 -0.39774654771E+03  0.41838487586E+03  0.11267528396E+04  0.95000000000E+03 0.  0.
<mgrwt>
<rscale>  0 0.24998763E+04</rscale>
<asrwt>0</asrwt>
<pdfrwt beam="1">  1        2 0.52499211E+00 0.24998763E+04</pdfrwt>
<pdfrwt beam="2">  1       -2 0.70436463E-01 0.24998763E+04</pdfrwt>
<totfact> 0.15306273E+00</totfact>
</mgrwt>
</event>
<event>
 4    1  0.1308745E-008  0.2965447E+04  0.7816531E-02  0.8253667E-01
          2   -1    0    0  501    0  0.00000000000E+00  0.00000000000E+00  0.14951065144E+04  0.14951065144E+04  0.00000000000E+00 0.  1.
         -2   -1    0    0    0  501 -0.00000000000E+00 -0.00000000000E+00 -0.14704425705E+04  0.14704425705E+04  0.00000000000E+00 0. -1.
    2000013    1    1    2    0    0  0.55422459084E+03 -0.98285638359E+03 -0.13865900579E+03  0.14815187774E+04  0.95000000000E+03 0.  0.
   -2000013    1    1    2    0    0 -0.55422459084E+03  0.98285638359E+03  0.16332294971E+03  0.14840303076E+04  0.95000000000E+03 0.  0.
<mgrwt>
<rscale>  0 0.29654465E+04</rscale>
<asrwt>0</asrwt>
<pdfrwt beam="1">  1        2 0.23001639E+00 0.29654465E+04</pdfrwt>
<pdfrwt beam="2">  1       -2 0.22622193E+00 0.29654465E+04</pdfrwt>
<totfact> 0.99026296E-01</totfact>
</mgrwt>
</event>
<event>
 4    1  0.1308745E-008  0.2077168E+04  0.7816531E-02  0.8571368E-01
          2   -1    0    0  501    0  0.00000000000E+00  0.00000000000E+00  0.13015355343E+04  0.13015355343E+04  0.00000000000E+00 0.  1.
         -2   -1    0    0    0  501 -0.00000000000E+00 -0.00000000000E+00 -0.82875698251E+03  0.82875698251E+03  0.00000000000E+00 0. -1.
    2000013    1    1    2    0    0  0.75671279402E+02 -0.78463369003E+02 -0.17928396978E+03  0.97289536160E+03  0.95000000000E+03 0.  0.
   -2000013    1    1    2    0    0 -0.75671279402E+02  0.78463369003E+02  0.65206252152E+03  0.11573971552E+04  0.95000000000E+03 0.  0.
<mgrwt>
<rscale>  0 0.20771679E+04</rscale>
<asrwt>0</asrwt>
<pdfrwt beam="1">  1        2 0.20023624E+00 0.20771679E+04</pdfrwt>
<pdfrwt beam="2">  1       -2 0.12750107E+00 0.20771679E+04</pdfrwt>
<totfact> 0.69490299E+00</totfact>
</mgrwt>
</event>
<event>
 4    1  0.1308745E-008  0.2096169E+04  0.7816531E-02  0.8562933E-01
          2   -1    0    0  501    0  0.00000000000E+00  0.00000000000E+00  0.30079491723E+04  0.30079491723E+04  0.00000000000E+00 0. -1.
         -2   -1    0    0    0  501 -0.00000000000E+00 -0.00000000000E+00 -0.36519264260E+03  0.36519264260E+03  0.00000000000E+00 0.  1.
    2000013    1    1    2    0    0  0.28632326662E+03 -0.31274831008E+03  0.11166347481E+04  0.15261604369E+04  0.95000000000E+03 0.  0.
   -2000013    1    1    2    0    0 -0.28632326662E+03  0.31274831008E+03  0.15261217816E+04  0.18469813781E+04  0.95000000000E+03 0.  0.
<mgrwt>
<rscale>  0 0.20961688E+04</rscale>
<asrwt>0</asrwt>
<pdfrwt beam="1">  1        2 0.46276140E+00 0.20961688E+04</pdfrwt>
<pdfrwt beam="2">  1       -2 0.56183485E-01 0.20961688E+04</pdfrwt>
<totfact> 0.47274880E+00</totfact>
</mgrwt>
</event>
<event>
 4    1  0.1308745E-008  0.2537053E+04  0.7816531E-02  0.8389903E-01
          1   -1    0    0  501    0  0.00000000000E+00  0.00000000000E+00  0.13327341322E+04  0.13327341322E+04  0.00000000000E+00 0. -1.
         -1   -1    0    0    0  501 -0.00000000000E+00 -0.00000000000E+00 -0.12074124423E+04  0.12074124423E+04  0.00000000000E+00 0.  1.
    2000013    1    1    2    0    0  0.66945280120E+03 -0.26821479888E+02 -0.44567201919E+03  0.12449939733E+04  0.95000000000E+03 0.  0.
   -2000013    1    1    2    0    0 -0.66945280120E+03  0.26821479888E+02  0.57099370907E+03  0.12951526013E+04  0.95000000000E+03 0.  0.
<mgrwt>
<rscale>  0 0.25370532E+04</rscale>
<asrwt>0</asrwt>
<pdfrwt beam="1">  1        1 0.20503602E+00 0.25370532E+04</pdfrwt>
<pdfrwt beam="2">  1       -1 0.18575576E+00 0.25370532E+04</pdfrwt>
<totfact> 0.14372079E+00</totfact>
</mgrwt>
</event>
<event>
 4    1  0.1308745E-008  0.2508095E+04  0.7816531E-02  0.8400107E-01
          2   -1    0    0  501    0  0.00000000000E+00  0.00000000000E+00  0.17782558877E+04  0.17782558877E+04  0.00000000000E+00 0.  1.
         -2   -1    0    0    0  501 -0.00000000000E+00 -0.00000000000E+00 -0.88436921184E+03  0.88436921184E+03  0.00000000000E+00 0. -1.
    2000013    1    1    2    0    0 -0.62523908401E+03  0.33681293239E+03  0.14711950172E+02  0.11862054228E+04  0.95000000000E+03 0.  0.
   -2000013    1    1    2    0    0  0.62523908401E+03 -0.33681293239E+03  0.87917472568E+03  0.14764196767E+04  0.95000000000E+03 0.  0.
<mgrwt>
<rscale>  0 0.25080947E+04</rscale>
<asrwt>0</asrwt>
<pdfrwt beam="1">  1        2 0.27357783E+00 0.25080947E+04</pdfrwt>
<pdfrwt beam="2">  1       -2 0.13605680E+00 0.25080947E+04</pdfrwt>
<totfact> 0.30583591E+00</totfact>
</mgrwt>
</event>
<event>
 4    1  0.1308745E-008  0.3156393E+04  0.7816531E-02  0.8200430E-01
          2   -1    0    0  501    0  0.00000000000E+00  0.00000000000E+00  0.20960794254E+04  0.20960794254E+04  0.00000000000E+00 0.  1.
         -2   -1    0    0    0  501 -0.00000000000E+00 -0.00000000000E+00 -0.11882680851E+04  0.11882680851E+04  0.00000000000E+00 0. -1.
    2000013    1    1    2    0    0  0.91008175899E+03 -0.86296995011E+03  0.58235353339E+03  0.16776774364E+04  0.95000000000E+03 0.  0.
   -2000013    1    1    2    0    0 -0.91008175899E+03  0.86296995011E+03  0.32545780694E+03  0.16066700741E+04  0.95000000000E+03 0.  0.
<mgrwt>
<rscale>  0 0.31563931E+04</rscale>
<asrwt>0</asrwt>
<pdfrwt beam="1">  1        2 0.32247376E+00 0.31563931E+04</pdfrwt>
<pdfrwt beam="2">  1       -2 0.18281048E+00 0.31563931E+04</pdfrwt>
<totfact> 0.86556417E-01</totfact>
</mgrwt>
</event>
<event>
 4    1  0.1308745E-008  0.2758053E+04  0.7816531E-02  0.8316411E-01
         -1   -1    0    0    0  501 -0.00000000000E+00  0.00000000000E+00  0.28512101310E+04  0.28512101310E+04  0.00000000000E+00 0. -1.
          1   -1    0    0  501    0  0.00000000000E+00 -0.00000000000E+00 -0.66698500301E+03  0.66698500301E+03  0.00000000000E+00 0.  1.
    2000013    1    1    2    0    0  0.97579178945E+03  0.13946194593E+03  0.13040138720E+04  0.18906537042E+04  0.95000000000E+03 0.  0.
   -2000013    1    1    2    0    0 -0.97579178945E+03 -0.13946194593E+03  0.88021125599E+03  0.16275414299E+04  0.95000000000E+03 0.  0.
<mgrwt>
<rscale>  0 0.27580532E+04</rscale>
<asrwt>0</asrwt>
<pdfrwt beam="2">  1        1 0.10261308E+00 0.27580532E+04</pdfrwt>
<pdfrwt beam="1">  1       -1 0.43864771E+00 0.27580532E+04</pdfrwt>
<totfact> 0.98597753E-02</totfact>
</mgrwt>
</event>
<event>
 4    1  0.1308745E-008  0.2314719E+04  0.7816531E-02  0.8472140E-01
         -2   -1    0    0    0  501 -0.00000000000E+00  0.00000000000E+00  0.90463999713E+03  0.90463999713E+03  0.00000000000E+00 0.  1.
          2   -1    0    0  501    0  0.00000000000E+00 -0.00000000000E+00 -0.14806789156E+04  0.14806789156E+04  0.00000000000E+00 0. -1.
    2000013    1    1    2    0    0 -0.40591298864E+03  0.51290942127E+03 -0.18950049929E+03  0.11688677718E+04  0.95000000000E+03 0.  0.
   -2000013    1    1    2    0    0  0.40591298864E+03 -0.51290942127E+03 -0.38653841922E+03  0.12164511409E+04  0.95000000000E+03 0.  0.
<mgrwt>
<rscale>  0 0.23147193E+04</rscale>
<asrwt>0</asrwt>
<pdfrwt beam="2">  1        2 0.22779676E+00 0.23147193E+04</pdfrwt>
<pdfrwt beam="1">  1       -2 0.13917538E+00 0.23147193E+04</pdfrwt>
<totfact> 0.42999162E+00</totfact>
</mgrwt>
</event>
<event>
 4    1  0.1308745E-008  0.3335400E+04  0.7816531E-02  0.8153946E-01
         -2   -1    0    0    0  501 -0.00000000000E+00  0.00000000000E+00  0.10133619209E+04  0.10133619209E+04  0.00000000000E+00 0. -1.
          2   -1    0    0  501    0  0.00000000000E+00 -0.00000000000E+00 -0.27445509784E+04  0.27445509784E+04  0.00000000000E+00 0.  1.
    2000013    1    1    2    0    0  0.10070834702E+04 -0.92905422472E+03 -0.90721420949E+03  0.18981297349E+04  0.95000000000E+03 0.  0.
   -2000013    1    1    2    0    0 -0.10070834702E+04  0.92905422472E+03 -0.82397484805E+03  0.18597831644E+04  0.95000000000E+03 0.  0.
<mgrwt>
<rscale>  0 0.33354001E+04</rscale>
<asrwt>0</asrwt>
<pdfrwt beam="2">  1        2 0.42223862E+00 0.33354001E+04</pdfrwt>
<pdfrwt beam="1">  1       -2 0.15590183E+00 0.33354001E+04</pdfrwt>
<totfact> 0.56189431E-01</totfact>
</mgrwt>
</event>
<event>
 4    1  0.1308745E-008  0.2693405E+04  0.7816531E-02  0.8337148E-01
         -2   -1    0    0    0  501 -0.00000000000E+00  0.00000000000E+00  0.92827554897E+03  0.92827554897E+03  0.00000000000E+00 0. -1.
          2   -1    0    0  501    0  0.00000000000E+00 -0.00000000000E+00 -0.19537381842E+04  0.19537381842E+04  0.00000000000E+00 0.  1.
    2000013    1    1    2    0    0 -0.53035778320E+03  0.49112738016E+03 -0.11797807976E+04  0.16783528271E+04  0.95000000000E+03 0.  0.
   -2000013    1    1    2    0    0  0.53035778320E+03 -0.49112738016E+03  0.15431816233E+03  0.12036609061E+04  0.95000000000E+03 0.  0.
<mgrwt>
<rscale>  0 0.26934048E+04</rscale>
<asrwt>0</asrwt>
<pdfrwt beam="2">  1        2 0.30057511E+00 0.26934048E+04</pdfrwt>
<pdfrwt beam="1">  1       -2 0.14281162E+00 0.26934048E+04</pdfrwt>
<totfact> 0.21220900E+00</totfact>
</mgrwt>
</event>
<event>
 4    1  0.1308745E-008  0.2798144E+04  0.7816531E-02  0.8303845E-01
         -2   -1    0    0    0  501 -0.00000000000E+00  0.00000000000E+00  0.78363491935E+03  0.78363491935E+03  0.00000000000E+00 0. -1.
          2   -1    0    0  501    0  0.00000000000E+00 -0.00000000000E+00 -0.24978508541E+04  0.24978508541E+04  0.00000000000E+00 0.  1.
    2000013    1    1    2    0    0 -0.88386871590E+03 -0.52038264259E+03 -0.92005617880E+03  0.16736264141E+04  0.95000000000E+03 0.  0.
   -2000013    1    1    2    0    0  0.88386871590E+03  0.52038264259E+03 -0.79415975595E+03  0.16078593594E+04  0.95000000000E+03 0.  0.
<mgrwt>
<rscale>  0 0.27981445E+04</rscale>
<asrwt>0</asrwt>
<pdfrwt beam="2">  1        2 0.38428474E+00 0.27981445E+04</pdfrwt>
<pdfrwt beam="1">  1       -2 0.12055922E+00 0.27981445E+04</pdfrwt>
<totfact> 0.15944108E+00</totfact>
</mgrwt>
</event>
<event>
 4    1  0.1308745E-008  0.2526642E+04  0.7816531E-02  0.8393555E-01
         -2   -1    0    0    0  501 -0.00000000000E+00  0.00000000000E+00  0.37759640894E+03  0.37759640894E+03  0.00000000000E+00 0. -1.
          2   -1    0    0  501    0  0.00000000000E+00 -0.00000000000E+00 -0.42266816897E+04  0.42266816897E+04  0.00000000000E+00 0.  1.
    2000013    1    1    2    0    0 -0.78009894063E+03  0.27724371561E+03 -0.17609277246E+04  0.21653602209E+04  0.95000000000E+03 0.  0.
   -2000013    1    1    2    0    0  0.78009894063E+03 -0.27724371561E+03 -0.20881575562E+04  0.24389178778E+04  0.95000000000E+03 0.  0.
<mgrwt>
<rscale>  0 0.25266419E+04</rscale>
<asrwt>0</asrwt>
<pdfrwt beam="2">  1        2 0.65025872E+00 0.25266419E+04</pdfrwt>
<pdfrwt beam="1">  1       -2 0.58091755E-01 0.25266419E+04</pdfrwt>
<totfact> 0.54611417E-01</totfact>
</mgrwt>
</event>
<event>
 4    1  0.1308745E-008  0.2994618E+04  0.7816531E-02  0.8245269E-01
          2   -1    0    0  501    0  0.00000000000E+00  0.00000000000E+00  0.39073669177E+04  0.39073669177E+04  0.00000000000E+00 0.  1.
         -2   -1    0    0    0  501 -0.00000000000E+00 -0.00000000000E+00 -0.57377102549E+03  0.57377102549E+03  0.00000000000E+00 0. -1.
    2000013    1    1    2    0    0  0.11233445227E+04 -0.27838848986E+03  0.16584858129E+04  0.22343854322E+04  0.95000000000E+03 0.  0.
   -2000013    1    1    2    0    0 -0.11233445227E+04  0.27838848986E+03  0.16751100793E+04  0.22467525110E+04  0.95000000000E+03 0.  0.
<mgrwt>
<rscale>  0 0.29946178E+04</rscale>
<asrwt>0</asrwt>
<pdfrwt beam="1">  1        2 0.60113335E+00 0.29946178E+04</pdfrwt>
<pdfrwt beam="2">  1       -2 0.88272468E-01 0.29946178E+04</pdfrwt>
<totfact> 0.38364173E-01</totfact>
</mgrwt>
</event>
<event>
 4    1  0.1308745E-008  0.2600017E+04  0.7816531E-02  0.8368195E-01
          2   -1    0    0  501    0  0.00000000000E+00  0.00000000000E+00  0.17225178679E+04  0.17225178679E+04  0.00000000000E+00 0.  1.
         -2   -1    0    0    0  501 -0.00000000000E+00 -0.00000000000E+00 -0.98113471502E+03  0.98113471502E+03  0.00000000000E+00 0. -1.
    2000013    1    1    2    0    0 -0.63392407218E+03  0.62090766437E+03  0.35856392009E+03  0.13485007014E+04  0.95000000000E+03 0.  0.
   -2000013    1    1    2    0    0  0.63392407218E+03 -0.62090766437E+03  0.38281923280E+03  0.13551518815E+04  0.95000000000E+03 0.  0.
<mgrwt>
<rscale>  0 0.26000170E+04</rscale>
<asrwt>0</asrwt>
<pdfrwt beam="1">  1        2 0.26500275E+00 0.26000170E+04</pdfrwt>
<pdfrwt beam="2">  1       -2 0.15094380E+00 0.26000170E+04</pdfrwt>
<totfact> 0.24838665E+00</totfact>
</mgrwt>
</event>
<event>
 4    1  0.1308745E-008  0.2150529E+04  0.7816531E-02  0.8539306E-01
          2   -1    0    0  501    0  0.00000000000E+00  0.00000000000E+00  0.17003014966E+04  0.17003014966E+04  0.00000000000E+00 0.  1.
         -2   -1    0    0    0  501 -0.00000000000E+00 -0.00000000000E+00 -0.67999329221E+03  0.67999329221E+03  0.00000000000E+00 0. -1.
    2000013    1    1    2    0    0 -0.25473530358E+03 -0.41401652677E+03  0.65613074325E+03  0.12527199653E+04  0.95000000000E+03 0.  0.
   -2000013    1    1    2    0    0  0.25473530358E+03  0.41401652677E+03  0.36417746117E+03  0.11275748235E+04  0.95000000000E+03 0.  0.
<mgrwt>
<rscale>  0 0.21505289E+04</rscale>
<asrwt>0</asrwt>
<pdfrwt beam="1">  1        2 0.26158484E+00 0.21505289E+04</pdfrwt>
<pdfrwt beam="2">  1       -2 0.10461435E+00 0.21505289E+04</pdfrwt>
<totfact> 0.66725504E+00</totfact>
</mgrwt>
</event>
<event>
 4    1  0.1308745E-008  0.2429474E+04  0.7816531E-02  0.8428551E-01
         -2   -1    0    0    0  501 -0.00000000000E+00  0.00000000000E+00  0.12321222341E+04  0.12321222341E+04  0.00000000000E+00 0. -1.
          2   -1    0    0  501    0  0.00000000000E+00 -0.00000000000E+00 -0.11975974148E+04  0.11975974148E+04  0.00000000000E+00 0.  1.
    2000013    1    1    2    0    0 -0.11752362267E+03  0.73131086801E+03 -0.13914716194E+03  0.12126373408E+04  0.95000000000E+03 0.  0.
   -2000013    1    1    2    0    0  0.11752362267E+03 -0.73131086801E+03  0.17367198124E+03  0.12170823081E+04  0.95000000000E+03 0.  0.
<mgrwt>
<rscale>  0 0.24294743E+04</rscale>
<asrwt>0</asrwt>
<pdfrwt beam="2">  1        2 0.18424576E+00 0.24294743E+04</pdfrwt>
<pdfrwt beam="1">  1       -2 0.18955727E+00 0.24294743E+04</pdfrwt>
<totfact> 0.26604827E+00</totfact>
</mgrwt>
</event>
<event>
 4    1  0.1308745E-008  0.3155490E+04  0.7816531E-02  0.8200672E-01
          2   -1    0    0  501    0  0.00000000000E+00  0.00000000000E+00  0.32568389597E+04  0.32568389597E+04  0.00000000000E+00 0.  1.
         -2   -1    0    0    0  501 -0.00000000000E+00 -0.00000000000E+00 -0.76432361786E+03  0.76432361786E+03  0.00000000000E+00 0. -1.
    2000013    1    1    2    0    0 -0.94381378007E+03  0.75121354117E+03  0.78384180586E+03  0.17239530772E+04  0.95000000000E+03 0.  0.
   -2000013    1    1    2    0    0  0.94381378007E+03 -0.75121354117E+03  0.17086735360E+04  0.22972095004E+04  0.95000000000E+03 0.  0.
<mgrwt>
<rscale>  0 0.31554898E+04</rscale>
<asrwt>0</asrwt>
<pdfrwt beam="1">  1        2 0.50105214E+00 0.31554898E+04</pdfrwt>
<pdfrwt beam="2">  1       -2 0.11758825E+00 0.31554898E+04</pdfrwt>
<totfact> 0.56097935E-01</totfact>
</mgrwt>
</event>
<event>
 4    1  0.1308745E-008  0.2153684E+04  0.7816531E-02  0.8537957E-01
         -2   -1    0    0    0  501 -0.00000000000E+00  0.00000000000E+00  0.10386774753E+04  0.10386774753E+04  0.00000000000E+00 0. -1.
          2   -1    0    0  501    0  0.00000000000E+00 -0.00000000000E+00 -0.11164090636E+04  0.11164090636E+04  0.00000000000E+00 0.  1.
    2000013    1    1    2    0    0  0.36335717124E+03 -0.20491019555E+03 -0.32727616215E+03  0.10879459125E+04  0.95000000000E+03 0.  0.
   -2000013    1    1    2    0    0 -0.36335717124E+03  0.20491019555E+03  0.24954457384E+03  0.10671406264E+04  0.95000000000E+03 0.  0.
<mgrwt>
<rscale>  0 0.21536842E+04</rscale>
<asrwt>0</asrwt>
<pdfrwt beam="2">  1        2 0.17175524E+00 0.21536842E+04</pdfrwt>
<pdfrwt beam="1">  1       -2 0.15979653E+00 0.21536842E+04</pdfrwt>
<totfact> 0.49362446E+00</totfact>
</mgrwt>
</event>
<event>
 4    1  0.1308745E-008  0.2085613E+04  0.7816531E-02  0.8567608E-01
         -2   -1    0    0    0  501 -0.00000000000E+00  0.00000000000E+00  0.13528213714E+04  0.13528213714E+04  0.00000000000E+00 0. -1.
          2   -1    0    0  501    0  0.00000000000E+00 -0.00000000000E+00 -0.80383495852E+03  0.80383495852E+03  0.00000000000E+00 0.  1.
    2000013    1    1    2    0    0 -0.15324277718E+03  0.26178224573E+03  0.58972462253E+03  0.11585717170E+04  0.95000000000E+03 0.  0.
   -2000013    1    1    2    0    0  0.15324277718E+03 -0.26178224573E+03 -0.40738209615E+02  0.99808461298E+03  0.95000000000E+03 0.  0.
<mgrwt>
<rscale>  0 0.20856127E+04</rscale>
<asrwt>0</asrwt>
<pdfrwt beam="2">  1        2 0.12366692E+00 0.20856127E+04</pdfrwt>
<pdfrwt beam="1">  1       -2 0.20812636E+00 0.20856127E+04</pdfrwt>
<totfact> 0.37163047E+00</totfact>
</mgrwt>
</event>
<event>
 4    1  0.1308745E-008  0.3016528E+04  0.7816531E-02  0.8239027E-01
          2   -1    0    0  501    0  0.00000000000E+00  0.00000000000E+00  0.17430134815E+04  0.17430134815E+04  0.00000000000E+00 0.  1.
         -2   -1    0    0    0  501 -0.00000000000E+00 -0.00000000000E+00 -0.13051304012E+04  0.13051304012E+04  0.00000000000E+00 0. -1.
    2000013    1    1    2    0    0  0.72241487153E+03  0.91918443689E+03  0.29440092021E+03  0.15349121074E+04  0.95000000000E+03 0.  0.
   -2000013    1    1    2    0    0 -0.72241487153E+03 -0.91918443689E+03  0.14348216003E+03  0.15132317753E+04  0.95000000000E+03 0.  0.
<mgrwt>
<rscale>  0 0.30165277E+04</rscale>
<asrwt>0</asrwt>
<pdfrwt beam="1">  1        2 0.26815592E+00 0.30165277E+04</pdfrwt>
<pdfrwt beam="2">  1       -2 0.20078929E+00 0.30165277E+04</pdfrwt>
<totfact> 0.10428364E+00</totfact>
</mgrwt>
</event>
<event>
 4    1  0.1308745E-008  0.2237065E+04  0.7816531E-02  0.8503158E-01
         -2   -1    0    0    0  501 -0.00000000000E+00  0.00000000000E+00  0.61026689096E+03  0.61026689096E+03  0.00000000000E+00 0.  1.
          2   -1    0    0  501    0  0.00000000000E+00 -0.00000000000E+00 -0.20501102318E+04  0.20501102318E+04  0.00000000000E+00 0. -1.
    2000013    1    1    2    0    0  0.57294625510E+03 -0.11318501341E+03 -0.61668377492E+03  0.12743143791E+04  0.95000000000E+03 0.  0.
   -2000013    1    1    2    0    0 -0.57294625510E+03  0.11318501341E+03 -0.82315956594E+03  0.13860627437E+04  0.95000000000E+03 0.  0.
<mgrwt>
<rscale>  0 0.22370645E+04</rscale>
<asrwt>0</asrwt>
<pdfrwt beam="2">  1        2 0.31540157E+00 0.22370645E+04</pdfrwt>
<pdfrwt beam="1">  1       -2 0.93887216E-01 0.22370645E+04</pdfrwt>
<totfact> 0.54690612E+00</totfact>
</mgrwt>
</event>
<event>
 4    1  0.1308745E-008  0.2670637E+04  0.7816531E-02  0.8344596E-01
         -1   -1    0    0    0  501 -0.00000000000E+00  0.00000000000E+00  0.87924233973E+03  0.87924233973E+03  0.00000000000E+00 0. -1.
          1   -1    0    0  501    0  0.00000000000E+00 -0.00000000000E+00 -0.20279684275E+04  0.20279684275E+04  0.00000000000E+00 0.  1.
    2000013    1    1    2    0    0 -0.89032975498E+03 -0.28565375294E+03 -0.48802414821E+03  0.14194902988E+04  0.95000000000E+03 0.  0.
   -2000013    1    1    2    0    0  0.89032975498E+03  0.28565375294E+03 -0.66070193953E+03  0.14877204684E+04  0.95000000000E+03 0.  0.
<mgrwt>
<rscale>  0 0.26706372E+04</rscale>
<asrwt>0</asrwt>
<pdfrwt beam="2">  1        1 0.31199514E+00 0.26706372E+04</pdfrwt>
<pdfrwt beam="1">  1       -1 0.13526805E+00 0.26706372E+04</pdfrwt>
<totfact> 0.11441844E+00</totfact>
</mgrwt>
</event>
<event>
 4    1  0.1308745E-008  0.2654170E+04  0.7816531E-02  0.8350030E-01
          2   -1    0    0  501    0  0.00000000000E+00  0.00000000000E+00  0.10359227244E+04  0.10359227244E+04  0.00000000000E+00 0.  1.
         -2   -1    0    0    0  501 -0.00000000000E+00 -0.00000000000E+00 -0.17000833611E+04  0.17000833611E+04  0.00000000000E+00 0. -1.
    2000013    1    1    2    0    0  0.62333926363E+03  0.56131446350E+03  0.73797259114E+02  0.12694769789E+04  0.95000000000E+03 0.  0.
   -2000013    1    1    2    0    0 -0.62333926363E+03 -0.56131446350E+03 -0.73795789576E+03  0.14665291066E+04  0.95000000000E+03 0.  0.
<mgrwt>
<rscale>  0 0.26541703E+04</rscale>
<asrwt>0</asrwt>
<pdfrwt beam="1">  1        2 0.15937273E+00 0.26541703E+04</pdfrwt>
<pdfrwt beam="2">  1       -2 0.26155129E+00 0.26541703E+04</pdfrwt>
<totfact> 0.11484454E+00</totfact>
</mgrwt>
</event>
<event>
 4    1  0.1308745E-008  0.3433831E+04  0.7816531E-02  0.8129653E-01
         -4   -1    0    0    0  501 -0.00000000000E+00  0.00000000000E+00  0.17558038164E+04  0.17558038164E+04  0.00000000000E+00 0. -1.
          4   -1    0    0  501    0  0.00000000000E+00 -0.00000000000E+00 -0.16788888966E+04  0.16788888966E+04  0.00000000000E+00 0.  1.
    2000013    1    1    2    0    0  0.13728469712E+04  0.37600982649E+02  0.43752732138E+03  0.17262829424E+04  0.95000000000E+03 0.  0.
   -2000013    1    1    2    0    0 -0.13728469712E+04 -0.37600982649E+02 -0.36061240158E+03  0.17084097706E+04  0.95000000000E+03 0.  0.
<mgrwt>
<rscale>  0 0.34338314E+04</rscale>
<asrwt>0</asrwt>
<pdfrwt beam="2">  1        4 0.25829060E+00 0.34338314E+04</pdfrwt>
<pdfrwt beam="1">  1       -4 0.27012367E+00 0.34338314E+04</pdfrwt>
<totfact> 0.43309630E-03</totfact>
</mgrwt>
</event>
<event>
 4    1  0.1308745E-008  0.2491228E+04  0.7816531E-02  0.8406117E-01
         -2   -1    0    0    0  501 -0.00000000000E+00  0.00000000000E+00  0.15041718785E+04  0.15041718785E+04  0.00000000000E+00 0. -1.
          2   -1    0    0  501    0  0.00000000000E+00 -0.00000000000E+00 -0.10315003214E+04  0.10315003214E+04  0.00000000000E+00 0.  1.
    2000013    1    1    2    0    0  0.51043570970E+03  0.15553179648E+03 -0.37802095321E+03  0.11533146121E+04  0.95000000000E+03 0.  0.
   -2000013    1    1    2    0    0 -0.51043570970E+03 -0.15553179648E+03  0.85069251025E+03  0.13823575878E+04  0.95000000000E+03 0.  0.
<mgrwt>
<rscale>  0 0.24912276E+04</rscale>
<asrwt>0</asrwt>
<pdfrwt beam="2">  1        2 0.15869236E+00 0.24912276E+04</pdfrwt>
<pdfrwt beam="1">  1       -2 0.23141106E+00 0.24912276E+04</pdfrwt>
<totfact> 0.17978554E+00</totfact>
</mgrwt>
</event>
<event>
 4    1  0.1308745E-008  0.2345654E+04  0.7816531E-02  0.8460135E-01
          2   -1    0    0  501    0  0.00000000000E+00  0.00000000000E+00  0.13107340488E+04  0.13107340488E+04  0.00000000000E+00 0.  1.
         -2   -1    0    0    0  501 -0.00000000000E+00 -0.00000000000E+00 -0.10494299954E+04  0.10494299954E+04  0.00000000000E+00 0. -1.
    2000013    1    1    2    0    0 -0.61380836385E+03  0.30660639495E+03  0.17843724693E+03  0.11853725322E+04  0.95000000000E+03 0.  0.
   -2000013    1    1    2    0    0  0.61380836385E+03 -0.30660639495E+03  0.82866806453E+02  0.11747915120E+04  0.95000000000E+03 0.  0.
<mgrwt>
<rscale>  0 0.23456544E+04</rscale>
<asrwt>0</asrwt>
<pdfrwt beam="1">  1        2 0.20165139E+00 0.23456544E+04</pdfrwt>
<pdfrwt beam="2">  1       -2 0.16145077E+00 0.23456544E+04</pdfrwt>
<totfact> 0.36175254E+00</totfact>
</mgrwt>
</event>
<event>
 4    1  0.1308745E-008  0.2173490E+04  0.7816531E-02  0.8529544E-01
          2   -1    0    0  501    0  0.00000000000E+00  0.00000000000E+00  0.25555932929E+04  0.25555932929E+04  0.00000000000E+00 0.  1.
         -2   -1    0    0    0  501 -0.00000000000E+00 -0.00000000000E+00 -0.46212949439E+03  0.46212949439E+03  0.00000000000E+00 0. -1.
    2000013    1    1    2    0    0 -0.46763013453E+03 -0.11128663243E+03  0.74428396085E+03  0.12990462931E+04  0.95000000000E+03 0.  0.
   -2000013    1    1    2    0    0  0.46763013453E+03  0.11128663243E+03  0.13491798377E+04  0.17186764942E+04  0.95000000000E+03 0.  0.
<mgrwt>
<rscale>  0 0.21734903E+04</rscale>
<asrwt>0</asrwt>
<pdfrwt beam="1">  1        2 0.39316819E+00 0.21734903E+04</pdfrwt>
<pdfrwt beam="2">  1       -2 0.71096847E-01 0.21734903E+04</pdfrwt>
<totfact> 0.53191002E+00</totfact>
</mgrwt>
</event>
<event>
 4    1  0.1308745E-008  0.2708207E+04  0.7816531E-02  0.8332347E-01
          2   -1    0    0  501    0  0.00000000000E+00  0.00000000000E+00  0.20560856596E+04  0.20560856596E+04  0.00000000000E+00 0.  1.
         -2   -1    0    0    0  501 -0.00000000000E+00 -0.00000000000E+00 -0.89178954850E+03  0.89178954850E+03  0.00000000000E+00 0. -1.
    2000013    1    1    2    0    0  0.27074431636E+03  0.54683665642E+03 -0.23150841911E+03  0.11525749267E+04  0.95000000000E+03 0.  0.
   -2000013    1    1    2    0    0 -0.27074431636E+03 -0.54683665642E+03  0.13958045302E+04  0.17953002813E+04  0.95000000000E+03 0.  0.
<mgrwt>
<rscale>  0 0.27082066E+04</rscale>
<asrwt>0</asrwt>
<pdfrwt beam="1">  1        2 0.31632087E+00 0.27082066E+04</pdfrwt>
<pdfrwt beam="2">  1       -2 0.13719839E+00 0.27082066E+04</pdfrwt>
<totfact> 0.20631190E+00</totfact>
</mgrwt>
</event>
<event>
 4    1  0.1308745E-008  0.2236374E+04  0.7816531E-02  0.8503439E-01
         -2   -1    0    0    0  501 -0.00000000000E+00  0.00000000000E+00  0.39890653081E+03  0.39890653081E+03  0.00000000000E+00 0. -1.
          2   -1    0    0  501    0  0.00000000000E+00 -0.00000000000E+00 -0.31344249471E+04  0.31344249471E+04  0.00000000000E+00 0.  1.
    2000013    1    1    2    0    0 -0.12550216155E+03 -0.53863717875E+03 -0.16914026574E+04  0.20172317052E+04  0.95000000000E+03 0.  0.
   -2000013    1    1    2    0    0  0.12550216155E+03  0.53863717875E+03 -0.10441157588E+04  0.15160997727E+04  0.95000000000E+03 0.  0.
<mgrwt>
<rscale>  0 0.22363744E+04</rscale>
<asrwt>0</asrwt>
<pdfrwt beam="2">  1        2 0.48221922E+00 0.22363744E+04</pdfrwt>
<pdfrwt beam="1">  1       -2 0.61370235E-01 0.22363744E+04</pdfrwt>
<totfact> 0.32225942E+00</totfact>
</mgrwt>
</event>
<event>
 4    1  0.1308745E-008  0.3284594E+04  0.7816531E-02  0.8166827E-01
          2   -1    0    0  501    0  0.00000000000E+00  0.00000000000E+00  0.26625634988E+04  0.26625634988E+04  0.00000000000E+00 0.  1.
         -2   -1    0    0    0  501 -0.00000000000E+00 -0.00000000000E+00 -0.10129858256E+04  0.10129858256E+04  0.00000000000E+00 0. -1.
    2000013    1    1    2    0    0  0.10855596501E+04  0.24316806698E+03 -0.10419722857E+02  0.14629350749E+04  0.95000000000E+03 0.  0.
   -2000013    1    1    2    0    0 -0.10855596501E+04 -0.24316806698E+03  0.16599973960E+04  0.22126142496E+04  0.95000000000E+03 0.  0.
<mgrwt>
<rscale>  0 0.32845938E+04</rscale>
<asrwt>0</asrwt>
<pdfrwt beam="1">  1        2 0.40962515E+00 0.32845938E+04</pdfrwt>
<pdfrwt beam="2">  1       -2 0.15584397E+00 0.32845938E+04</pdfrwt>
<totfact> 0.63215964E-01</totfact>
</mgrwt>
</event>
<event>
 4    1  0.1308745E-008  0.2412172E+04  0.7816531E-02  0.8434960E-01
         -2   -1    0    0    0  501 -0.00000000000E+00  0.00000000000E+00  0.11178986338E+04  0.11178986338E+04  0.00000000000E+00 0. -1.
          2   -1    0    0  501    0  0.00000000000E+00 -0.00000000000E+00 -0.13012305667E+04  0.13012305667E+04  0.00000000000E+00 0.  1.
    2000013    1    1    2    0    0 -0.47786970545E+03  0.43679517135E+03  0.27406976962E+03  0.11818475857E+04  0.95000000000E+03 0.  0.
   -2000013    1    1    2    0    0  0.47786970545E+03 -0.43679517135E+03 -0.45740170253E+03  0.12372816149E+04  0.95000000000E+03 0.  0.
<mgrwt>
<rscale>  0 0.24121724E+04</rscale>
<asrwt>0</asrwt>
<pdfrwt beam="2">  1        2 0.20018932E+00 0.24121724E+04</pdfrwt>
<pdfrwt beam="1">  1       -2 0.17198440E+00 0.24121724E+04</pdfrwt>
<totfact> 0.30593981E+00</totfact>
</mgrwt>
</event>
<event>
 4    1  0.1308745E-008  0.2511590E+04  0.7816531E-02  0.8398868E-01
          2   -1    0    0  501    0  0.00000000000E+00  0.00000000000E+00  0.22947033886E+04  0.22947033886E+04  0.00000000000E+00 0.  1.
         -2   -1    0    0    0  501 -0.00000000000E+00 -0.00000000000E+00 -0.68724376671E+03  0.68724376671E+03  0.00000000000E+00 0. -1.
    2000013    1    1    2    0    0 -0.38187107126E+03  0.58770183148E+03  0.29541303589E+03  0.12169584297E+04  0.95000000000E+03 0.  0.
   -2000013    1    1    2    0    0  0.38187107126E+03 -0.58770183148E+03  0.13120465860E+04  0.17649887257E+04  0.95000000000E+03 0.  0.
<mgrwt>
<rscale>  0 0.25115896E+04</rscale>
<asrwt>0</asrwt>
<pdfrwt beam="1">  1        2 0.35303129E+00 0.25115896E+04</pdfrwt>
<pdfrwt beam="2">  1       -2 0.10572981E+00 0.25115896E+04</pdfrwt>
<totfact> 0.29402113E+00</totfact>
</mgrwt>
</event>
<event>
 4    1  0.1308745E-008  0.2309886E+04  0.7816531E-02  0.8474033E-01
          2   -1    0    0  501    0  0.00000000000E+00  0.00000000000E+00  0.10200506973E+04  0.10200506973E+04  0.00000000000E+00 0.  1.
         -2   -1    0    0    0  501 -0.00000000000E+00 -0.00000000000E+00 -0.13076732801E+04  0.13076732801E+04  0.00000000000E+00 0. -1.
    2000013    1    1    2    0    0 -0.43044519454E+03  0.45618171776E+03 -0.34027381754E+03  0.11881376587E+04  0.95000000000E+03 0.  0.
   -2000013    1    1    2    0    0  0.43044519454E+03 -0.45618171776E+03  0.52651234780E+02  0.11395863186E+04  0.95000000000E+03 0.  0.
<mgrwt>
<rscale>  0 0.23098857E+04</rscale>
<asrwt>0</asrwt>
<pdfrwt beam="1">  1        2 0.15693088E+00 0.23098857E+04</pdfrwt>
<pdfrwt beam="2">  1       -2 0.20118050E+00 0.23098857E+04</pdfrwt>
<totfact> 0.28936150E+00</totfact>
</mgrwt>
</event>
<event>
 4    1  0.1308745E-008  0.2098124E+04  0.7816531E-02  0.8562070E-01
         -2   -1    0    0    0  501 -0.00000000000E+00  0.00000000000E+00  0.30740587669E+03  0.30740587669E+03  0.00000000000E+00 0. -1.
          2   -1    0    0  501    0  0.00000000000E+00 -0.00000000000E+00 -0.35800580122E+04  0.35800580122E+04  0.00000000000E+00 0.  1.
    2000013    1    1    2    0    0  0.23889110542E+03  0.12636098450E+03 -0.98126580786E+03  0.13922710384E+04  0.95000000000E+03 0.  0.
   -2000013    1    1    2    0    0 -0.23889110542E+03 -0.12636098450E+03 -0.22913863276E+04  0.24951928505E+04  0.95000000000E+03 0.  0.
<mgrwt>
<rscale>  0 0.20981238E+04</rscale>
<asrwt>0</asrwt>
<pdfrwt beam="2">  1        2 0.55077815E+00 0.20981238E+04</pdfrwt>
<pdfrwt beam="1">  1       -2 0.47293213E-01 0.20981238E+04</pdfrwt>
<totfact> 0.28010587E+00</totfact>
</mgrwt>
</event>
<event>
 4    1  0.1308745E-008  0.3103940E+04  0.7816531E-02  0.8214657E-01
         -2   -1    0    0    0  501 -0.00000000000E+00  0.00000000000E+00  0.75855142118E+03  0.75855142118E+03  0.00000000000E+00 0. -1.
          2   -1    0    0  501    0  0.00000000000E+00 -0.00000000000E+00 -0.31752776273E+04  0.31752776273E+04  0.00000000000E+00 0.  1.
    2000013    1    1    2    0    0 -0.10947434848E+04 -0.54141774838E+03 -0.13610524942E+04  0.20607184106E+04  0.95000000000E+03 0.  0.
   -2000013    1    1    2    0    0  0.10947434848E+04  0.54141774838E+03 -0.10556737119E+04  0.18731106379E+04  0.95000000000E+03 0.  0.
<mgrwt>
<rscale>  0 0.31039403E+04</rscale>
<asrwt>0</asrwt>
<pdfrwt beam="2">  1        2 0.48850424E+00 0.31039403E+04</pdfrwt>
<pdfrwt beam="1">  1       -2 0.11670022E+00 0.31039403E+04</pdfrwt>
<totfact> 0.64919926E-01</totfact>
</mgrwt>
</event>
<event>
 4    1  0.1308745E-008  0.4342203E+04  0.7816531E-02  0.7938860E-01
         -2   -1    0    0    0  501 -0.00000000000E+00  0.00000000000E+00  0.10437100373E+04  0.10437100373E+04  0.00000000000E+00 0. -1.
          2   -1    0    0  501    0  0.00000000000E+00 -0.00000000000E+00 -0.45162750745E+04  0.45162750745E+04  0.00000000000E+00 0.  1.
    2000013    1    1    2    0    0  0.17496553968E+04 -0.63490575430E+03 -0.24903183307E+04  0.32509359749E+04  0.95000000000E+03 0.  0.
   -2000013    1    1    2    0    0 -0.17496553968E+04  0.63490575430E+03 -0.98224670646E+03  0.23090491369E+04  0.95000000000E+03 0.  0.
<mgrwt>
<rscale>  0 0.43422030E+04</rscale>
<asrwt>0</asrwt>
<pdfrwt beam="2">  1        2 0.69481155E+00 0.43422030E+04</pdfrwt>
<pdfrwt beam="1">  1       -2 0.16057077E+00 0.43422030E+04</pdfrwt>
<totfact> 0.22520139E-02</totfact>
</mgrwt>
</event>
<event>
 4    1  0.1308745E-008  0.2106898E+04  0.7816531E-02  0.8558211E-01
          2   -1    0    0  501    0  0.00000000000E+00  0.00000000000E+00  0.10727078208E+04  0.10727078208E+04  0.00000000000E+00 0.  1.
         -2   -1    0    0    0  501 -0.00000000000E+00 -0.00000000000E+00 -0.10345359111E+04  0.10345359111E+04  0.00000000000E+00 0. -1.
    2000013    1    1    2    0    0 -0.16408685990E+03  0.36107058640E+03 -0.20446425304E+03  0.10495723399E+04  0.95000000000E+03 0.  0.
   -2000013    1    1    2    0    0  0.16408685990E+03 -0.36107058640E+03  0.24263616272E+03  0.10576713920E+04  0.95000000000E+03 0.  0.
<mgrwt>
<rscale>  0 0.21068980E+04</rscale>
<asrwt>0</asrwt>
<pdfrwt beam="1">  1        2 0.16503197E+00 0.21068980E+04</pdfrwt>
<pdfrwt beam="2">  1       -2 0.15915937E+00 0.21068980E+04</pdfrwt>
<totfact> 0.53311852E+00</totfact>
</mgrwt>
</event>
<event>
 4    1  0.1308745E-008  0.1937713E+04  0.7816531E-02  0.8636309E-01
          1   -1    0    0  501    0  0.00000000000E+00  0.00000000000E+00  0.13931243567E+04  0.13931243567E+04  0.00000000000E+00 0. -1.
         -1   -1    0    0    0  501 -0.00000000000E+00 -0.00000000000E+00 -0.67379699750E+03  0.67379699750E+03  0.00000000000E+00 0.  1.
    2000013    1    1    2    0    0 -0.95415692565E+02 -0.15374911699E+03  0.42222669860E+03  0.10552337800E+04  0.95000000000E+03 0.  0.
   -2000013    1    1    2    0    0  0.95415692565E+02  0.15374911699E+03  0.29710066062E+03  0.10116875743E+04  0.95000000000E+03 0.  0.
<mgrwt>
<rscale>  0 0.19377131E+04</rscale>
<asrwt>0</asrwt>
<pdfrwt beam="1">  1        1 0.21432682E+00 0.19377131E+04</pdfrwt>
<pdfrwt beam="2">  1       -1 0.10366108E+00 0.19377131E+04</pdfrwt>
<totfact> 0.63555859E+00</totfact>
</mgrwt>
</event>
<event>
 4    1  0.1308745E-008  0.2486115E+04  0.7816531E-02  0.8407949E-01
          2   -1    0    0  501    0  0.00000000000E+00  0.00000000000E+00  0.15339802460E+04  0.15339802460E+04  0.00000000000E+00 0.  1.
         -2   -1    0    0    0  501 -0.00000000000E+00 -0.00000000000E+00 -0.10073088222E+04  0.10073088222E+04  0.00000000000E+00 0. -1.
    2000013    1    1    2    0    0  0.66272154850E+03 -0.20593014754E+03  0.67359658055E+03  0.13556693660E+04  0.95000000000E+03 0.  0.
   -2000013    1    1    2    0    0 -0.66272154850E+03  0.20593014754E+03 -0.14692515674E+03  0.11856197022E+04  0.95000000000E+03 0.  0.
<mgrwt>
<rscale>  0 0.24861149E+04</rscale>
<asrwt>0</asrwt>
<pdfrwt beam="1">  1        2 0.23599696E+00 0.24861149E+04</pdfrwt>
<pdfrwt beam="2">  1       -2 0.15497059E+00 0.24861149E+04</pdfrwt>
<totfact> 0.29791802E+00</totfact>
</mgrwt>
</event>
<event>
 4    1  0.1308745E-008  0.3259876E+04  0.7816531E-02  0.8173181E-01
          1   -1    0    0  501    0  0.00000000000E+00  0.00000000000E+00  0.11737934374E+04  0.11737934374E+04  0.00000000000E+00 0.  1.
         -1   -1    0    0    0  501 -0.00000000000E+00 -0.00000000000E+00 -0.22633440721E+04  0.22633440721E+04  0.00000000000E+00 0. -1.
    2000013    1    1    2    0    0 -0.35312052183E+03  0.12008034720E+04 -0.88125118708E+02  0.15738135588E+04  0.95000000000E+03 0.  0.
   -2000013    1    1    2    0    0  0.35312052183E+03 -0.12008034720E+04 -0.10014255159E+04  0.18633239507E+04  0.95000000000E+03 0.  0.
<mgrwt>
<rscale>  0 0.32598763E+04</rscale>
<asrwt>0</asrwt>
<pdfrwt beam="1">  1        1 0.18058361E+00 0.32598763E+04</pdfrwt>
<pdfrwt beam="2">  1       -1 0.34820678E+00 0.32598763E+04</pdfrwt>
<totfact> 0.14842082E-01</totfact>
</mgrwt>
</event>
<event>
 4    1  0.1308745E-008  0.2246461E+04  0.7816531E-02  0.8499335E-01
          2   -1    0    0  501    0  0.00000000000E+00  0.00000000000E+00  0.11354515681E+04  0.11354515681E+04  0.00000000000E+00 0.  1.
         -2   -1    0    0    0  501 -0.00000000000E+00 -0.00000000000E+00 -0.11111404895E+04  0.11111404895E+04  0.00000000000E+00 0. -1.
    2000013    1    1    2    0    0 -0.27549110730E+03  0.53005451880E+03 -0.35733255593E+02  0.11227778091E+04  0.95000000000E+03 0.  0.
   -2000013    1    1    2    0    0  0.27549110730E+03 -0.53005451880E+03  0.60044334170E+02  0.11238142485E+04  0.95000000000E+03 0.  0.
<mgrwt>
<rscale>  0 0.22464605E+04</rscale>
<asrwt>0</asrwt>
<pdfrwt beam="1">  1        2 0.17468486E+00 0.22464605E+04</pdfrwt>
<pdfrwt beam="2">  1       -2 0.17094469E+00 0.22464605E+04</pdfrwt>
<totfact> 0.39595595E+00</totfact>
</mgrwt>
</event>
<event>
 4    1  0.1308745E-008  0.2163093E+04  0.7816531E-02  0.8533948E-01
          2   -1    0    0  501    0  0.00000000000E+00  0.00000000000E+00  0.11871503166E+04  0.11871503166E+04  0.00000000000E+00 0.  1.
         -2   -1    0    0    0  501 -0.00000000000E+00 -0.00000000000E+00 -0.98533699121E+03  0.98533699121E+03  0.00000000000E+00 0. -1.
    2000013    1    1    2    0    0  0.19739058522E+03 -0.46375221205E+03 -0.14544565470E+02  0.10755188058E+04  0.95000000000E+03 0.  0.
   -2000013    1    1    2    0    0 -0.19739058522E+03  0.46375221205E+03  0.21635789081E+03  0.10969685019E+04  0.95000000000E+03 0.  0.
<mgrwt>
<rscale>  0 0.21630933E+04</rscale>
<asrwt>0</asrwt>
<pdfrwt beam="1">  1        2 0.18263851E+00 0.21630933E+04</pdfrwt>
<pdfrwt beam="2">  1       -2 0.15159031E+00 0.21630933E+04</pdfrwt>
<totfact> 0.51500028E+00</totfact>
</mgrwt>
</event>
<event>
 4    1  0.1308745E-008  0.2374594E+04  0.7816531E-02  0.8449077E-01
          2   -1    0    0  501    0  0.00000000000E+00  0.00000000000E+00  0.71942744575E+03  0.71942744575E+03  0.00000000000E+00 0.  1.
         -2   -1    0    0    0  501 -0.00000000000E+00 -0.00000000000E+00 -0.19594392499E+04  0.19594392499E+04  0.00000000000E+00 0. -1.
    2000013    1    1    2    0    0  0.35569063704E+03  0.54599416195E+03 -0.29587726432E+03  0.11893985075E+04  0.95000000000E+03 0.  0.
   -2000013    1    1    2    0    0 -0.35569063704E+03 -0.54599416195E+03 -0.94413453982E+03  0.14894681881E+04  0.95000000000E+03 0.  0.
<mgrwt>
<rscale>  0 0.23745942E+04</rscale>
<asrwt>0</asrwt>
<pdfrwt beam="1">  1        2 0.11068115E+00 0.23745942E+04</pdfrwt>
<pdfrwt beam="2">  1       -2 0.30145219E+00 0.23745942E+04</pdfrwt>
<totfact> 0.11106355E+00</totfact>
</mgrwt>
</event>
<event>
 4    1  0.1308745E-008  0.2119605E+04  0.7816531E-02  0.8552656E-01
         -2   -1    0    0    0  501 -0.00000000000E+00  0.00000000000E+00  0.14310722299E+04  0.14310722299E+04  0.00000000000E+00 0. -1.
          2   -1    0    0  501    0  0.00000000000E+00 -0.00000000000E+00 -0.78485298521E+03  0.78485298521E+03  0.00000000000E+00 0.  1.
    2000013    1    1    2    0    0 -0.45737145025E+03  0.66601360898E+02  0.23528668082E+03  0.10823512401E+04  0.95000000000E+03 0.  0.
   -2000013    1    1    2    0    0  0.45737145025E+03 -0.66601360898E+02  0.41093256388E+03  0.11335739750E+04  0.95000000000E+03 0.  0.
<mgrwt>
<rscale>  0 0.21196050E+04</rscale>
<asrwt>0</asrwt>
<pdfrwt beam="2">  1        2 0.12074661E+00 0.21196050E+04</pdfrwt>
<pdfrwt beam="1">  1       -2 0.22016496E+00 0.21196050E+04</pdfrwt>
<totfact> 0.32038294E+00</totfact>
</mgrwt>
</event>
<event>
 4    1  0.1308745E-008  0.2368522E+04  0.7816531E-02  0.8451383E-01
          2   -1    0    0  501    0  0.00000000000E+00  0.00000000000E+00  0.19037847740E+04  0.19037847740E+04  0.00000000000E+00 0.  1.
         -2   -1    0    0    0  501 -0.00000000000E+00 -0.00000000000E+00 -0.73667655135E+03  0.73667655135E+03  0.00000000000E+00 0. -1.
    2000013    1    1    2    0    0  0.41222145718E+03 -0.55364822875E+03  0.41258104961E+03  0.12446589948E+04  0.95000000000E+03 0.  0.
   -2000013    1    1    2    0    0 -0.41222145718E+03  0.55364822875E+03  0.75452717305E+03  0.13958023305E+04  0.95000000000E+03 0.  0.
<mgrwt>
<rscale>  0 0.23685216E+04</rscale>
<asrwt>0</asrwt>
<pdfrwt beam="1">  1        2 0.29288996E+00 0.23685216E+04</pdfrwt>
<pdfrwt beam="2">  1       -2 0.11333486E+00 0.23685216E+04</pdfrwt>
<totfact> 0.41628214E+00</totfact>
</mgrwt>
</event>
<event>
 4    1  0.1308745E-008  0.3017681E+04  0.7816531E-02  0.8238700E-01
          2   -1    0    0  501    0  0.00000000000E+00  0.00000000000E+00  0.14629890881E+04  0.14629890881E+04  0.00000000000E+00 0. -1.
         -2   -1    0    0    0  501 -0.00000000000E+00 -0.00000000000E+00 -0.15561284351E+04  0.15561284351E+04  0.00000000000E+00 0.  1.
    2000013    1    1    2    0    0 -0.67201681067E+02 -0.35045320422E+03 -0.11636878858E+04  0.15440216999E+04  0.95000000000E+03 0.  0.
   -2000013    1    1    2    0    0  0.67201681067E+02  0.35045320422E+03  0.10705485388E+04  0.14750958234E+04  0.95000000000E+03 0.  0.
<mgrwt>
<rscale>  0 0.30176805E+04</rscale>
<asrwt>0</asrwt>
<pdfrwt beam="1">  1        2 0.22507525E+00 0.30176805E+04</pdfrwt>
<pdfrwt beam="2">  1       -2 0.23940437E+00 0.30176805E+04</pdfrwt>
<totfact> 0.85073637E-01</totfact>
</mgrwt>
</event>
<event>
 4    1  0.1308745E-008  0.2104935E+04  0.7816531E-02  0.8559072E-01
         -2   -1    0    0    0  501 -0.00000000000E+00  0.00000000000E+00  0.10933624696E+04  0.10933624696E+04  0.00000000000E+00 0. -1.
          2   -1    0    0  501    0  0.00000000000E+00 -0.00000000000E+00 -0.10131024772E+04  0.10131024772E+04  0.00000000000E+00 0.  1.
    2000013    1    1    2    0    0  0.23690459089E+03  0.32448880052E+03  0.24949832460E+03  0.10612097723E+04  0.95000000000E+03 0.  0.
   -2000013    1    1    2    0    0 -0.23690459089E+03 -0.32448880052E+03 -0.16923833215E+03  0.10452551745E+04  0.95000000000E+03 0.  0.
<mgrwt>
<rscale>  0 0.21049354E+04</rscale>
<asrwt>0</asrwt>
<pdfrwt beam="2">  1        2 0.15586192E+00 0.21049354E+04</pdfrwt>
<pdfrwt beam="1">  1       -2 0.16820961E+00 0.21049354E+04</pdfrwt>
<totfact> 0.49946866E+00</totfact>
</mgrwt>
</event>
<event>
 4    1  0.1308745E-008  0.2451810E+04  0.7816531E-02  0.8420357E-01
         -2   -1    0    0    0  501 -0.00000000000E+00  0.00000000000E+00  0.11034432970E+04  0.11034432970E+04  0.00000000000E+00 0. -1.
          2   -1    0    0  501    0  0.00000000000E+00 -0.00000000000E+00 -0.13619580368E+04  0.13619580368E+04  0.00000000000E+00 0.  1.
    2000013    1    1    2    0    0  0.48796646403E+03 -0.58348284805E+03  0.19141065143E+02  0.12171400430E+04  0.95000000000E+03 0.  0.
   -2000013    1    1    2    0    0 -0.48796646403E+03  0.58348284805E+03 -0.27765580495E+03  0.12482612908E+04  0.95000000000E+03 0.  0.
<mgrwt>
<rscale>  0 0.24518103E+04</rscale>
<asrwt>0</asrwt>
<pdfrwt beam="2">  1        2 0.20953200E+00 0.24518103E+04</pdfrwt>
<pdfrwt beam="1">  1       -2 0.16976051E+00 0.24518103E+04</pdfrwt>
<totfact> 0.29160185E+00</totfact>
</mgrwt>
</event>
<event>
 4    1  0.1308745E-008  0.2306880E+04  0.7816531E-02  0.8475213E-01
          2   -1    0    0  501    0  0.00000000000E+00  0.00000000000E+00  0.14485217571E+04  0.14485217571E+04  0.00000000000E+00 0.  1.
         -2   -1    0    0    0  501 -0.00000000000E+00 -0.00000000000E+00 -0.91847027528E+03  0.91847027528E+03  0.00000000000E+00 0. -1.
    2000013    1    1    2    0    0 -0.21160138203E+03  0.61349700046E+03  0.18059882886E+03  0.11645899070E+04  0.95000000000E+03 0.  0.
   -2000013    1    1    2    0    0  0.21160138203E+03 -0.61349700046E+03  0.34945265292E+03  0.12024021254E+04  0.95000000000E+03 0.  0.
<mgrwt>
<rscale>  0 0.23068803E+04</rscale>
<asrwt>0</asrwt>
<pdfrwt beam="1">  1        2 0.22284950E+00 0.23068803E+04</pdfrwt>
<pdfrwt beam="2">  1       -2 0.14130312E+00 0.23068803E+04</pdfrwt>
<totfact> 0.43136685E+00</totfact>
</mgrwt>
</event>
<event>
 4    1  0.1308745E-008  0.3053028E+04  0.7816531E-02  0.8228749E-01
          2   -1    0    0  501    0  0.00000000000E+00  0.00000000000E+00  0.24744151409E+04  0.24744151409E+04  0.00000000000E+00 0.  1.
         -2   -1    0    0    0  501 -0.00000000000E+00 -0.00000000000E+00 -0.94173556396E+03  0.94173556396E+03  0.00000000000E+00 0. -1.
    2000013    1    1    2    0    0  0.16000597813E+03  0.10682676619E+04  0.19475266705E+03  0.14516288478E+04  0.95000000000E+03 0.  0.
   -2000013    1    1    2    0    0 -0.16000597813E+03 -0.10682676619E+04  0.13379269099E+04  0.19645218570E+04  0.95000000000E+03 0.  0.
<mgrwt>
<rscale>  0 0.30530278E+04</rscale>
<asrwt>0</asrwt>
<pdfrwt beam="1">  1        2 0.38067925E+00 0.30530278E+04</pdfrwt>
<pdfrwt beam="2">  1       -2 0.14488240E+00 0.30530278E+04</pdfrwt>
<totfact> 0.10079052E+00</totfact>
</mgrwt>
</event>
<event>
 4    1  0.1308745E-008  0.2403804E+04  0.7816531E-02  0.8438081E-01
          2   -1    0    0  501    0  0.00000000000E+00  0.00000000000E+00  0.23040617959E+04  0.23040617959E+04  0.00000000000E+00 0.  1.
         -2   -1    0    0    0  501 -0.00000000000E+00 -0.00000000000E+00 -0.62696610345E+03  0.62696610345E+03  0.00000000000E+00 0. -1.
    2000013    1    1    2    0    0  0.33752156374E+03  0.14023134439E+03  0.59242127010E+02  0.10196054460E+04  0.95000000000E+03 0.  0.
   -2000013    1    1    2    0    0 -0.33752156374E+03 -0.14023134439E+03  0.16178535655E+04  0.19114224534E+04  0.95000000000E+03 0.  0.
<mgrwt>
<rscale>  0 0.24038042E+04</rscale>
<asrwt>0</asrwt>
<pdfrwt beam="1">  1        2 0.35447104E+00 0.24038042E+04</pdfrwt>
<pdfrwt beam="2">  1       -2 0.96456325E-01 0.24038042E+04</pdfrwt>
<totfact> 0.36454068E+00</totfact>
</mgrwt>
</event>
<event>
 4    1  0.1308745E-008  0.3724382E+04  0.7816531E-02  0.8062580E-01
          2   -1    0    0  501    0  0.00000000000E+00  0.00000000000E+00  0.31944803914E+04  0.31944803914E+04  0.00000000000E+00 0.  1.
         -2   -1    0    0    0  501 -0.00000000000E+00 -0.00000000000E+00 -0.10855460546E+04  0.10855460546E+04  0.00000000000E+00 0. -1.
    2000013    1    1    2    0    0  0.17509820517E+02 -0.15954153989E+04  0.12153485581E+04  0.22192856974E+04  0.95000000000E+03 0.  0.
   -2000013    1    1    2    0    0 -0.17509820517E+02  0.15954153989E+04  0.89358577880E+03  0.20607407486E+04  0.95000000000E+03 0.  0.
<mgrwt>
<rscale>  0 0.37243821E+04</rscale>
<asrwt>0</asrwt>
<pdfrwt beam="1">  1        2 0.49145852E+00 0.37243821E+04</pdfrwt>
<pdfrwt beam="2">  1       -2 0.16700709E+00 0.37243821E+04</pdfrwt>
<totfact> 0.23596867E-01</totfact>
</mgrwt>
</event>
<event>
 4    1  0.1308745E-008  0.2738242E+04  0.7816531E-02  0.8322702E-01
          2   -1    0    0  501    0  0.00000000000E+00  0.00000000000E+00  0.23043263305E+04  0.23043263305E+04  0.00000000000E+00 0.  1.
         -2   -1    0    0    0  501 -0.00000000000E+00 -0.00000000000E+00 -0.81346665025E+03  0.81346665025E+03  0.00000000000E+00 0. -1.
    2000013    1    1    2    0    0 -0.33481021652E+03 -0.25247340286E+03  0.17613822980E+04  0.20447024967E+04  0.95000000000E+03 0.  0.
   -2000013    1    1    2    0    0  0.33481021652E+03  0.25247340286E+03 -0.27052261777E+03  0.10730904841E+04  0.95000000000E+03 0.  0.
<mgrwt>
<rscale>  0 0.27382422E+04</rscale>
<asrwt>0</asrwt>
<pdfrwt beam="1">  1        2 0.35451174E+00 0.27382422E+04</pdfrwt>
<pdfrwt beam="2">  1       -2 0.12514872E+00 0.27382422E+04</pdfrwt>
<totfact> 0.18844948E+00</totfact>
</mgrwt>
</event>
<event>
 4    1  0.1308745E-008  0.2466909E+04  0.7816531E-02  0.8414870E-01
         -2   -1    0    0    0  501 -0.00000000000E+00  0.00000000000E+00  0.84139265495E+03  0.84139265495E+03  0.00000000000E+00 0. -1.
          2   -1    0    0  501    0  0.00000000000E+00 -0.00000000000E+00 -0.18082047092E+04  0.18082047092E+04  0.00000000000E+00 0.  1.
    2000013    1    1    2    0    0 -0.78418797531E+03 -0.37309661820E+02 -0.42898447555E+03  0.13049407924E+04  0.95000000000E+03 0.  0.
   -2000013    1    1    2    0    0  0.78418797531E+03  0.37309661820E+02 -0.53782757871E+03  0.13446565717E+04  0.95000000000E+03 0.  0.
<mgrwt>
<rscale>  0 0.24669091E+04</rscale>
<asrwt>0</asrwt>
<pdfrwt beam="2">  1        2 0.27818534E+00 0.24669091E+04</pdfrwt>
<pdfrwt beam="1">  1       -2 0.12944503E+00 0.24669091E+04</pdfrwt>
<totfact> 0.33529318E+00</totfact>
</mgrwt>
</event>
<event>
 4    1  0.1308745E-008  0.3277885E+04  0.7816531E-02  0.8168545E-01
          2   -1    0    0  501    0  0.00000000000E+00  0.00000000000E+00  0.96973047381E+03  0.96973047381E+03  0.00000000000E+00 0.  1.
         -2   -1    0    0    0  501 -0.00000000000E+00 -0.00000000000E+00 -0.27699782748E+04  0.27699782748E+04  0.00000000000E+00 0. -1.
    2000013    1    1    2    0    0 -0.11220393391E+04  0.96184391945E+02 -0.17191918349E+04  0.22641431671E+04  0.95000000000E+03 0.  0.
   -2000013    1    1    2    0    0  0.11220393391E+04 -0.96184391945E+02 -0.81055966025E+02  0.14755655815E+04  0.95000000000E+03 0.  0.
<mgrwt>
<rscale>  0 0.32778849E+04</rscale>
<asrwt>0</asrwt>
<pdfrwt beam="1">  1        2 0.14918931E+00 0.32778849E+04</pdfrwt>
<pdfrwt beam="2">  1       -2 0.42615050E+00 0.32778849E+04</pdfrwt>
<totfact> 0.10996313E-01</totfact>
</mgrwt>
</event>
<event>
 4    1  0.1308745E-008  0.2810664E+04  0.7816531E-02  0.8299965E-01
         -2   -1    0    0    0  501 -0.00000000000E+00  0.00000000000E+00  0.14305363508E+04  0.14305363508E+04  0.00000000000E+00 0.  1.
          2   -1    0    0  501    0  0.00000000000E+00 -0.00000000000E+00 -0.13805712968E+04  0.13805712968E+04  0.00000000000E+00 0. -1.
    2000013    1    1    2    0    0 -0.84066102113E+03 -0.61650404318E+02  0.62669681334E+03  0.14162487849E+04  0.95000000000E+03 0.  0.
   -2000013    1    1    2    0    0  0.84066102113E+03  0.61650404318E+02 -0.57673175930E+03  0.13948588627E+04  0.95000000000E+03 0.  0.
<mgrwt>
<rscale>  0 0.28106636E+04</rscale>
<asrwt>0</asrwt>
<pdfrwt beam="2">  1        2 0.21239558E+00 0.28106636E+04</pdfrwt>
<pdfrwt beam="1">  1       -2 0.22008251E+00 0.28106636E+04</pdfrwt>
<totfact> 0.12742878E+00</totfact>
</mgrwt>
</event>
<event>
 4    1  0.1308745E-008  0.2232715E+04  0.7816531E-02  0.8504933E-01
         -2   -1    0    0    0  501 -0.00000000000E+00  0.00000000000E+00  0.96151202532E+03  0.96151202532E+03  0.00000000000E+00 0. -1.
          2   -1    0    0  501    0  0.00000000000E+00 -0.00000000000E+00 -0.12961402312E+04  0.12961402312E+04  0.00000000000E+00 0.  1.
    2000013    1    1    2    0    0 -0.49656678032E+03 -0.24802397227E+03 -0.35826166913E+03  0.11571282909E+04  0.95000000000E+03 0.  0.
   -2000013    1    1    2    0    0  0.49656678032E+03  0.24802397227E+03  0.23633463284E+02  0.11005239655E+04  0.95000000000E+03 0.  0.
<mgrwt>
<rscale>  0 0.22327153E+04</rscale>
<asrwt>0</asrwt>
<pdfrwt beam="2">  1        2 0.19940619E+00 0.22327153E+04</pdfrwt>
<pdfrwt beam="1">  1       -2 0.14792493E+00 0.22327153E+04</pdfrwt>
<totfact> 0.47099621E+00</totfact>
</mgrwt>
</event>
<event>
 4    1  0.1308745E-008  0.2293459E+04  0.7816531E-02  0.8480504E-01
         -2   -1    0    0    0  501 -0.00000000000E+00  0.00000000000E+00  0.59690899293E+03  0.59690899293E+03  0.00000000000E+00 0. -1.
          2   -1    0    0  501    0  0.00000000000E+00 -0.00000000000E+00 -0.22029975031E+04  0.22029975031E+04  0.00000000000E+00 0.  1.
    2000013    1    1    2    0    0  0.39933457490E+03 -0.43589086410E+03 -0.11095170433E+04  0.15757528415E+04  0.95000000000E+03 0.  0.
   -2000013    1    1    2    0    0 -0.39933457490E+03  0.43589086410E+03 -0.49657146681E+03  0.12241536545E+04  0.95000000000E+03 0.  0.
<mgrwt>
<rscale>  0 0.22934594E+04</rscale>
<asrwt>0</asrwt>
<pdfrwt beam="2">  1        2 0.33892269E+00 0.22934594E+04</pdfrwt>
<pdfrwt beam="1">  1       -2 0.91832153E-01 0.22934594E+04</pdfrwt>
<totfact> 0.47055981E+00</totfact>
</mgrwt>
</event>
<event>
 4    1  0.1308745E-008  0.2680555E+04  0.7816531E-02  0.8341342E-01
          2   -1    0    0  501    0  0.00000000000E+00  0.00000000000E+00  0.31844910719E+04  0.31844910719E+04  0.00000000000E+00 0.  1.
         -2   -1    0    0    0  501 -0.00000000000E+00 -0.00000000000E+00 -0.56409111700E+03  0.56409111700E+03  0.00000000000E+00 0. -1.
    2000013    1    1    2    0    0 -0.61619325773E+03 -0.65317233465E+03  0.17238979424E+04  0.21634815334E+04  0.95000000000E+03 0.  0.
   -2000013    1    1    2    0    0  0.61619325773E+03  0.65317233465E+03  0.89650201250E+03  0.15851006555E+04  0.95000000000E+03 0.  0.
<mgrwt>
<rscale>  0 0.26805545E+04</rscale>
<asrwt>0</asrwt>
<pdfrwt beam="1">  1        2 0.48992169E+00 0.26805545E+04</pdfrwt>
<pdfrwt beam="2">  1       -2 0.86783251E-01 0.26805545E+04</pdfrwt>
<totfact> 0.13399981E+00</totfact>
</mgrwt>
</event>
<event>
 4    1  0.1308745E-008  0.2753303E+04  0.7816531E-02  0.8317914E-01
         -2   -1    0    0    0  501 -0.00000000000E+00  0.00000000000E+00  0.32200383950E+04  0.32200383950E+04  0.00000000000E+00 0. -1.
          2   -1    0    0  501    0  0.00000000000E+00 -0.00000000000E+00 -0.58855500522E+03  0.58855500522E+03  0.00000000000E+00 0.  1.
    2000013    1    1    2    0    0 -0.35126747768E+03 -0.88839621985E+03  0.17070735403E+04  0.21746808401E+04  0.95000000000E+03 0.  0.
   -2000013    1    1    2    0    0  0.35126747768E+03  0.88839621985E+03  0.92440984947E+03  0.16339125601E+04  0.95000000000E+03 0.  0.
<mgrwt>
<rscale>  0 0.27533033E+04</rscale>
<asrwt>0</asrwt>
<pdfrwt beam="2">  1        2 0.90546926E-01 0.27533033E+04</pdfrwt>
<pdfrwt beam="1">  1       -2 0.49539051E+00 0.27533033E+04</pdfrwt>
<totfact> 0.77876635E-02</totfact>
</mgrwt>
</event>
<event>
 4    1  0.1308745E-008  0.2423305E+04  0.7816531E-02  0.8430830E-01
          2   -1    0    0  501    0  0.00000000000E+00  0.00000000000E+00  0.30477671649E+04  0.30477671649E+04  0.00000000000E+00 0.  1.
         -2   -1    0    0    0  501 -0.00000000000E+00 -0.00000000000E+00 -0.48169759661E+03  0.48169759661E+03  0.00000000000E+00 0. -1.
    2000013    1    1    2    0    0  0.11631077288E+03  0.74279654116E+03  0.12566883856E+04  0.17455774391E+04  0.95000000000E+03 0.  0.
   -2000013    1    1    2    0    0 -0.11631077288E+03 -0.74279654116E+03  0.13093811827E+04  0.17838873224E+04  0.95000000000E+03 0.  0.
<mgrwt>
<rscale>  0 0.24233053E+04</rscale>
<asrwt>0</asrwt>
<pdfrwt beam="1">  1        2 0.46888724E+00 0.24233053E+04</pdfrwt>
<pdfrwt beam="2">  1       -2 0.74107325E-01 0.24233053E+04</pdfrwt>
<totfact> 0.23920159E+00</totfact>
</mgrwt>
</event>
<event>
 4    1  0.1308745E-008  0.2691494E+04  0.7816531E-02  0.8337770E-01
         -2   -1    0    0    0  501 -0.00000000000E+00  0.00000000000E+00  0.71799053361E+03  0.71799053361E+03  0.00000000000E+00 0. -1.
          2   -1    0    0  501    0  0.00000000000E+00 -0.00000000000E+00 -0.25223662122E+04  0.25223662122E+04  0.00000000000E+00 0.  1.
    2000013    1    1    2    0    0  0.79351182290E+03  0.40098901621E+03 -0.48848262831E+03  0.13898087935E+04  0.95000000000E+03 0.  0.
   -2000013    1    1    2    0    0 -0.79351182290E+03 -0.40098901621E+03 -0.13158930503E+04  0.18505479524E+04  0.95000000000E+03 0.  0.
<mgrwt>
<rscale>  0 0.26914941E+04</rscale>
<asrwt>0</asrwt>
<pdfrwt beam="2">  1        2 0.38805634E+00 0.26914941E+04</pdfrwt>
<pdfrwt beam="1">  1       -2 0.11046008E+00 0.26914941E+04</pdfrwt>
<totfact> 0.19286209E+00</totfact>
</mgrwt>
</event>
<event>
 4    1  0.1308745E-008  0.3372875E+04  0.7816531E-02  0.8144596E-01
          2   -1    0    0  501    0  0.00000000000E+00  0.00000000000E+00  0.11676365202E+04  0.11676365202E+04  0.00000000000E+00 0.  1.
         -2   -1    0    0    0  501 -0.00000000000E+00 -0.00000000000E+00 -0.24357508238E+04  0.24357508238E+04  0.00000000000E+00 0. -1.
    2000013    1    1    2    0    0  0.11101103954E+04  0.83986929851E+03 -0.70031239762E+03  0.18250104062E+04  0.95000000000E+03 0.  0.
   -2000013    1    1    2    0    0 -0.11101103954E+04 -0.83986929851E+03 -0.56780190598E+03  0.17783769378E+04  0.95000000000E+03 0.  0.
<mgrwt>
<rscale>  0 0.33728751E+04</rscale>
<asrwt>0</asrwt>
<pdfrwt beam="1">  1        2 0.17963639E+00 0.33728751E+04</pdfrwt>
<pdfrwt beam="2">  1       -2 0.37473089E+00 0.33728751E+04</pdfrwt>
<totfact> 0.17793917E-01</totfact>
</mgrwt>
</event>
<event>
 4    1  0.1308745E-008  0.2630648E+04  0.7816531E-02  0.8357865E-01
         -2   -1    0    0    0  501 -0.00000000000E+00  0.00000000000E+00  0.96186673011E+03  0.96186673011E+03  0.00000000000E+00 0. -1.
          2   -1    0    0  501    0  0.00000000000E+00 -0.00000000000E+00 -0.17986667585E+04  0.17986667585E+04  0.00000000000E+00 0.  1.
    2000013    1    1    2    0    0 -0.12653531360E+03  0.74711672243E+03  0.10982512683E+03  0.12201459507E+04  0.95000000000E+03 0.  0.
   -2000013    1    1    2    0    0  0.12653531360E+03 -0.74711672243E+03 -0.94662515525E+03  0.15403875380E+04  0.95000000000E+03 0.  0.
<mgrwt>
<rscale>  0 0.26306484E+04</rscale>
<asrwt>0</asrwt>
<pdfrwt beam="2">  1        2 0.27671796E+00 0.26306484E+04</pdfrwt>
<pdfrwt beam="1">  1       -2 0.14797950E+00 0.26306484E+04</pdfrwt>
<totfact> 0.23688951E+00</totfact>
</mgrwt>
</event>
<event>
 4    1  0.1308745E-008  0.2221635E+04  0.7816531E-02  0.8509477E-01
         -2   -1    0    0    0  501 -0.00000000000E+00  0.00000000000E+00  0.49284771639E+03  0.49284771639E+03  0.00000000000E+00 0. -1.
          2   -1    0    0  501    0  0.00000000000E+00 -0.00000000000E+00 -0.25036451541E+04  0.25036451541E+04  0.00000000000E+00 0.  1.
    2000013    1    1    2    0    0  0.42786631068E+03  0.37985239307E+03 -0.91947428895E+03  0.14405868208E+04  0.95000000000E+03 0.  0.
   -2000013    1    1    2    0    0 -0.42786631068E+03 -0.37985239307E+03 -0.10913231488E+04  0.15559060497E+04  0.95000000000E+03 0.  0.
<mgrwt>
<rscale>  0 0.22216353E+04</rscale>
<asrwt>0</asrwt>
<pdfrwt beam="2">  1        2 0.38517618E+00 0.22216353E+04</pdfrwt>
<pdfrwt beam="1">  1       -2 0.75822726E-01 0.22216353E+04</pdfrwt>
<totfact> 0.49266303E+00</totfact>
</mgrwt>
</event>
<event>
 4    1  0.1308745E-008  0.2539264E+04  0.7816531E-02  0.8389129E-01
          2   -1    0    0  501    0  0.00000000000E+00  0.00000000000E+00  0.72228892289E+03  0.72228892289E+03  0.00000000000E+00 0.  1.
         -2   -1    0    0    0  501 -0.00000000000E+00 -0.00000000000E+00 -0.22317463784E+04  0.22317463784E+04  0.00000000000E+00 0. -1.
    2000013    1    1    2    0    0  0.30301677549E+03 -0.68627484687E+03 -0.30919211026E+03  0.12493566715E+04  0.95000000000E+03 0.  0.
   -2000013    1    1    2    0    0 -0.30301677549E+03  0.68627484687E+03 -0.12002653453E+04  0.17046786297E+04  0.95000000000E+03 0.  0.
<mgrwt>
<rscale>  0 0.25392642E+04</rscale>
<asrwt>0</asrwt>
<pdfrwt beam="1">  1        2 0.11112137E+00 0.25392642E+04</pdfrwt>
<pdfrwt beam="2">  1       -2 0.34334560E+00 0.25392642E+04</pdfrwt>
<totfact> 0.59984593E-01</totfact>
</mgrwt>
</event>
<event>
 4    1  0.1308745E-008  0.2796651E+04  0.7816531E-02  0.8304309E-01
          1   -1    0    0  501    0  0.00000000000E+00  0.00000000000E+00  0.10867910060E+04  0.10867910060E+04  0.00000000000E+00 0.  1.
         -1   -1    0    0    0  501 -0.00000000000E+00 -0.00000000000E+00 -0.17991629936E+04  0.17991629936E+04  0.00000000000E+00 0. -1.
    2000013    1    1    2    0    0 -0.98132308734E+03 -0.29922296129E+03 -0.33877177899E+03  0.14386784563E+04  0.95000000000E+03 0.  0.
   -2000013    1    1    2    0    0  0.98132308734E+03  0.29922296129E+03 -0.37360020859E+03  0.14472755433E+04  0.95000000000E+03 0.  0.
<mgrwt>
<rscale>  0 0.27966510E+04</rscale>
<asrwt>0</asrwt>
<pdfrwt beam="1">  1        1 0.16719862E+00 0.27966510E+04</pdfrwt>
<pdfrwt beam="2">  1       -1 0.27679430E+00 0.27966510E+04</pdfrwt>
<totfact> 0.52447237E-01</totfact>
</mgrwt>
</event>
<event>
 4    1  0.1308745E-008  0.2507475E+04  0.7816531E-02  0.8400327E-01
         -2   -1    0    0    0  501 -0.00000000000E+00  0.00000000000E+00  0.15001442768E+04  0.15001442768E+04  0.00000000000E+00 0. -1.
          2   -1    0    0  501    0  0.00000000000E+00 -0.00000000000E+00 -0.10478047259E+04  0.10478047259E+04  0.00000000000E+00 0.  1.
    2000013    1    1    2    0    0  0.11677703360E+03 -0.60037708721E+03  0.77832702700E+03  0.13719994473E+04  0.95000000000E+03 0.  0.
   -2000013    1    1    2    0    0 -0.11677703360E+03  0.60037708721E+03 -0.32598747608E+03  0.11759495555E+04  0.95000000000E+03 0.  0.
<mgrwt>
<rscale>  0 0.25074754E+04</rscale>
<asrwt>0</asrwt>
<pdfrwt beam="2">  1        2 0.16120073E+00 0.25074754E+04</pdfrwt>
<pdfrwt beam="1">  1       -2 0.23079143E+00 0.25074754E+04</pdfrwt>
<totfact> 0.17690548E+00</totfact>
</mgrwt>
</event>
<event>
 4    1  0.1308745E-008  0.2766564E+04  0.7816531E-02  0.8313725E-01
         -1   -1    0    0    0  501 -0.00000000000E+00  0.00000000000E+00  0.16062109793E+04  0.16062109793E+04  0.00000000000E+00 0.  1.
          1   -1    0    0  501    0  0.00000000000E+00 -0.00000000000E+00 -0.11912940803E+04  0.11912940803E+04  0.00000000000E+00 0. -1.
    2000013    1    1    2    0    0 -0.53591499699E+03  0.74713530779E+03  0.61889169865E+03  0.14597749781E+04  0.95000000000E+03 0.  0.
   -2000013    1    1    2    0    0  0.53591499699E+03 -0.74713530779E+03 -0.20397479964E+03  0.13377300815E+04  0.95000000000E+03 0.  0.
<mgrwt>
<rscale>  0 0.27665644E+04</rscale>
<asrwt>0</asrwt>
<pdfrwt beam="2">  1        1 0.18327601E+00 0.27665644E+04</pdfrwt>
<pdfrwt beam="1">  1       -1 0.24710938E+00 0.27665644E+04</pdfrwt>
<totfact> 0.68557622E-01</totfact>
</mgrwt>
</event>
<event>
 4    1  0.1308745E-008  0.3168254E+04  0.7816531E-02  0.8197252E-01
          2   -1    0    0  501    0  0.00000000000E+00  0.00000000000E+00  0.29957254496E+04  0.29957254496E+04  0.00000000000E+00 0.  1.
         -2   -1    0    0    0  501 -0.00000000000E+00 -0.00000000000E+00 -0.83767954264E+03  0.83767954264E+03  0.00000000000E+00 0. -1.
    2000013    1    1    2    0    0  0.47983686584E+03 -0.65339668657E+03  0.22581970303E+04  0.25805279451E+04  0.95000000000E+03 0.  0.
   -2000013    1    1    2    0    0 -0.47983686584E+03  0.65339668657E+03 -0.10015112331E+03  0.12528770472E+04  0.95000000000E+03 0.  0.
<mgrwt>
<rscale>  0 0.31682537E+04</rscale>
<asrwt>0</asrwt>
<pdfrwt beam="1">  1        2 0.46088083E+00 0.31682537E+04</pdfrwt>
<pdfrwt beam="2">  1       -2 0.12887378E+00 0.31682537E+04</pdfrwt>
<totfact> 0.65622493E-01</totfact>
</mgrwt>
</event>
<event>
 4    1  0.1308745E-008  0.1942019E+04  0.7816531E-02  0.8634219E-01
         -2   -1    0    0    0  501 -0.00000000000E+00  0.00000000000E+00  0.39865885036E+03  0.39865885036E+03  0.00000000000E+00 0. -1.
          2   -1    0    0  501    0  0.00000000000E+00 -0.00000000000E+00 -0.23650791858E+04  0.23650791858E+04  0.00000000000E+00 0.  1.
    2000013    1    1    2    0    0 -0.11702257651E+03  0.16328507165E+03 -0.98585395621E+03  0.13837500934E+04  0.95000000000E+03 0.  0.
   -2000013    1    1    2    0    0  0.11702257651E+03 -0.16328507165E+03 -0.98056637923E+03  0.13799879427E+04  0.95000000000E+03 0.  0.
<mgrwt>
<rscale>  0 0.19420193E+04</rscale>
<asrwt>0</asrwt>
<pdfrwt beam="2">  1        2 0.36385833E+00 0.19420193E+04</pdfrwt>
<pdfrwt beam="1">  1       -2 0.61332131E-01 0.19420193E+04</pdfrwt>
<totfact> 0.96088089E+00</totfact>
</mgrwt>
</event>
<event>
 4    1  0.1308745E-008  0.3422604E+04  0.7816531E-02  0.8132381E-01
          2   -1    0    0  501    0  0.00000000000E+00  0.00000000000E+00  0.15998914661E+04  0.15998914661E+04  0.00000000000E+00 0.  1.
         -2   -1    0    0    0  501 -0.00000000000E+00 -0.00000000000E+00 -0.18304710099E+04  0.18304710099E+04  0.00000000000E+00 0. -1.
    2000013    1    1    2    0    0  0.13442449434E+04  0.35132377250E+03 -0.42523513601E+03  0.17360149141E+04  0.95000000000E+03 0.  0.
   -2000013    1    1    2    0    0 -0.13442449434E+04 -0.35132377250E+03  0.19465559227E+03  0.16943475619E+04  0.95000000000E+03 0.  0.
<mgrwt>
<rscale>  0 0.34226042E+04</rscale>
<asrwt>0</asrwt>
<pdfrwt beam="1">  1        2 0.24613715E+00 0.34226042E+04</pdfrwt>
<pdfrwt beam="2">  1       -2 0.28161093E+00 0.34226042E+04</pdfrwt>
<totfact> 0.37969930E-01</totfact>
</mgrwt>
</event>
<event>
 4    1  0.1308745E-008  0.2418192E+04  0.7816531E-02  0.8432724E-01
          1   -1    0    0  501    0  0.00000000000E+00  0.00000000000E+00  0.11958037358E+04  0.11958037358E+04  0.00000000000E+00 0.  1.
         -1   -1    0    0    0  501 -0.00000000000E+00 -0.00000000000E+00 -0.12225357752E+04  0.12225357752E+04  0.00000000000E+00 0. -1.
    2000013    1    1    2    0    0  0.28200313881E+03 -0.53229485272E+03  0.42999984006E+03  0.12042688417E+04  0.95000000000E+03 0.  0.
   -2000013    1    1    2    0    0 -0.28200313881E+03  0.53229485272E+03 -0.45673187949E+03  0.12140706694E+04  0.95000000000E+03 0.  0.
<mgrwt>
<rscale>  0 0.24181918E+04</rscale>
<asrwt>0</asrwt>
<pdfrwt beam="1">  1        1 0.18396981E+00 0.24181918E+04</pdfrwt>
<pdfrwt beam="2">  1       -1 0.18808243E+00 0.24181918E+04</pdfrwt>
<totfact> 0.17551408E+00</totfact>
</mgrwt>
</event>
<event>
 4    1  0.1308745E-008  0.2127834E+04  0.7816531E-02  0.8549080E-01
         -2   -1    0    0    0  501 -0.00000000000E+00  0.00000000000E+00  0.31885669788E+03  0.31885669788E+03  0.00000000000E+00 0. -1.
          2   -1    0    0  501    0  0.00000000000E+00 -0.00000000000E+00 -0.35499320458E+04  0.35499320458E+04  0.00000000000E+00 0.  1.
    2000013    1    1    2    0    0 -0.17063520102E+03 -0.44744946313E+03 -0.15980778370E+04  0.19198125344E+04  0.95000000000E+03 0.  0.
   -2000013    1    1    2    0    0  0.17063520102E+03  0.44744946313E+03 -0.16329975109E+04  0.19489762093E+04  0.95000000000E+03 0.  0.
<mgrwt>
<rscale>  0 0.21278342E+04</rscale>
<asrwt>0</asrwt>
<pdfrwt beam="2">  1        2 0.54614342E+00 0.21278342E+04</pdfrwt>
<pdfrwt beam="1">  1       -2 0.49054874E-01 0.21278342E+04</pdfrwt>
<totfact> 0.27244232E+00</totfact>
</mgrwt>
</event>
<event>
 4    1  0.1308745E-008  0.4368593E+04  0.7816531E-02  0.7934055E-01
         -1   -1    0    0    0  501 -0.00000000000E+00  0.00000000000E+00  0.16378036023E+04  0.16378036023E+04  0.00000000000E+00 0. -1.
          1   -1    0    0  501    0  0.00000000000E+00 -0.00000000000E+00 -0.29131401452E+04  0.29131401452E+04  0.00000000000E+00 0.  1.
    2000013    1    1    2    0    0  0.15408817011E+04 -0.98681146384E+03  0.11393065364E+03  0.20648470829E+04  0.95000000000E+03 0.  0.
   -2000013    1    1    2    0    0 -0.15408817011E+04  0.98681146384E+03 -0.13892671966E+04  0.24860966645E+04  0.95000000000E+03 0.  0.
<mgrwt>
<rscale>  0 0.43685931E+04</rscale>
<asrwt>0</asrwt>
<pdfrwt beam="2">  1        1 0.44817541E+00 0.43685931E+04</pdfrwt>
<pdfrwt beam="1">  1       -1 0.25196978E+00 0.43685931E+04</pdfrwt>
<totfact> 0.35524844E-02</totfact>
</mgrwt>
</event>
<event>
 4    1  0.1308745E-008  0.2309445E+04  0.7816531E-02  0.8474206E-01
         -2   -1    0    0    0  501 -0.00000000000E+00  0.00000000000E+00  0.90798075141E+03  0.90798075141E+03  0.00000000000E+00 0. -1.
          2   -1    0    0  501    0  0.00000000000E+00 -0.00000000000E+00 -0.14685159726E+04  0.14685159726E+04  0.00000000000E+00 0.  1.
    2000013    1    1    2    0    0 -0.62541246107E+03 -0.16052646525E+03 -0.15862058546E+03  0.11595559420E+04  0.95000000000E+03 0.  0.
   -2000013    1    1    2    0    0  0.62541246107E+03  0.16052646525E+03 -0.40191463574E+03  0.12169407820E+04  0.95000000000E+03 0.  0.
<mgrwt>
<rscale>  0 0.23094452E+04</rscale>
<asrwt>0</asrwt>
<pdfrwt beam="2">  1        2 0.22592553E+00 0.23094452E+04</pdfrwt>
<pdfrwt beam="1">  1       -2 0.13968935E+00 0.23094452E+04</pdfrwt>
<totfact> 0.43289700E+00</totfact>
</mgrwt>
</event>
<event>
 4    1  0.1308745E-008  0.2053985E+04  0.7816531E-02  0.8581789E-01
          2   -1    0    0  501    0  0.00000000000E+00  0.00000000000E+00  0.24449708334E+04  0.24449708334E+04  0.00000000000E+00 0.  1.
         -2   -1    0    0    0  501 -0.00000000000E+00 -0.00000000000E+00 -0.43138095328E+03  0.43138095328E+03  0.00000000000E+00 0. -1.
    2000013    1    1    2    0    0  0.93160931032E+02 -0.32445477109E+03  0.12807250773E+04  0.16299406680E+04  0.95000000000E+03 0.  0.
   -2000013    1    1    2    0    0 -0.93160931032E+02  0.32445477109E+03  0.73286480280E+03  0.12464111187E+04  0.95000000000E+03 0.  0.
<mgrwt>
<rscale>  0 0.20539852E+04</rscale>
<asrwt>0</asrwt>
<pdfrwt beam="1">  1        2 0.37614935E+00 0.20539852E+04</pdfrwt>
<pdfrwt beam="2">  1       -2 0.66366302E-01 0.20539852E+04</pdfrwt>
<totfact> 0.72344930E+00</totfact>
</mgrwt>
</event>
<event>
 4    1  0.1308745E-008  0.2603735E+04  0.7816531E-02  0.8366933E-01
         -2   -1    0    0    0  501 -0.00000000000E+00  0.00000000000E+00  0.12248821238E+04  0.12248821238E+04  0.00000000000E+00 0. -1.
          2   -1    0    0  501    0  0.00000000000E+00 -0.00000000000E+00 -0.13836920084E+04  0.13836920084E+04  0.00000000000E+00 0.  1.
    2000013    1    1    2    0    0  0.75129620200E+03 -0.16261331484E+03 -0.52909376229E+03  0.13316641028E+04  0.95000000000E+03 0.  0.
   -2000013    1    1    2    0    0 -0.75129620200E+03  0.16261331484E+03  0.37028387766E+03  0.12769100295E+04  0.95000000000E+03 0.  0.
<mgrwt>
<rscale>  0 0.26037355E+04</rscale>
<asrwt>0</asrwt>
<pdfrwt beam="2">  1        2 0.21287569E+00 0.26037355E+04</pdfrwt>
<pdfrwt beam="1">  1       -2 0.18844340E+00 0.26037355E+04</pdfrwt>
<totfact> 0.20763037E+00</totfact>
</mgrwt>
</event>
<event>
 4    1  0.1308745E-008  0.3277392E+04  0.7816531E-02  0.8168672E-01
          2   -1    0    0  501    0  0.00000000000E+00  0.00000000000E+00  0.35728027639E+04  0.35728027639E+04  0.00000000000E+00 0.  1.
         -2   -1    0    0    0  501 -0.00000000000E+00 -0.00000000000E+00 -0.75160151718E+03  0.75160151718E+03  0.00000000000E+00 0. -1.
    2000013    1    1    2    0    0  0.88738003885E+03 -0.98515456020E+03  0.12025969137E+04  0.20265024495E+04  0.95000000000E+03 0.  0.
   -2000013    1    1    2    0    0 -0.88738003885E+03  0.98515456020E+03  0.16186043330E+04  0.22979018316E+04  0.95000000000E+03 0.  0.
<mgrwt>
<rscale>  0 0.32773916E+04</rscale>
<asrwt>0</asrwt>
<pdfrwt beam="1">  1        2 0.54966195E+00 0.32773916E+04</pdfrwt>
<pdfrwt beam="2">  1       -2 0.11563100E+00 0.32773916E+04</pdfrwt>
<totfact> 0.35100796E-01</totfact>
</mgrwt>
</event>
<event>
 4    1  0.1308745E-008  0.2109191E+04  0.7816531E-02  0.8557205E-01
         -2   -1    0    0    0  501 -0.00000000000E+00  0.00000000000E+00  0.52298319130E+03  0.52298319130E+03  0.00000000000E+00 0. -1.
          2   -1    0    0  501    0  0.00000000000E+00 -0.00000000000E+00 -0.21265923955E+04  0.21265923955E+04  0.00000000000E+00 0.  1.
    2000013    1    1    2    0    0  0.17968126991E+03  0.33607456314E+03 -0.48291516419E+03  0.11317855479E+04  0.95000000000E+03 0.  0.
   -2000013    1    1    2    0    0 -0.17968126991E+03 -0.33607456314E+03 -0.11206940401E+04  0.15177900389E+04  0.95000000000E+03 0.  0.
<mgrwt>
<rscale>  0 0.21091914E+04</rscale>
<asrwt>0</asrwt>
<pdfrwt beam="2">  1        2 0.32716806E+00 0.21091914E+04</pdfrwt>
<pdfrwt beam="1">  1       -2 0.80458954E-01 0.21091914E+04</pdfrwt>
<totfact> 0.71342600E+00</totfact>
</mgrwt>
</event>
<event>
 4    1  0.1308745E-008  0.2323391E+04  0.7816531E-02  0.8468755E-01
         -3   -1    0    0    0  501 -0.00000000000E+00  0.00000000000E+00  0.11082080391E+04  0.11082080391E+04  0.00000000000E+00 0. -1.
          3   -1    0    0  501    0  0.00000000000E+00 -0.00000000000E+00 -0.12177647130E+04  0.12177647130E+04  0.00000000000E+00 0.  1.
    2000013    1    1    2    0    0 -0.48536508526E+03 -0.37162230142E+03 -0.32591915910E+03  0.11757575002E+04  0.95000000000E+03 0.  0.
   -2000013    1    1    2    0    0  0.48536508526E+03  0.37162230142E+03  0.21636248519E+03  0.11502152520E+04  0.95000000000E+03 0.  0.
<mgrwt>
<rscale>  0 0.23233912E+04</rscale>
<asrwt>0</asrwt>
<pdfrwt beam="2">  1        3 0.18734842E+00 0.23233912E+04</pdfrwt>
<pdfrwt beam="1">  1       -3 0.17049354E+00 0.23233912E+04</pdfrwt>
<totfact> 0.96150523E-02</totfact>
</mgrwt>
</event>
<event>
 4    1  0.1308745E-008  0.2699122E+04  0.7816531E-02  0.8335290E-01
          2   -1    0    0  501    0  0.00000000000E+00  0.00000000000E+00  0.21651582924E+04  0.21651582924E+04  0.00000000000E+00 0.  1.
         -2   -1    0    0    0  501 -0.00000000000E+00 -0.00000000000E+00 -0.84119261125E+03  0.84119261125E+03  0.00000000000E+00 0. -1.
    2000013    1    1    2    0    0 -0.79603564083E+03  0.10075951366E+03  0.77898551903E+02  0.12459508038E+04  0.95000000000E+03 0.  0.
   -2000013    1    1    2    0    0  0.79603564083E+03 -0.10075951366E+03  0.12460671293E+04  0.17604000999E+04  0.95000000000E+03 0.  0.
<mgrwt>
<rscale>  0 0.26991222E+04</rscale>
<asrwt>0</asrwt>
<pdfrwt beam="1">  1        2 0.33310127E+00 0.26991222E+04</pdfrwt>
<pdfrwt beam="2">  1       -2 0.12941425E+00 0.26991222E+04</pdfrwt>
<totfact> 0.20819744E+00</totfact>
</mgrwt>
</event>
<event>
 4    1  0.1308745E-008  0.2540898E+04  0.7816531E-02  0.8388559E-01
          2   -1    0    0  501    0  0.00000000000E+00  0.00000000000E+00  0.28633213596E+04  0.28633213596E+04  0.00000000000E+00 0.  1.
         -2   -1    0    0    0  501 -0.00000000000E+00 -0.00000000000E+00 -0.56369517032E+03  0.56369517032E+03  0.00000000000E+00 0. -1.
    2000013    1    1    2    0    0 -0.37236750498E+02  0.82666359110E+03  0.13705340847E+04  0.18616183673E+04  0.95000000000E+03 0.  0.
   -2000013    1    1    2    0    0  0.37236750498E+02 -0.82666359110E+03  0.92909210458E+03  0.15653981625E+04  0.95000000000E+03 0.  0.
<mgrwt>
<rscale>  0 0.25408978E+04</rscale>
<asrwt>0</asrwt>
<pdfrwt beam="1">  1        2 0.44051097E+00 0.25408978E+04</pdfrwt>
<pdfrwt beam="2">  1       -2 0.86722336E-01 0.25408978E+04</pdfrwt>
<totfact> 0.21646011E+00</totfact>
</mgrwt>
</event>
<event>
 4    1  0.1308745E-008  0.2579840E+04  0.7816531E-02  0.8375081E-01
          2   -1    0    0  501    0  0.00000000000E+00  0.00000000000E+00  0.34116784166E+04  0.34116784166E+04  0.00000000000E+00 0.  1.
         -2   -1    0    0    0  501 -0.00000000000E+00 -0.00000000000E+00 -0.48770542907E+03  0.48770542907E+03  0.00000000000E+00 0. -1.
    2000013    1    1    2    0    0 -0.11498024307E+03  0.85920645011E+03  0.13113082353E+04  0.18367050575E+04  0.95000000000E+03 0.  0.
   -2000013    1    1    2    0    0  0.11498024307E+03 -0.85920645011E+03  0.16126647522E+04  0.20626787882E+04  0.95000000000E+03 0.  0.
<mgrwt>
<rscale>  0 0.25798404E+04</rscale>
<asrwt>0</asrwt>
<pdfrwt beam="1">  1        2 0.52487359E+00 0.25798404E+04</pdfrwt>
<pdfrwt beam="2">  1       -2 0.75031607E-01 0.25798404E+04</pdfrwt>
<totfact> 0.13238732E+00</totfact>
</mgrwt>
</event>
<event>
 4    1  0.1308745E-008  0.3107205E+04  0.7816531E-02  0.8213763E-01
          1   -1    0    0  501    0  0.00000000000E+00  0.00000000000E+00  0.35577468475E+04  0.35577468475E+04  0.00000000000E+00 0.  1.
         -1   -1    0    0    0  501 -0.00000000000E+00 -0.00000000000E+00 -0.67842962251E+03  0.67842962251E+03  0.00000000000E+00 0. -1.
    2000013    1    1    2    0    0 -0.92026464704E+03  0.80676552421E+03  0.15976132802E+04  0.22254495781E+04  0.95000000000E+03 0.  0.
   -2000013    1    1    2    0    0  0.92026464704E+03 -0.80676552421E+03  0.12817039448E+04  0.20107268919E+04  0.95000000000E+03 0.  0.
<mgrwt>
<rscale>  0 0.31072051E+04</rscale>
<asrwt>0</asrwt>
<pdfrwt beam="1">  1        1 0.54734566E+00 0.31072051E+04</pdfrwt>
<pdfrwt beam="2">  1       -1 0.10437379E+00 0.31072051E+04</pdfrwt>
<totfact> 0.16353375E-01</totfact>
</mgrwt>
</event>
<event>
 4    1  0.1308745E-008  0.2331139E+04  0.7816531E-02  0.8465744E-01
         -1   -1    0    0    0  501 -0.00000000000E+00  0.00000000000E+00  0.97114592678E+03  0.97114592678E+03  0.00000000000E+00 0. -1.
          1   -1    0    0  501    0  0.00000000000E+00 -0.00000000000E+00 -0.13989169220E+04  0.13989169220E+04  0.00000000000E+00 0.  1.
    2000013    1    1    2    0    0 -0.45306791133E+03  0.12788254548E+03  0.27837659485E+03  0.10961833817E+04  0.95000000000E+03 0.  0.
   -2000013    1    1    2    0    0  0.45306791133E+03 -0.12788254548E+03 -0.70614759006E+03  0.12738794671E+04  0.95000000000E+03 0.  0.
<mgrwt>
<rscale>  0 0.23311392E+04</rscale>
<asrwt>0</asrwt>
<pdfrwt beam="2">  1        1 0.21521799E+00 0.23311392E+04</pdfrwt>
<pdfrwt beam="1">  1       -1 0.14940707E+00 0.23311392E+04</pdfrwt>
<totfact> 0.24468057E+00</totfact>
</mgrwt>
</event>
<event>
 4    1  0.1308745E-008  0.2211603E+04  0.7816531E-02  0.8513614E-01
         -2   -1    0    0    0  501 -0.00000000000E+00  0.00000000000E+00  0.68874395731E+03  0.68874395731E+03  0.00000000000E+00 0. -1.
          2   -1    0    0  501    0  0.00000000000E+00 -0.00000000000E+00 -0.17754016072E+04  0.17754016072E+04  0.00000000000E+00 0.  1.
    2000013    1    1    2    0    0 -0.51692124867E+03  0.22550218897E+03 -0.59604206184E+03  0.12553186663E+04  0.95000000000E+03 0.  0.
   -2000013    1    1    2    0    0  0.51692124867E+03 -0.22550218897E+03 -0.49061558809E+03  0.12088268982E+04  0.95000000000E+03 0.  0.
<mgrwt>
<rscale>  0 0.22116032E+04</rscale>
<asrwt>0</asrwt>
<pdfrwt beam="2">  1        2 0.27313871E+00 0.22116032E+04</pdfrwt>
<pdfrwt beam="1">  1       -2 0.10596061E+00 0.22116032E+04</pdfrwt>
<totfact> 0.58479363E+00</totfact>
</mgrwt>
</event>
<event>
 4    1  0.1308745E-008  0.2143748E+04  0.7816531E-02  0.8542213E-01
          2   -1    0    0  501    0  0.00000000000E+00  0.00000000000E+00  0.12290505775E+04  0.12290505775E+04  0.00000000000E+00 0.  1.
         -2   -1    0    0    0  501 -0.00000000000E+00 -0.00000000000E+00 -0.93479774006E+03  0.93479774006E+03  0.00000000000E+00 0. -1.
    2000013    1    1    2    0    0 -0.47079858217E+03  0.14799182933E+03  0.93138316915E+02  0.10745825388E+04  0.95000000000E+03 0.  0.
   -2000013    1    1    2    0    0  0.47079858217E+03 -0.14799182933E+03  0.20111452053E+03  0.10892657788E+04  0.95000000000E+03 0.  0.
<mgrwt>
<rscale>  0 0.21437478E+04</rscale>
<asrwt>0</asrwt>
<pdfrwt beam="1">  1        2 0.18908470E+00 0.21437478E+04</pdfrwt>
<pdfrwt beam="2">  1       -2 0.14381504E+00 0.21437478E+04</pdfrwt>
<totfact> 0.55962413E+00</totfact>
</mgrwt>
</event>
<event>
 4    1  0.1308745E-008  0.2588994E+04  0.7816531E-02  0.8371949E-01
         -2   -1    0    0    0  501 -0.00000000000E+00  0.00000000000E+00  0.74111273614E+03  0.74111273614E+03  0.00000000000E+00 0. -1.
          2   -1    0    0  501    0  0.00000000000E+00 -0.00000000000E+00 -0.22610896885E+04  0.22610896885E+04  0.00000000000E+00 0.  1.
    2000013    1    1    2    0    0 -0.22708427697E+03 -0.78467400573E+03 -0.38255308571E+03  0.13100104685E+04  0.95000000000E+03 0.  0.
   -2000013    1    1    2    0    0  0.22708427697E+03  0.78467400573E+03 -0.11374238667E+04  0.16921919562E+04  0.95000000000E+03 0.  0.
<mgrwt>
<rscale>  0 0.25889939E+04</rscale>
<asrwt>0</asrwt>
<pdfrwt beam="2">  1        2 0.34785995E+00 0.25889939E+04</pdfrwt>
<pdfrwt beam="1">  1       -2 0.11401734E+00 0.25889939E+04</pdfrwt>
<totfact> 0.25424607E+00</totfact>
</mgrwt>
</event>
<event>
 4    1  0.1308745E-008  0.2879783E+04  0.7816531E-02  0.8278918E-01
         -2   -1    0    0    0  501 -0.00000000000E+00  0.00000000000E+00  0.20375769037E+04  0.20375769037E+04  0.00000000000E+00 0. -1.
          2   -1    0    0  501    0  0.00000000000E+00 -0.00000000000E+00 -0.10175261304E+04  0.10175261304E+04  0.00000000000E+00 0.  1.
    2000013    1    1    2    0    0  0.72421306799E+03  0.53708740765E+03  0.11446409156E+04  0.17394396445E+04  0.95000000000E+03 0.  0.
   -2000013    1    1    2    0    0 -0.72421306799E+03 -0.53708740765E+03 -0.12459014228E+03  0.13156633897E+04  0.95000000000E+03 0.  0.
<mgrwt>
<rscale>  0 0.28797831E+04</rscale>
<asrwt>0</asrwt>
<pdfrwt beam="2">  1        2 0.15654248E+00 0.28797831E+04</pdfrwt>
<pdfrwt beam="1">  1       -2 0.31347337E+00 0.28797831E+04</pdfrwt>
<totfact> 0.55739530E-01</totfact>
</mgrwt>
</event>
<event>
 4    1  0.1308745E-008  0.3708599E+04  0.7816531E-02  0.8066059E-01
          2   -1    0    0  501    0  0.00000000000E+00  0.00000000000E+00  0.34314978156E+04  0.34314978156E+04  0.00000000000E+00 0.  1.
         -2   -1    0    0    0  501 -0.00000000000E+00 -0.00000000000E+00 -0.10020191360E+04  0.10020191360E+04  0.00000000000E+00 0. -1.
    2000013    1    1    2    0    0 -0.14565370869E+04  0.64333345850E+03  0.12427309963E+04  0.22320973441E+04  0.95000000000E+03 0.  0.
   -2000013    1    1    2    0    0  0.14565370869E+04 -0.64333345850E+03  0.11867476833E+04  0.22014196075E+04  0.95000000000E+03 0.  0.
<mgrwt>
<rscale>  0 0.37085989E+04</rscale>
<asrwt>0</asrwt>
<pdfrwt beam="1">  1        2 0.52792274E+00 0.37085989E+04</pdfrwt>
<pdfrwt beam="2">  1       -2 0.15415679E+00 0.37085989E+04</pdfrwt>
<totfact> 0.20381386E-01</totfact>
</mgrwt>
</event>
<event>
 4    1  0.1308745E-008  0.3386058E+04  0.7816531E-02  0.8141337E-01
          2   -1    0    0  501    0  0.00000000000E+00  0.00000000000E+00  0.17649022795E+04  0.17649022795E+04  0.00000000000E+00 0.  1.
         -2   -1    0    0    0  501 -0.00000000000E+00 -0.00000000000E+00 -0.16240829589E+04  0.16240829589E+04  0.00000000000E+00 0. -1.
    2000013    1    1    2    0    0 -0.69354172568E+03  0.11950492691E+04  0.30450248511E+03  0.17042196585E+04  0.95000000000E+03 0.  0.
   -2000013    1    1    2    0    0  0.69354172568E+03 -0.11950492691E+04 -0.16368316448E+03  0.16847655799E+04  0.95000000000E+03 0.  0.
<mgrwt>
<rscale>  0 0.33860583E+04</rscale>
<asrwt>0</asrwt>
<pdfrwt beam="1">  1        2 0.27152343E+00 0.33860583E+04</pdfrwt>
<pdfrwt beam="2">  1       -2 0.24985892E+00 0.33860583E+04</pdfrwt>
<totfact> 0.48198835E-01</totfact>
</mgrwt>
</event>
<event>
 4    1  0.1308745E-008  0.2487097E+04  0.7816531E-02  0.8407597E-01
          2   -1    0    0  501    0  0.00000000000E+00  0.00000000000E+00  0.10851032496E+04  0.10851032496E+04  0.00000000000E+00 0.  1.
         -2   -1    0    0    0  501 -0.00000000000E+00 -0.00000000000E+00 -0.14251297795E+04  0.14251297795E+04  0.00000000000E+00 0. -1.
    2000013    1    1    2    0    0  0.46827592072E+03  0.64189513220E+03 -0.28331282498E+03  0.12704636380E+04  0.95000000000E+03 0.  0.
   -2000013    1    1    2    0    0 -0.46827592072E+03 -0.64189513220E+03 -0.56713704884E+02  0.12397693911E+04  0.95000000000E+03 0.  0.
<mgrwt>
<rscale>  0 0.24870971E+04</rscale>
<asrwt>0</asrwt>
<pdfrwt beam="1">  1        2 0.16693896E+00 0.24870971E+04</pdfrwt>
<pdfrwt beam="2">  1       -2 0.21925073E+00 0.24870971E+04</pdfrwt>
<totfact> 0.19851344E+00</totfact>
</mgrwt>
</event>
<event>
 4    1  0.1308745E-008  0.3433474E+04  0.7816531E-02  0.8129739E-01
          2   -1    0    0  501    0  0.00000000000E+00  0.00000000000E+00  0.16314456966E+04  0.16314456966E+04  0.00000000000E+00 0.  1.
         -2   -1    0    0    0  501 -0.00000000000E+00 -0.00000000000E+00 -0.18064873426E+04  0.18064873426E+04  0.00000000000E+00 0. -1.
    2000013    1    1    2    0    0 -0.13918275286E+04  0.20477339045E+02  0.24013925140E+03  0.17022837750E+04  0.95000000000E+03 0.  0.
   -2000013    1    1    2    0    0  0.13918275286E+04 -0.20477339045E+02 -0.41518089732E+03  0.17356492642E+04  0.95000000000E+03 0.  0.
<mgrwt>
<rscale>  0 0.34334740E+04</rscale>
<asrwt>0</asrwt>
<pdfrwt beam="1">  1        2 0.25099164E+00 0.34334740E+04</pdfrwt>
<pdfrwt beam="2">  1       -2 0.27792113E+00 0.34334740E+04</pdfrwt>
<totfact> 0.38363752E-01</totfact>
</mgrwt>
</event>
<event>
 4    1  0.1308745E-008  0.3031739E+04  0.7816531E-02  0.8234725E-01
          2   -1    0    0  501    0  0.00000000000E+00  0.00000000000E+00  0.14203722959E+04  0.14203722959E+04  0.00000000000E+00 0.  1.
         -2   -1    0    0    0  501 -0.00000000000E+00 -0.00000000000E+00 -0.16177876031E+04  0.16177876031E+04  0.00000000000E+00 0. -1.
    2000013    1    1    2    0    0  0.16121989794E+03  0.11677656155E+04 -0.17431479538E+03  0.15239927940E+04  0.95000000000E+03 0.  0.
   -2000013    1    1    2    0    0 -0.16121989794E+03 -0.11677656155E+04 -0.23100511790E+02  0.15141671050E+04  0.95000000000E+03 0.  0.
<mgrwt>
<rscale>  0 0.30317392E+04</rscale>
<asrwt>0</asrwt>
<pdfrwt beam="1">  1        2 0.21851882E+00 0.30317392E+04</pdfrwt>
<pdfrwt beam="2">  1       -2 0.24889040E+00 0.30317392E+04</pdfrwt>
<totfact> 0.78519342E-01</totfact>
</mgrwt>
</event>
<event>
 4    1  0.1308745E-008  0.3158372E+04  0.7816531E-02  0.8199898E-01
         -2   -1    0    0    0  501 -0.00000000000E+00  0.00000000000E+00  0.29710214733E+04  0.29710214733E+04  0.00000000000E+00 0. -1.
          2   -1    0    0  501    0  0.00000000000E+00 -0.00000000000E+00 -0.83938396116E+03  0.83938396116E+03  0.00000000000E+00 0.  1.
    2000013    1    1    2    0    0  0.62196471531E+03 -0.10597269235E+04  0.72147078464E+03  0.17125657221E+04  0.95000000000E+03 0.  0.
   -2000013    1    1    2    0    0 -0.62196471531E+03  0.10597269235E+04  0.14101667275E+04  0.20978397124E+04  0.95000000000E+03 0.  0.
<mgrwt>
<rscale>  0 0.31583716E+04</rscale>
<asrwt>0</asrwt>
<pdfrwt beam="2">  1        2 0.12913600E+00 0.31583716E+04</pdfrwt>
<pdfrwt beam="1">  1       -2 0.45708022E+00 0.31583716E+04</pdfrwt>
<totfact> 0.84889925E-02</totfact>
</mgrwt>
</event>
<event>
 4    1  0.1308745E-008  0.2313819E+04  0.7816531E-02  0.8472492E-01
         -2   -1    0    0    0  501 -0.00000000000E+00  0.00000000000E+00  0.88096799210E+03  0.88096799210E+03  0.00000000000E+00 0. -1.
          2   -1    0    0  501    0  0.00000000000E+00 -0.00000000000E+00 -0.15192828021E+04  0.15192828021E+04  0.00000000000E+00 0.  1.
    2000013    1    1    2    0    0 -0.52970151290E+03  0.34715634193E+03 -0.12553494440E+03  0.11486340761E+04  0.95000000000E+03 0.  0.
   -2000013    1    1    2    0    0  0.52970151290E+03 -0.34715634193E+03 -0.51277986563E+03  0.12516167181E+04  0.95000000000E+03 0.  0.
<mgrwt>
<rscale>  0 0.23138189E+04</rscale>
<asrwt>0</asrwt>
<pdfrwt beam="2">  1        2 0.23373581E+00 0.23138189E+04</pdfrwt>
<pdfrwt beam="1">  1       -2 0.13553354E+00 0.23138189E+04</pdfrwt>
<totfact> 0.43791684E+00</totfact>
</mgrwt>
</event>
<event>
 4    1  0.1308745E-008  0.2341029E+04  0.7816531E-02  0.8461917E-01
          2   -1    0    0  501    0  0.00000000000E+00  0.00000000000E+00  0.20518541648E+04  0.20518541648E+04  0.00000000000E+00 0.  1.
         -2   -1    0    0    0  501 -0.00000000000E+00 -0.00000000000E+00 -0.66773941735E+03  0.66773941735E+03  0.00000000000E+00 0. -1.
    2000013    1    1    2    0    0 -0.16523557204E+03  0.50080944468E+03  0.11977557575E+04  0.16171678171E+04  0.95000000000E+03 0.  0.
   -2000013    1    1    2    0    0  0.16523557204E+03 -0.50080944468E+03  0.18635898991E+03  0.11024257650E+04  0.95000000000E+03 0.  0.
<mgrwt>
<rscale>  0 0.23410288E+04</rscale>
<asrwt>0</asrwt>
<pdfrwt beam="1">  1        2 0.31566987E+00 0.23410288E+04</pdfrwt>
<pdfrwt beam="2">  1       -2 0.10272914E+00 0.23410288E+04</pdfrwt>
<totfact> 0.43751964E+00</totfact>
</mgrwt>
</event>
<event>
 4    1  0.1308745E-008  0.2253378E+04  0.7816531E-02  0.8496534E-01
         -2   -1    0    0    0  501 -0.00000000000E+00  0.00000000000E+00  0.84791421187E+03  0.84791421187E+03  0.00000000000E+00 0. -1.
          2   -1    0    0  501    0  0.00000000000E+00 -0.00000000000E+00 -0.14971181676E+04  0.14971181676E+04  0.00000000000E+00 0.  1.
    2000013    1    1    2    0    0  0.12548599616E+03  0.52078744865E+03 -0.61887824136E+03  0.12539842820E+04  0.95000000000E+03 0.  0.
   -2000013    1    1    2    0    0 -0.12548599616E+03 -0.52078744865E+03 -0.30325714322E+02  0.10910480974E+04  0.95000000000E+03 0.  0.
<mgrwt>
<rscale>  0 0.22533777E+04</rscale>
<asrwt>0</asrwt>
<pdfrwt beam="2">  1        2 0.23032587E+00 0.22533777E+04</pdfrwt>
<pdfrwt beam="1">  1       -2 0.13044834E+00 0.22533777E+04</pdfrwt>
<totfact> 0.49931032E+00</totfact>
</mgrwt>
</event>
<event>
 4    1  0.1308745E-008  0.2352133E+04  0.7816531E-02  0.8457645E-01
         -2   -1    0    0    0  501 -0.00000000000E+00  0.00000000000E+00  0.10658473740E+04  0.10658473740E+04  0.00000000000E+00 0. -1.
          2   -1    0    0  501    0  0.00000000000E+00 -0.00000000000E+00 -0.12976829752E+04  0.12976829752E+04  0.00000000000E+00 0.  1.
    2000013    1    1    2    0    0  0.53929618429E+03  0.17598373692E+03  0.28453727647E+03  0.11424850597E+04  0.95000000000E+03 0.  0.
   -2000013    1    1    2    0    0 -0.53929618429E+03 -0.17598373692E+03 -0.51637287765E+03  0.12210452894E+04  0.95000000000E+03 0.  0.
<mgrwt>
<rscale>  0 0.23521326E+04</rscale>
<asrwt>0</asrwt>
<pdfrwt beam="2">  1        2 0.19964353E+00 0.23521326E+04</pdfrwt>
<pdfrwt beam="1">  1       -2 0.16397652E+00 0.23521326E+04</pdfrwt>
<totfact> 0.35261717E+00</totfact>
</mgrwt>
</event>
<event>
 4    1  0.1308745E-008  0.2252985E+04  0.7816531E-02  0.8496692E-01
          2   -1    0    0  501    0  0.00000000000E+00  0.00000000000E+00  0.16430123870E+04  0.16430123870E+04  0.00000000000E+00 0.  1.
         -2   -1    0    0    0  501 -0.00000000000E+00 -0.00000000000E+00 -0.77235316120E+03  0.77235316120E+03  0.00000000000E+00 0. -1.
    2000013    1    1    2    0    0  0.22095278868E+03 -0.49978827378E+03  0.71463991340E+03  0.13083648800E+04  0.95000000000E+03 0.  0.
   -2000013    1    1    2    0    0 -0.22095278868E+03  0.49978827378E+03  0.15601931235E+03  0.11070006681E+04  0.95000000000E+03 0.  0.
<mgrwt>
<rscale>  0 0.22529854E+04</rscale>
<asrwt>0</asrwt>
<pdfrwt beam="1">  1        2 0.25277113E+00 0.22529854E+04</pdfrwt>
<pdfrwt beam="2">  1       -2 0.11882356E+00 0.22529854E+04</pdfrwt>
<totfact> 0.52260257E+00</totfact>
</mgrwt>
</event>
<event>
 4    1  0.1308745E-008  0.2240305E+04  0.7816531E-02  0.8501837E-01
         -2   -1    0    0    0  501 -0.00000000000E+00  0.00000000000E+00  0.61481195098E+03  0.61481195098E+03  0.00000000000E+00 0. -1.
          2   -1    0    0  501    0  0.00000000000E+00 -0.00000000000E+00 -0.20408550238E+04  0.20408550238E+04  0.00000000000E+00 0.  1.
    2000013    1    1    2    0    0 -0.20082273497E+03  0.51369494861E+03 -0.45323195929E+03  0.11883313848E+04  0.95000000000E+03 0.  0.
   -2000013    1    1    2    0    0  0.20082273497E+03 -0.51369494861E+03 -0.97281111354E+03  0.14673355900E+04  0.95000000000E+03 0.  0.
<mgrwt>
<rscale>  0 0.22403054E+04</rscale>
<asrwt>0</asrwt>
<pdfrwt beam="2">  1        2 0.31397770E+00 0.22403054E+04</pdfrwt>
<pdfrwt beam="1">  1       -2 0.94586452E-01 0.22403054E+04</pdfrwt>
<totfact> 0.54379868E+00</totfact>
</mgrwt>
</event>
<event>
 4    1  0.1308745E-008  0.3207561E+04  0.7816531E-02  0.8186823E-01
         -2   -1    0    0    0  501 -0.00000000000E+00  0.00000000000E+00  0.20902932878E+04  0.20902932878E+04  0.00000000000E+00 0. -1.
          2   -1    0    0  501    0  0.00000000000E+00 -0.00000000000E+00 -0.12305026426E+04  0.12305026426E+04  0.00000000000E+00 0.  1.
    2000013    1    1    2    0    0 -0.64440132233E+01  0.12088491718E+04 -0.42563029413E+02  0.15380732937E+04  0.95000000000E+03 0.  0.
   -2000013    1    1    2    0    0  0.64440132233E+01 -0.12088491718E+04  0.90235367461E+03  0.17827226367E+04  0.95000000000E+03 0.  0.
<mgrwt>
<rscale>  0 0.32075607E+04</rscale>
<asrwt>0</asrwt>
<pdfrwt beam="2">  1        2 0.18930810E+00 0.32075607E+04</pdfrwt>
<pdfrwt beam="1">  1       -2 0.32158358E+00 0.32075607E+04</pdfrwt>
<totfact> 0.35777139E-01</totfact>
</mgrwt>
</event>
<event>
 4    1  0.1308745E-008  0.3663151E+04  0.7816531E-02  0.8076177E-01
          2   -1    0    0  501    0  0.00000000000E+00  0.00000000000E+00  0.23496834113E+04  0.23496834113E+04  0.00000000000E+00 0.  1.
         -2   -1    0    0    0  501 -0.00000000000E+00 -0.00000000000E+00 -0.14277111137E+04  0.14277111137E+04  0.00000000000E+00 0. -1.
    2000013    1    1    2    0    0  0.13772287325E+04  0.74445237455E+03  0.42525286525E+03  0.18799756166E+04  0.95000000000E+03 0.  0.
   -2000013    1    1    2    0    0 -0.13772287325E+04 -0.74445237455E+03  0.49671943241E+03  0.18974189084E+04  0.95000000000E+03 0.  0.
<mgrwt>
<rscale>  0 0.36631512E+04</rscale>
<asrwt>0</asrwt>
<pdfrwt beam="1">  1        2 0.36148976E+00 0.36631512E+04</pdfrwt>
<pdfrwt beam="2">  1       -2 0.21964786E+00 0.36631512E+04</pdfrwt>
<totfact> 0.34217831E-01</totfact>
</mgrwt>
</event>
<event>
 4    1  0.1308745E-008  0.2672144E+04  0.7816531E-02  0.8344100E-01
          2   -1    0    0  501    0  0.00000000000E+00  0.00000000000E+00  0.17819051027E+04  0.17819051027E+04  0.00000000000E+00 0.  1.
         -2   -1    0    0    0  501 -0.00000000000E+00 -0.00000000000E+00 -0.10017865516E+04  0.10017865516E+04  0.00000000000E+00 0. -1.
    2000013    1    1    2    0    0  0.91219766340E+03 -0.21975257857E+03  0.43884135249E+03  0.14055168108E+04  0.95000000000E+03 0.  0.
   -2000013    1    1    2    0    0 -0.91219766340E+03  0.21975257857E+03  0.34127719853E+03  0.13781748435E+04  0.95000000000E+03 0.  0.
<mgrwt>
<rscale>  0 0.26721441E+04</rscale>
<asrwt>0</asrwt>
<pdfrwt beam="1">  1        2 0.27413925E+00 0.26721441E+04</pdfrwt>
<pdfrwt beam="2">  1       -2 0.15412101E+00 0.26721441E+04</pdfrwt>
<totfact> 0.21647129E+00</totfact>
</mgrwt>
</event>
<event>
 4    1  0.1308745E-008  0.2531039E+04  0.7816531E-02  0.8392010E-01
         -2   -1    0    0    0  501 -0.00000000000E+00  0.00000000000E+00  0.10376107690E+04  0.10376107690E+04  0.00000000000E+00 0. -1.
          2   -1    0    0  501    0  0.00000000000E+00 -0.00000000000E+00 -0.15434880471E+04  0.15434880471E+04  0.00000000000E+00 0.  1.
    2000013    1    1    2    0    0 -0.74033680956E+03  0.13071608888E+02  0.14303270031E+03  0.12129418007E+04  0.95000000000E+03 0.  0.
   -2000013    1    1    2    0    0  0.74033680956E+03 -0.13071608888E+02 -0.64890997845E+03  0.13681570154E+04  0.95000000000E+03 0.  0.
<mgrwt>
<rscale>  0 0.25310392E+04</rscale>
<asrwt>0</asrwt>
<pdfrwt beam="2">  1        2 0.23745970E+00 0.25310392E+04</pdfrwt>
<pdfrwt beam="1">  1       -2 0.15963243E+00 0.25310392E+04</pdfrwt>
<totfact> 0.27056528E+00</totfact>
</mgrwt>
</event>
<event>
 4    1  0.1308745E-008  0.2643547E+04  0.7816531E-02  0.8353558E-01
         -2   -1    0    0    0  501 -0.00000000000E+00  0.00000000000E+00  0.15994994461E+04  0.15994994461E+04  0.00000000000E+00 0. -1.
          2   -1    0    0  501    0  0.00000000000E+00 -0.00000000000E+00 -0.10922701040E+04  0.10922701040E+04  0.00000000000E+00 0.  1.
    2000013    1    1    2    0    0 -0.71699652243E+03 -0.51493118642E+03 -0.66795875328E+01  0.12968356707E+04  0.95000000000E+03 0.  0.
   -2000013    1    1    2    0    0  0.71699652243E+03  0.51493118642E+03  0.51390892957E+03  0.13949338794E+04  0.95000000000E+03 0.  0.
<mgrwt>
<rscale>  0 0.26435472E+04</rscale>
<asrwt>0</asrwt>
<pdfrwt beam="2">  1        2 0.16804155E+00 0.26435472E+04</pdfrwt>
<pdfrwt beam="1">  1       -2 0.24607684E+00 0.26435472E+04</pdfrwt>
<totfact> 0.13189468E+00</totfact>
</mgrwt>
</event>
<event>
 4    1  0.1308745E-008  0.2219773E+04  0.7816531E-02  0.8510243E-01
          2   -1    0    0  501    0  0.00000000000E+00  0.00000000000E+00  0.10665462288E+04  0.10665462288E+04  0.00000000000E+00 0.  1.
         -2   -1    0    0    0  501 -0.00000000000E+00 -0.00000000000E+00 -0.11549880801E+04  0.11549880801E+04  0.00000000000E+00 0. -1.
    2000013    1    1    2    0    0 -0.30092863134E+03 -0.48564012087E+03  0.10079037669E+02  0.11086054100E+04  0.95000000000E+03 0.  0.
   -2000013    1    1    2    0    0  0.30092863134E+03  0.48564012087E+03 -0.98520888979E+02  0.11129288988E+04  0.95000000000E+03 0.  0.
<mgrwt>
<rscale>  0 0.22197731E+04</rscale>
<asrwt>0</asrwt>
<pdfrwt beam="1">  1        2 0.16408403E+00 0.22197731E+04</pdfrwt>
<pdfrwt beam="2">  1       -2 0.17769048E+00 0.22197731E+04</pdfrwt>
<totfact> 0.39236069E+00</totfact>
</mgrwt>
</event>
<event>
 4    1  0.1308745E-008  0.2572706E+04  0.7816531E-02  0.8377532E-01
          2   -1    0    0  501    0  0.00000000000E+00  0.00000000000E+00  0.88033569379E+03  0.88033569379E+03  0.00000000000E+00 0.  1.
         -2   -1    0    0    0  501 -0.00000000000E+00 -0.00000000000E+00 -0.18796285501E+04  0.18796285501E+04  0.00000000000E+00 0. -1.
    2000013    1    1    2    0    0 -0.97423967394E+02 -0.72757088273E+03 -0.99516844420E+03  0.15593944501E+04  0.95000000000E+03 0.  0.
   -2000013    1    1    2    0    0  0.97423967394E+02  0.72757088273E+03 -0.41244120901E+01  0.12005697937E+04  0.95000000000E+03 0.  0.
<mgrwt>
<rscale>  0 0.25727060E+04</rscale>
<asrwt>0</asrwt>
<pdfrwt beam="1">  1        2 0.13543626E+00 0.25727060E+04</pdfrwt>
<pdfrwt beam="2">  1       -2 0.28917362E+00 0.25727060E+04</pdfrwt>
<totfact> 0.99249607E-01</totfact>
</mgrwt>
</event>
<event>
 4    1  0.1308745E-008  0.2142873E+04  0.7816531E-02  0.8542589E-01
         -2   -1    0    0    0  501 -0.00000000000E+00  0.00000000000E+00  0.74428025844E+03  0.74428025844E+03  0.00000000000E+00 0. -1.
          2   -1    0    0  501    0  0.00000000000E+00 -0.00000000000E+00 -0.15423977354E+04  0.15423977354E+04  0.00000000000E+00 0.  1.
    2000013    1    1    2    0    0 -0.38961858148E+03 -0.16427710919E+02 -0.72518859735E+03  0.12571678529E+04  0.95000000000E+03 0.  0.
   -2000013    1    1    2    0    0  0.38961858148E+03  0.16427710919E+02 -0.72928879597E+02  0.10295101409E+04  0.95000000000E+03 0.  0.
<mgrwt>
<rscale>  0 0.21428730E+04</rscale>
<asrwt>0</asrwt>
<pdfrwt beam="2">  1        2 0.23729196E+00 0.21428730E+04</pdfrwt>
<pdfrwt beam="1">  1       -2 0.11450466E+00 0.21428730E+04</pdfrwt>
<totfact> 0.65753047E+00</totfact>
</mgrwt>
</event>
<event>
 4    1  0.1308745E-008  0.2739715E+04  0.7816531E-02  0.8322233E-01
          2   -1    0    0  501    0  0.00000000000E+00  0.00000000000E+00  0.26965106558E+04  0.26965106558E+04  0.00000000000E+00 0.  1.
         -2   -1    0    0    0  501 -0.00000000000E+00 -0.00000000000E+00 -0.69590269903E+03  0.69590269903E+03  0.00000000000E+00 0. -1.
    2000013    1    1    2    0    0 -0.79824413351E+03 -0.56549208894E+03  0.83869617773E+03  0.16009017078E+04  0.95000000000E+03 0.  0.
   -2000013    1    1    2    0    0  0.79824413351E+03  0.56549208894E+03  0.11619117790E+04  0.17915116471E+04  0.95000000000E+03 0.  0.
<mgrwt>
<rscale>  0 0.27397146E+04</rscale>
<asrwt>0</asrwt>
<pdfrwt beam="1">  1        2 0.41484779E+00 0.27397146E+04</pdfrwt>
<pdfrwt beam="2">  1       -2 0.10706196E+00 0.27397146E+04</pdfrwt>
<totfact> 0.16361804E+00</totfact>
</mgrwt>
</event>
<event>
 4    1  0.1308745E-008  0.2630741E+04  0.7816531E-02  0.8357833E-01
          2   -1    0    0  501    0  0.00000000000E+00  0.00000000000E+00  0.13111906795E+04  0.13111906795E+04  0.00000000000E+00 0.  1.
         -2   -1    0    0    0  501 -0.00000000000E+00 -0.00000000000E+00 -0.13195639598E+04  0.13195639598E+04  0.00000000000E+00 0. -1.
    2000013    1    1    2    0    0 -0.56872422038E+03  0.66534668417E+03  0.24394062531E+03  0.13145875694E+04  0.95000000000E+03 0.  0.
   -2000013    1    1    2    0    0  0.56872422038E+03 -0.66534668417E+03 -0.25231390556E+03  0.13161670699E+04  0.95000000000E+03 0.  0.
<mgrwt>
<rscale>  0 0.26307413E+04</rscale>
<asrwt>0</asrwt>
<pdfrwt beam="1">  1        2 0.20172164E+00 0.26307413E+04</pdfrwt>
<pdfrwt beam="2">  1       -2 0.20300984E+00 0.26307413E+04</pdfrwt>
<totfact> 0.18262680E+00</totfact>
</mgrwt>
</event>
<event>
 4    1  0.1308745E-008  0.2934696E+04  0.7816531E-02  0.8262629E-01
         -2   -1    0    0    0  501 -0.00000000000E+00  0.00000000000E+00  0.16259509004E+04  0.16259509004E+04  0.00000000000E+00 0. -1.
          2   -1    0    0  501    0  0.00000000000E+00 -0.00000000000E+00 -0.13242162150E+04  0.13242162150E+04  0.00000000000E+00 0.  1.
    2000013    1    1    2    0    0 -0.19893387827E+02  0.11159546125E+04  0.80785388718E+02  0.14679157752E+04  0.95000000000E+03 0.  0.
   -2000013    1    1    2    0    0  0.19893387827E+02 -0.11159546125E+04  0.22094929667E+03  0.14822513403E+04  0.95000000000E+03 0.  0.
<mgrwt>
<rscale>  0 0.29346963E+04</rscale>
<asrwt>0</asrwt>
<pdfrwt beam="2">  1        2 0.20372557E+00 0.29346963E+04</pdfrwt>
<pdfrwt beam="1">  1       -2 0.25014629E+00 0.29346963E+04</pdfrwt>
<totfact> 0.88321874E-01</totfact>
</mgrwt>
</event>
<event>
 4    1  0.1308745E-008  0.2934842E+04  0.7816531E-02  0.8262586E-01
         -2   -1    0    0    0  501 -0.00000000000E+00  0.00000000000E+00  0.13337026656E+04  0.13337026656E+04  0.00000000000E+00 0. -1.
          2   -1    0    0  501    0  0.00000000000E+00 -0.00000000000E+00 -0.16145464674E+04  0.16145464674E+04  0.00000000000E+00 0.  1.
    2000013    1    1    2    0    0  0.10030370040E+04 -0.44573733315E+03  0.75174256833E+02  0.14535873453E+04  0.95000000000E+03 0.  0.
   -2000013    1    1    2    0    0 -0.10030370040E+04  0.44573733315E+03 -0.35601805867E+03  0.14946617877E+04  0.95000000000E+03 0.  0.
<mgrwt>
<rscale>  0 0.29348424E+04</rscale>
<asrwt>0</asrwt>
<pdfrwt beam="2">  1        2 0.24839176E+00 0.29348424E+04</pdfrwt>
<pdfrwt beam="1">  1       -2 0.20518503E+00 0.29348424E+04</pdfrwt>
<totfact> 0.11588547E+00</totfact>
</mgrwt>
</event>
<event>
 4    1  0.1308745E-008  0.4378417E+04  0.7816531E-02  0.7932275E-01
         -1   -1    0    0    0  501 -0.00000000000E+00  0.00000000000E+00  0.17069277786E+04  0.17069277786E+04  0.00000000000E+00 0. -1.
          1   -1    0    0  501    0  0.00000000000E+00 -0.00000000000E+00 -0.28077539748E+04  0.28077539748E+04  0.00000000000E+00 0.  1.
    2000013    1    1    2    0    0  0.16051553186E+04 -0.12886937984E+03 -0.17247167936E+04  0.25436742975E+04  0.95000000000E+03 0.  0.
   -2000013    1    1    2    0    0 -0.16051553186E+04  0.12886937984E+03  0.62389059739E+03  0.19710074559E+04  0.95000000000E+03 0.  0.
<mgrwt>
<rscale>  0 0.43784167E+04</rscale>
<asrwt>0</asrwt>
<pdfrwt beam="2">  1        1 0.43196215E+00 0.43784167E+04</pdfrwt>
<pdfrwt beam="1">  1       -1 0.26260428E+00 0.43784167E+04</pdfrwt>
<totfact> 0.36032463E-02</totfact>
</mgrwt>
</event>
<event>
 4    1  0.1308745E-008  0.2592691E+04  0.7816531E-02  0.8370688E-01
          2   -1    0    0  501    0  0.00000000000E+00  0.00000000000E+00  0.17345305886E+04  0.17345305886E+04  0.00000000000E+00 0.  1.
         -2   -1    0    0    0  501 -0.00000000000E+00 -0.00000000000E+00 -0.96885683263E+03  0.96885683263E+03  0.00000000000E+00 0. -1.
    2000013    1    1    2    0    0 -0.40407584672E+03 -0.77153089384E+03  0.23732722484E+03  0.13104813702E+04  0.95000000000E+03 0.  0.
   -2000013    1    1    2    0    0  0.40407584672E+03  0.77153089384E+03  0.52834653117E+03  0.13929060511E+04  0.95000000000E+03 0.  0.
<mgrwt>
<rscale>  0 0.25926911E+04</rscale>
<asrwt>0</asrwt>
<pdfrwt beam="1">  1        2 0.26685086E+00 0.25926911E+04</pdfrwt>
<pdfrwt beam="2">  1       -2 0.14905490E+00 0.25926911E+04</pdfrwt>
<totfact> 0.25305971E+00</totfact>
</mgrwt>
</event>
<event>
 4    1  0.1308745E-008  0.2912473E+04  0.7816531E-02  0.8269176E-01
         -1   -1    0    0    0  501 -0.00000000000E+00  0.00000000000E+00  0.87774488296E+03  0.87774488296E+03  0.00000000000E+00 0. -1.
          1   -1    0    0  501    0  0.00000000000E+00 -0.00000000000E+00 -0.24159923523E+04  0.24159923523E+04  0.00000000000E+00 0.  1.
    2000013    1    1    2    0    0 -0.10966932900E+04 -0.41761866628E+02 -0.90122561473E+03  0.17085630906E+04  0.95000000000E+03 0.  0.
   -2000013    1    1    2    0    0  0.10966932900E+04  0.41761866628E+02 -0.63702185464E+03  0.15851741447E+04  0.95000000000E+03 0.  0.
<mgrwt>
<rscale>  0 0.29124731E+04</rscale>
<asrwt>0</asrwt>
<pdfrwt beam="2">  1        1 0.37169112E+00 0.29124731E+04</pdfrwt>
<pdfrwt beam="1">  1       -1 0.13503768E+00 0.29124731E+04</pdfrwt>
<totfact> 0.61110308E-01</totfact>
</mgrwt>
</event>
<event>
 4    1  0.1308745E-008  0.2277870E+04  0.7816531E-02  0.8486698E-01
          2   -1    0    0  501    0  0.00000000000E+00  0.00000000000E+00  0.19099503532E+04  0.19099503532E+04  0.00000000000E+00 0.  1.
         -2   -1    0    0    0  501 -0.00000000000E+00 -0.00000000000E+00 -0.67916606088E+03  0.67916606088E+03  0.00000000000E+00 0. -1.
    2000013    1    1    2    0    0 -0.33153785629E+03 -0.53347606471E+03  0.60104183240E+03  0.12877365204E+04  0.95000000000E+03 0.  0.
   -2000013    1    1    2    0    0  0.33153785629E+03  0.53347606471E+03  0.62974245994E+03  0.13013798937E+04  0.95000000000E+03 0.  0.
<mgrwt>
<rscale>  0 0.22778705E+04</rscale>
<asrwt>0</asrwt>
<pdfrwt beam="1">  1        2 0.29383851E+00 0.22778705E+04</pdfrwt>
<pdfrwt beam="2">  1       -2 0.10448709E+00 0.22778705E+04</pdfrwt>
<totfact> 0.50647136E+00</totfact>
</mgrwt>
</event>
<event>
 4    1  0.1308745E-008  0.2215495E+04  0.7816531E-02  0.8512006E-01
          2   -1    0    0  501    0  0.00000000000E+00  0.00000000000E+00  0.28965968719E+04  0.28965968719E+04  0.00000000000E+00 0.  1.
         -2   -1    0    0    0  501 -0.00000000000E+00 -0.00000000000E+00 -0.42363662888E+03  0.42363662888E+03  0.00000000000E+00 0. -1.
    2000013    1    1    2    0    0 -0.43417491139E+02 -0.48169276594E+03  0.16877966374E+04  0.19962641330E+04  0.95000000000E+03 0.  0.
   -2000013    1    1    2    0    0  0.43417491139E+02  0.48169276594E+03  0.78516360553E+03  0.13239693678E+04  0.95000000000E+03 0.  0.
<mgrwt>
<rscale>  0 0.22154950E+04</rscale>
<asrwt>0</asrwt>
<pdfrwt beam="1">  1        2 0.44563028E+00 0.22154950E+04</pdfrwt>
<pdfrwt beam="2">  1       -2 0.65174868E-01 0.22154950E+04</pdfrwt>
<totfact> 0.40035029E+00</totfact>
</mgrwt>
</event>
<event>
 4    1  0.1308745E-008  0.2996424E+04  0.7816531E-02  0.8244753E-01
         -1   -1    0    0    0  501 -0.00000000000E+00  0.00000000000E+00  0.19689026841E+04  0.19689026841E+04  0.00000000000E+00 0. -1.
          1   -1    0    0  501    0  0.00000000000E+00 -0.00000000000E+00 -0.11400457859E+04  0.11400457859E+04  0.00000000000E+00 0.  1.
    2000013    1    1    2    0    0  0.61140511402E+03 -0.80465870935E+03  0.10021335880E+04  0.17111585491E+04  0.95000000000E+03 0.  0.
   -2000013    1    1    2    0    0 -0.61140511402E+03  0.80465870935E+03 -0.17327668973E+03  0.13977899210E+04  0.95000000000E+03 0.  0.
<mgrwt>
<rscale>  0 0.29964240E+04</rscale>
<asrwt>0</asrwt>
<pdfrwt beam="2">  1        1 0.17539166E+00 0.29964240E+04</pdfrwt>
<pdfrwt beam="1">  1       -1 0.30290810E+00 0.29964240E+04</pdfrwt>
<totfact> 0.31847929E-01</totfact>
</mgrwt>
</event>
<event>
 4    1  0.1308745E-008  0.2040196E+04  0.7816531E-02  0.8588055E-01
         -2   -1    0    0    0  501 -0.00000000000E+00  0.00000000000E+00  0.13506676721E+04  0.13506676721E+04  0.00000000000E+00 0. -1.
          2   -1    0    0  501    0  0.00000000000E+00 -0.00000000000E+00 -0.77043356318E+03  0.77043356318E+03  0.00000000000E+00 0.  1.
    2000013    1    1    2    0    0 -0.95989682112E+02  0.27046303698E+03  0.53556265080E+03  0.11276930550E+04  0.95000000000E+03 0.  0.
   -2000013    1    1    2    0    0  0.95989682112E+02 -0.27046303698E+03  0.44671458141E+02  0.99340818027E+03  0.95000000000E+03 0.  0.
<mgrwt>
<rscale>  0 0.20401958E+04</rscale>
<asrwt>0</asrwt>
<pdfrwt beam="2">  1        2 0.11852824E+00 0.20401958E+04</pdfrwt>
<pdfrwt beam="1">  1       -2 0.20779503E+00 0.20401958E+04</pdfrwt>
<totfact> 0.39650182E+00</totfact>
</mgrwt>
</event>
<event>
 4    1  0.1308745E-008  0.2506819E+04  0.7816531E-02  0.8400560E-01
         -2   -1    0    0    0  501 -0.00000000000E+00  0.00000000000E+00  0.13796858329E+04  0.13796858329E+04  0.00000000000E+00 0. -1.
          2   -1    0    0  501    0  0.00000000000E+00 -0.00000000000E+00 -0.11386908359E+04  0.11386908359E+04  0.00000000000E+00 0.  1.
    2000013    1    1    2    0    0  0.50487669328E+03 -0.64150540776E+03  0.16659971232E+03  0.12636000664E+04  0.95000000000E+03 0.  0.
   -2000013    1    1    2    0    0 -0.50487669328E+03  0.64150540776E+03  0.74395284763E+02  0.12547766024E+04  0.95000000000E+03 0.  0.
<mgrwt>
<rscale>  0 0.25068192E+04</rscale>
<asrwt>0</asrwt>
<pdfrwt beam="2">  1        2 0.17518321E+00 0.25068192E+04</pdfrwt>
<pdfrwt beam="1">  1       -2 0.21225936E+00 0.25068192E+04</pdfrwt>
<totfact> 0.20359179E+00</totfact>
</mgrwt>
</event>
<event>
 4    1  0.1308745E-008  0.2495397E+04  0.7816531E-02  0.8404627E-01
         -2   -1    0    0    0  501 -0.00000000000E+00  0.00000000000E+00  0.15430211377E+04  0.15430211377E+04  0.00000000000E+00 0. -1.
          2   -1    0    0  501    0  0.00000000000E+00 -0.00000000000E+00 -0.10088982200E+04  0.10088982200E+04  0.00000000000E+00 0.  1.
    2000013    1    1    2    0    0 -0.39868132182E+03 -0.67561390928E+03  0.46863089565E+03  0.13181486514E+04  0.95000000000E+03 0.  0.
   -2000013    1    1    2    0    0  0.39868132182E+03  0.67561390928E+03  0.65492022045E+02  0.12337707063E+04  0.95000000000E+03 0.  0.
<mgrwt>
<rscale>  0 0.24953968E+04</rscale>
<asrwt>0</asrwt>
<pdfrwt beam="2">  1        2 0.15521511E+00 0.24953968E+04</pdfrwt>
<pdfrwt beam="1">  1       -2 0.23738787E+00 0.24953968E+04</pdfrwt>
<totfact> 0.17051955E+00</totfact>
</mgrwt>
</event>
<event>
 4    1  0.1308745E-008  0.2041877E+04  0.7816531E-02  0.8587288E-01
         -2   -1    0    0    0  501 -0.00000000000E+00  0.00000000000E+00  0.11234668690E+04  0.11234668690E+04  0.00000000000E+00 0. -1.
          2   -1    0    0  501    0  0.00000000000E+00 -0.00000000000E+00 -0.92776725944E+03  0.92776725944E+03  0.00000000000E+00 0.  1.
    2000013    1    1    2    0    0 -0.28835506718E+03  0.21165922300E+03 -0.11587483786E+02  0.10151761134E+04  0.95000000000E+03 0.  0.
   -2000013    1    1    2    0    0  0.28835506718E+03 -0.21165922300E+03  0.20728709334E+03  0.10360580150E+04  0.95000000000E+03 0.  0.
<mgrwt>
<rscale>  0 0.20418774E+04</rscale>
<asrwt>0</asrwt>
<pdfrwt beam="2">  1        2 0.14273342E+00 0.20418774E+04</pdfrwt>
<pdfrwt beam="1">  1       -2 0.17284106E+00 0.20418774E+04</pdfrwt>
<totfact> 0.52902987E+00</totfact>
</mgrwt>
</event>
<event>
 4    1  0.1308745E-008  0.2240834E+04  0.7816531E-02  0.8501622E-01
          2   -1    0    0  501    0  0.00000000000E+00  0.00000000000E+00  0.34886634092E+04  0.34886634092E+04  0.00000000000E+00 0.  1.
         -2   -1    0    0    0  501 -0.00000000000E+00 -0.00000000000E+00 -0.35983239210E+03  0.35983239210E+03  0.00000000000E+00 0. -1.
    2000013    1    1    2    0    0 -0.19335606973E+03 -0.43557447418E+03  0.95545700022E+03  0.14291640114E+04  0.95000000000E+03 0.  0.
   -2000013    1    1    2    0    0  0.19335606973E+03  0.43557447418E+03  0.21733740169E+04  0.24193317899E+04  0.95000000000E+03 0.  0.
<mgrwt>
<rscale>  0 0.22408339E+04</rscale>
<asrwt>0</asrwt>
<pdfrwt beam="1">  1        2 0.53671742E+00 0.22408339E+04</pdfrwt>
<pdfrwt beam="2">  1       -2 0.55358832E-01 0.22408339E+04</pdfrwt>
<totfact> 0.23206124E+00</totfact>
</mgrwt>
</event>
<event>
 4    1  0.1308745E-008  0.2524347E+04  0.7816531E-02  0.8394363E-01
          2   -1    0    0  501    0  0.00000000000E+00  0.00000000000E+00  0.24222481703E+04  0.24222481703E+04  0.00000000000E+00 0.  1.
         -2   -1    0    0    0  501 -0.00000000000E+00 -0.00000000000E+00 -0.65768731692E+03  0.65768731692E+03  0.00000000000E+00 0. -1.
    2000013    1    1    2    0    0 -0.66922144366E+03  0.46528403209E+03  0.68465818171E+03  0.14267457366E+04  0.95000000000E+03 0.  0.
   -2000013    1    1    2    0    0  0.66922144366E+03 -0.46528403209E+03  0.10799026716E+04  0.16531897506E+04  0.95000000000E+03 0.  0.
<mgrwt>
<rscale>  0 0.25243470E+04</rscale>
<asrwt>0</asrwt>
<pdfrwt beam="1">  1        2 0.37265356E+00 0.25243470E+04</pdfrwt>
<pdfrwt beam="2">  1       -2 0.10118267E+00 0.25243470E+04</pdfrwt>
<totfact> 0.27593497E+00</totfact>
</mgrwt>
</event>
<event>
 4    1  0.1308745E-008  0.2057680E+04  0.7816531E-02  0.8580118E-01
          1   -1    0    0  501    0  0.00000000000E+00  0.00000000000E+00  0.10151529150E+04  0.10151529150E+04  0.00000000000E+00 0. -1.
         -1   -1    0    0    0  501 -0.00000000000E+00 -0.00000000000E+00 -0.10427114867E+04  0.10427114867E+04  0.00000000000E+00 0.  1.
    2000013    1    1    2    0    0  0.55537807984E+00  0.26562347166E+03  0.27857460321E+03  0.10250170470E+04  0.95000000000E+03 0.  0.
   -2000013    1    1    2    0    0 -0.55537807984E+00 -0.26562347166E+03 -0.30613317490E+03  0.10328473546E+04  0.95000000000E+03 0.  0.
<mgrwt>
<rscale>  0 0.20576799E+04</rscale>
<asrwt>0</asrwt>
<pdfrwt beam="1">  1        1 0.15617737E+00 0.20576799E+04</pdfrwt>
<pdfrwt beam="2">  1       -1 0.16041715E+00 0.20576799E+04</pdfrwt>
<totfact> 0.39433868E+00</totfact>
</mgrwt>
</event>
<event>
 4    1  0.1308745E-008  0.2563016E+04  0.7816531E-02  0.8380873E-01
          2   -1    0    0  501    0  0.00000000000E+00  0.00000000000E+00  0.30008380069E+04  0.30008380069E+04  0.00000000000E+00 0.  1.
         -2   -1    0    0    0  501 -0.00000000000E+00 -0.00000000000E+00 -0.54726810884E+03  0.54726810884E+03  0.00000000000E+00 0. -1.
    2000013    1    1    2    0    0  0.65668773539E+03  0.36508317663E+03  0.18062936205E+04  0.21747922087E+04  0.95000000000E+03 0.  0.
   -2000013    1    1    2    0    0 -0.65668773539E+03 -0.36508317663E+03  0.64727627754E+03  0.13733139070E+04  0.95000000000E+03 0.  0.
<mgrwt>
<rscale>  0 0.25630161E+04</rscale>
<asrwt>0</asrwt>
<pdfrwt beam="1">  1        2 0.46166738E+00 0.25630161E+04</pdfrwt>
<pdfrwt beam="2">  1       -2 0.84195096E-01 0.25630161E+04</pdfrwt>
<totfact> 0.18998957E+00</totfact>
</mgrwt>
</event>
<event>
 4    1  0.1308745E-008  0.2559521E+04  0.7816531E-02  0.8382082E-01
         -2   -1    0    0    0  501 -0.00000000000E+00  0.00000000000E+00  0.11984736504E+04  0.11984736504E+04  0.00000000000E+00 0. -1.
          2   -1    0    0  501    0  0.00000000000E+00 -0.00000000000E+00 -0.13665606484E+04  0.13665606484E+04  0.00000000000E+00 0.  1.
    2000013    1    1    2    0    0  0.75643680554E+02  0.61312722362E+03 -0.68000081184E+03  0.13215703019E+04  0.95000000000E+03 0.  0.
   -2000013    1    1    2    0    0 -0.75643680554E+02 -0.61312722362E+03  0.51191381391E+03  0.12434639969E+04  0.95000000000E+03 0.  0.
<mgrwt>
<rscale>  0 0.25595210E+04</rscale>
<asrwt>0</asrwt>
<pdfrwt beam="2">  1        2 0.21024010E+00 0.25595210E+04</pdfrwt>
<pdfrwt beam="1">  1       -2 0.18438056E+00 0.25595210E+04</pdfrwt>
<totfact> 0.22714034E+00</totfact>
</mgrwt>
</event>
<event>
 4    1  0.1308745E-008  0.2522473E+04  0.7816531E-02  0.8395023E-01
         -2   -1    0    0    0  501 -0.00000000000E+00  0.00000000000E+00  0.19963815091E+04  0.19963815091E+04  0.00000000000E+00 0. -1.
          2   -1    0    0  501    0  0.00000000000E+00 -0.00000000000E+00 -0.79680030970E+03  0.79680030970E+03  0.00000000000E+00 0.  1.
    2000013    1    1    2    0    0  0.54950000902E+03 -0.39829908967E+03  0.11280930861E+04  0.16234797306E+04  0.95000000000E+03 0.  0.
   -2000013    1    1    2    0    0 -0.54950000902E+03  0.39829908967E+03  0.71488113255E+02  0.11697020882E+04  0.95000000000E+03 0.  0.
<mgrwt>
<rscale>  0 0.25224729E+04</rscale>
<asrwt>0</asrwt>
<pdfrwt beam="2">  1        2 0.12258466E+00 0.25224729E+04</pdfrwt>
<pdfrwt beam="1">  1       -2 0.30713562E+00 0.25224729E+04</pdfrwt>
<totfact> 0.88611776E-01</totfact>
</mgrwt>
</event>
<event>
 4    1  0.1308745E-008  0.2267649E+04  0.7816531E-02  0.8490787E-01
          2   -1    0    0  501    0  0.00000000000E+00  0.00000000000E+00  0.14694026813E+04  0.14694026813E+04  0.00000000000E+00 0.  1.
         -2   -1    0    0    0  501 -0.00000000000E+00 -0.00000000000E+00 -0.87488456416E+03  0.87488456416E+03  0.00000000000E+00 0. -1.
    2000013    1    1    2    0    0 -0.31274090853E+02 -0.56881907614E+03  0.47164670351E+02  0.11087189528E+04  0.95000000000E+03 0.  0.
   -2000013    1    1    2    0    0  0.31274090853E+02  0.56881907614E+03  0.54735344677E+03  0.12355682927E+04  0.95000000000E+03 0.  0.
<mgrwt>
<rscale>  0 0.22676488E+04</rscale>
<asrwt>0</asrwt>
<pdfrwt beam="1">  1        2 0.22606195E+00 0.22676488E+04</pdfrwt>
<pdfrwt beam="2">  1       -2 0.13459763E+00 0.22676488E+04</pdfrwt>
<totfact> 0.47746576E+00</totfact>
</mgrwt>
</event>
<event>
 4    1  0.1308745E-008  0.2384111E+04  0.7816531E-02  0.8445476E-01
          2   -1    0    0  501    0  0.00000000000E+00  0.00000000000E+00  0.11150399543E+04  0.11150399543E+04  0.00000000000E+00 0.  1.
         -2   -1    0    0    0  501 -0.00000000000E+00 -0.00000000000E+00 -0.12743904618E+04  0.12743904618E+04  0.00000000000E+00 0. -1.
    2000013    1    1    2    0    0  0.31843569492E+03 -0.59808217110E+03  0.16457469495E+03  0.11784262410E+04  0.95000000000E+03 0.  0.
   -2000013    1    1    2    0    0 -0.31843569492E+03  0.59808217110E+03 -0.32392520245E+03  0.12110041750E+04  0.95000000000E+03 0.  0.
<mgrwt>
<rscale>  0 0.23841110E+04</rscale>
<asrwt>0</asrwt>
<pdfrwt beam="1">  1        2 0.17154461E+00 0.23841110E+04</pdfrwt>
<pdfrwt beam="2">  1       -2 0.19606007E+00 0.23841110E+04</pdfrwt>
<totfact> 0.27112479E+00</totfact>
</mgrwt>
</event>
<event>
 4    1  0.1308745E-008  0.2880857E+04  0.7816531E-02  0.8278596E-01
          2   -1    0    0  501    0  0.00000000000E+00  0.00000000000E+00  0.13665997938E+04  0.13665997938E+04  0.00000000000E+00 0.  1.
         -2   -1    0    0    0  501 -0.00000000000E+00 -0.00000000000E+00 -0.15182451904E+04  0.15182451904E+04  0.00000000000E+00 0. -1.
    2000013    1    1    2    0    0 -0.53249552285E+03 -0.94105196510E+03 -0.19146803642E+02  0.14394432545E+04  0.95000000000E+03 0.  0.
   -2000013    1    1    2    0    0  0.53249552285E+03  0.94105196510E+03 -0.13249859294E+03  0.14454017296E+04  0.95000000000E+03 0.  0.
<mgrwt>
<rscale>  0 0.28808565E+04</rscale>
<asrwt>0</asrwt>
<pdfrwt beam="1">  1        2 0.21024612E+00 0.28808565E+04</pdfrwt>
<pdfrwt beam="2">  1       -2 0.23357618E+00 0.28808565E+04</pdfrwt>
<totfact> 0.10617561E+00</totfact>
</mgrwt>
</event>
<event>
 4    1  0.1308745E-008  0.2897478E+04  0.7816531E-02  0.8273628E-01
          2   -1    0    0  501    0  0.00000000000E+00  0.00000000000E+00  0.21833070172E+04  0.21833070172E+04  0.00000000000E+00 0.  1.
         -2   -1    0    0    0  501 -0.00000000000E+00 -0.00000000000E+00 -0.96131475448E+03  0.96131475448E+03  0.00000000000E+00 0. -1.
    2000013    1    1    2    0    0 -0.25798597022E+03 -0.10253008302E+04  0.91516318614E+03  0.16905094529E+04  0.95000000000E+03 0.  0.
   -2000013    1    1    2    0    0  0.25798597022E+03  0.10253008302E+04  0.30682907657E+03  0.14541123187E+04  0.95000000000E+03 0.  0.
<mgrwt>
<rscale>  0 0.28974784E+04</rscale>
<asrwt>0</asrwt>
<pdfrwt beam="1">  1        2 0.33589338E+00 0.28974784E+04</pdfrwt>
<pdfrwt beam="2">  1       -2 0.14789458E+00 0.28974784E+04</pdfrwt>
<totfact> 0.14168081E+00</totfact>
</mgrwt>
</event>
<event>
 4    1  0.1308745E-008  0.2132149E+04  0.7816531E-02  0.8547212E-01
         -2   -1    0    0    0  501 -0.00000000000E+00  0.00000000000E+00  0.14104061670E+04  0.14104061670E+04  0.00000000000E+00 0. -1.
          2   -1    0    0  501    0  0.00000000000E+00 -0.00000000000E+00 -0.80580666885E+03  0.80580666885E+03  0.00000000000E+00 0.  1.
    2000013    1    1    2    0    0  0.19130823186E+03  0.11585758104E+03  0.74815557624E+03  0.12297392345E+04  0.95000000000E+03 0.  0.
   -2000013    1    1    2    0    0 -0.19130823186E+03 -0.11585758104E+03 -0.14355607804E+03  0.98647360137E+03  0.95000000000E+03 0.  0.
<mgrwt>
<rscale>  0 0.21321489E+04</rscale>
<asrwt>0</asrwt>
<pdfrwt beam="2">  1        2 0.12397026E+00 0.21321489E+04</pdfrwt>
<pdfrwt beam="1">  1       -2 0.21698556E+00 0.21321489E+04</pdfrwt>
<totfact> 0.32375118E+00</totfact>
</mgrwt>
</event>
<event>
 4    1  0.1308745E-008  0.2210638E+04  0.7816531E-02  0.8514013E-01
          2   -1    0    0  501    0  0.00000000000E+00  0.00000000000E+00  0.10568658276E+04  0.10568658276E+04  0.00000000000E+00 0.  1.
         -2   -1    0    0    0  501 -0.00000000000E+00 -0.00000000000E+00 -0.11559938369E+04  0.11559938369E+04  0.00000000000E+00 0. -1.
    2000013    1    1    2    0    0 -0.36888698101E+03 -0.19801109788E+03  0.33021727349E+03  0.10894170218E+04  0.95000000000E+03 0.  0.
   -2000013    1    1    2    0    0  0.36888698101E+03  0.19801109788E+03 -0.42934528275E+03  0.11234426427E+04  0.95000000000E+03 0.  0.
<mgrwt>
<rscale>  0 0.22106383E+04</rscale>
<asrwt>0</asrwt>
<pdfrwt beam="1">  1        2 0.16259474E+00 0.22106383E+04</pdfrwt>
<pdfrwt beam="2">  1       -2 0.17784521E+00 0.22106383E+04</pdfrwt>
<totfact> 0.39718966E+00</totfact>
</mgrwt>
</event>
<event>
 4    1  0.1308745E-008  0.2580380E+04  0.7816531E-02  0.8374896E-01
         -2   -1    0    0    0  501 -0.00000000000E+00  0.00000000000E+00  0.46181216556E+03  0.46181216556E+03  0.00000000000E+00 0. -1.
          2   -1    0    0  501    0  0.00000000000E+00 -0.00000000000E+00 -0.36044741720E+04  0.36044741720E+04  0.00000000000E+00 0.  1.
    2000013    1    1    2    0    0 -0.51483003718E+03  0.59410808744E+03 -0.21694802926E+04  0.24954276441E+04  0.95000000000E+03 0.  0.
   -2000013    1    1    2    0    0  0.51483003718E+03 -0.59410808744E+03 -0.97318171379E+03  0.15708586934E+04  0.95000000000E+03 0.  0.
<mgrwt>
<rscale>  0 0.25803798E+04</rscale>
<asrwt>0</asrwt>
<pdfrwt beam="2">  1        2 0.55453449E+00 0.25803798E+04</pdfrwt>
<pdfrwt beam="1">  1       -2 0.71048025E-01 0.25803798E+04</pdfrwt>
<totfact> 0.10937574E+00</totfact>
</mgrwt>
</event>
<event>
 4    1  0.1308745E-008  0.2531386E+04  0.7816531E-02  0.8391889E-01
         -2   -1    0    0    0  501 -0.00000000000E+00  0.00000000000E+00  0.11150090100E+04  0.11150090100E+04  0.00000000000E+00 0. -1.
          2   -1    0    0  501    0  0.00000000000E+00 -0.00000000000E+00 -0.14367411480E+04  0.14367411480E+04  0.00000000000E+00 0.  1.
    2000013    1    1    2    0    0 -0.55872998439E+03 -0.54868729978E+03  0.13516688541E+03  0.12385503766E+04  0.95000000000E+03 0.  0.
   -2000013    1    1    2    0    0  0.55872998439E+03  0.54868729978E+03 -0.45689902341E+03  0.13131997814E+04  0.95000000000E+03 0.  0.
<mgrwt>
<rscale>  0 0.25313864E+04</rscale>
<asrwt>0</asrwt>
<pdfrwt beam="2">  1        2 0.22103710E+00 0.25313864E+04</pdfrwt>
<pdfrwt beam="1">  1       -2 0.17153985E+00 0.25313864E+04</pdfrwt>
<totfact> 0.25494784E+00</totfact>
</mgrwt>
</event>
<event>
 4    1  0.1308745E-008  0.2978245E+04  0.7816531E-02  0.8249970E-01
         -2   -1    0    0    0  501 -0.00000000000E+00  0.00000000000E+00  0.67213317533E+03  0.67213317533E+03  0.00000000000E+00 0. -1.
          2   -1    0    0  501    0  0.00000000000E+00 -0.00000000000E+00 -0.32991773709E+04  0.32991773709E+04  0.00000000000E+00 0.  1.
    2000013    1    1    2    0    0  0.86133074852E+03 -0.71403347193E+03 -0.16488817775E+04  0.22074975818E+04  0.95000000000E+03 0.  0.
   -2000013    1    1    2    0    0 -0.86133074852E+03  0.71403347193E+03 -0.97816241801E+03  0.17638129644E+04  0.95000000000E+03 0.  0.
<mgrwt>
<rscale>  0 0.29782455E+04</rscale>
<asrwt>0</asrwt>
<pdfrwt beam="2">  1        2 0.50756576E+00 0.29782455E+04</pdfrwt>
<pdfrwt beam="1">  1       -2 0.10340510E+00 0.29782455E+04</pdfrwt>
<totfact> 0.72879551E-01</totfact>
</mgrwt>
</event>
<event>
 4    1  0.1308745E-008  0.2176974E+04  0.7816531E-02  0.8528074E-01
         -1   -1    0    0    0  501 -0.00000000000E+00  0.00000000000E+00  0.62791925977E+03  0.62791925977E+03  0.00000000000E+00 0. -1.
          1   -1    0    0  501    0  0.00000000000E+00 -0.00000000000E+00 -0.18868722958E+04  0.18868722958E+04  0.00000000000E+00 0.  1.
    2000013    1    1    2    0    0  0.39422207421E+03 -0.87175550549E+02 -0.23049202075E+03  0.10576564622E+04  0.95000000000E+03 0.  0.
   -2000013    1    1    2    0    0 -0.39422207421E+03  0.87175550549E+02 -0.10284610153E+04  0.14571350934E+04  0.95000000000E+03 0.  0.
<mgrwt>
<rscale>  0 0.21769735E+04</rscale>
<asrwt>0</asrwt>
<pdfrwt beam="2">  1        1 0.29028804E+00 0.21769735E+04</pdfrwt>
<pdfrwt beam="1">  1       -1 0.96602963E-01 0.21769735E+04</pdfrwt>
<totfact> 0.33494359E+00</totfact>
</mgrwt>
</event>
<event>
 4    1  0.1308745E-008  0.2486164E+04  0.7816531E-02  0.8407931E-01
          2   -1    0    0  501    0  0.00000000000E+00  0.00000000000E+00  0.20142807711E+04  0.20142807711E+04  0.00000000000E+00 0.  1.
         -2   -1    0    0    0  501 -0.00000000000E+00 -0.00000000000E+00 -0.76714852133E+03  0.76714852133E+03  0.00000000000E+00 0. -1.
    2000013    1    1    2    0    0 -0.32214282901E+02 -0.79655801817E+03  0.52856947195E+03  0.13481202183E+04  0.95000000000E+03 0.  0.
   -2000013    1    1    2    0    0  0.32214282901E+02  0.79655801817E+03  0.71856277785E+03  0.14333090742E+04  0.95000000000E+03 0.  0.
<mgrwt>
<rscale>  0 0.24861637E+04</rscale>
<asrwt>0</asrwt>
<pdfrwt beam="1">  1        2 0.30988935E+00 0.24861637E+04</pdfrwt>
<pdfrwt beam="2">  1       -2 0.11802285E+00 0.24861637E+04</pdfrwt>
<totfact> 0.32410417E+00</totfact>
</mgrwt>
</event>
<event>
 4    1  0.1308745E-008  0.2805279E+04  0.7816531E-02  0.8301631E-01
          2   -1    0    0  501    0  0.00000000000E+00  0.00000000000E+00  0.13675162861E+04  0.13675162861E+04  0.00000000000E+00 0.  1.
         -2   -1    0    0    0  501 -0.00000000000E+00 -0.00000000000E+00 -0.14386643202E+04  0.14386643202E+04  0.00000000000E+00 0. -1.
    2000013    1    1    2    0    0 -0.10168386791E+04  0.11446311864E+03 -0.16916164708E+03  0.14064772901E+04  0.95000000000E+03 0.  0.
   -2000013    1    1    2    0    0  0.10168386791E+04 -0.11446311864E+03  0.98013613041E+02  0.13997033161E+04  0.95000000000E+03 0.  0.
<mgrwt>
<rscale>  0 0.28052785E+04</rscale>
<asrwt>0</asrwt>
<pdfrwt beam="1">  1        2 0.21038712E+00 0.28052785E+04</pdfrwt>
<pdfrwt beam="2">  1       -2 0.22133297E+00 0.28052785E+04</pdfrwt>
<totfact> 0.12736548E+00</totfact>
</mgrwt>
</event>
<event>
 4    1  0.1308745E-008  0.2036729E+04  0.7816531E-02  0.8589639E-01
          2   -1    0    0  501    0  0.00000000000E+00  0.00000000000E+00  0.31113074473E+04  0.31113074473E+04  0.00000000000E+00 0.  1.
         -2   -1    0    0    0  501 -0.00000000000E+00 -0.00000000000E+00 -0.33332167412E+03  0.33332167412E+03  0.00000000000E+00 0. -1.
    2000013    1    1    2    0    0  0.33473546167E+03  0.11963553549E+03  0.15421959620E+04  0.18458680549E+04  0.95000000000E+03 0.  0.
   -2000013    1    1    2    0    0 -0.33473546167E+03 -0.11963553549E+03  0.12357898112E+04  0.15987610666E+04  0.95000000000E+03 0.  0.
<mgrwt>
<rscale>  0 0.20367290E+04</rscale>
<asrwt>0</asrwt>
<pdfrwt beam="1">  1        2 0.47866267E+00 0.20367290E+04</pdfrwt>
<pdfrwt beam="2">  1       -2 0.51280259E-01 0.20367290E+04</pdfrwt>
<totfact> 0.49394421E+00</totfact>
</mgrwt>
</event>
<event>
 4    1  0.1308745E-008  0.3353818E+04  0.7816531E-02  0.8149335E-01
          2   -1    0    0  501    0  0.00000000000E+00  0.00000000000E+00  0.32199918505E+04  0.32199918505E+04  0.00000000000E+00 0.  1.
         -2   -1    0    0    0  501 -0.00000000000E+00 -0.00000000000E+00 -0.87330175082E+03  0.87330175082E+03  0.00000000000E+00 0. -1.
    2000013    1    1    2    0    0  0.25958065346E+03 -0.12670035912E+04  0.57937462312E+03  0.17061228472E+04  0.95000000000E+03 0.  0.
   -2000013    1    1    2    0    0 -0.25958065346E+03  0.12670035912E+04  0.17673154765E+04  0.23871707541E+04  0.95000000000E+03 0.  0.
<mgrwt>
<rscale>  0 0.33538184E+04</rscale>
<asrwt>0</asrwt>
<pdfrwt beam="1">  1        2 0.49538335E+00 0.33538184E+04</pdfrwt>
<pdfrwt beam="2">  1       -2 0.13435412E+00 0.33538184E+04</pdfrwt>
<totfact> 0.41744676E-01</totfact>
</mgrwt>
</event>
<event>
 4    1  0.1308745E-008  0.1998024E+04  0.7816531E-02  0.8607545E-01
          2   -1    0    0  501    0  0.00000000000E+00  0.00000000000E+00  0.18561788123E+04  0.18561788123E+04  0.00000000000E+00 0.  1.
         -2   -1    0    0    0  501 -0.00000000000E+00 -0.00000000000E+00 -0.53767690819E+03  0.53767690819E+03  0.00000000000E+00 0. -1.
    2000013    1    1    2    0    0  0.30505251794E+03 -0.44017370170E+02  0.63167049769E+03  0.11817369357E+04  0.95000000000E+03 0.  0.
   -2000013    1    1    2    0    0 -0.30505251794E+03  0.44017370170E+02  0.68683140642E+03  0.12121187848E+04  0.95000000000E+03 0.  0.
<mgrwt>
<rscale>  0 0.19980235E+04</rscale>
<asrwt>0</asrwt>
<pdfrwt beam="1">  1        2 0.28556597E+00 0.19980235E+04</pdfrwt>
<pdfrwt beam="2">  1       -2 0.82719525E-01 0.19980235E+04</pdfrwt>
<totfact> 0.95641221E+00</totfact>
</mgrwt>
</event>
<event>
 4    1  0.1308745E-008  0.2343651E+04  0.7816531E-02  0.8460906E-01
          2   -1    0    0  501    0  0.00000000000E+00  0.00000000000E+00  0.13111339401E+04  0.13111339401E+04  0.00000000000E+00 0.  1.
         -2   -1    0    0    0  501 -0.00000000000E+00 -0.00000000000E+00 -0.10473188624E+04  0.10473188624E+04  0.00000000000E+00 0. -1.
    2000013    1    1    2    0    0  0.27042664354E+02  0.67750459318E+03  0.23712180229E+03  0.11909956039E+04  0.95000000000E+03 0.  0.
   -2000013    1    1    2    0    0 -0.27042664354E+02 -0.67750459318E+03  0.26693275343E+02  0.11674571985E+04  0.95000000000E+03 0.  0.
<mgrwt>
<rscale>  0 0.23436513E+04</rscale>
<asrwt>0</asrwt>
<pdfrwt beam="1">  1        2 0.20171291E+00 0.23436513E+04</pdfrwt>
<pdfrwt beam="2">  1       -2 0.16112598E+00 0.23436513E+04</pdfrwt>
<totfact> 0.36361418E+00</totfact>
</mgrwt>
</event>
<event>
 4    1  0.1308745E-008  0.3113571E+04  0.7816531E-02  0.8212023E-01
          2   -1    0    0  501    0  0.00000000000E+00  0.00000000000E+00  0.19247269147E+04  0.19247269147E+04  0.00000000000E+00 0.  1.
         -2   -1    0    0    0  501 -0.00000000000E+00 -0.00000000000E+00 -0.12591818184E+04  0.12591818184E+04  0.00000000000E+00 0. -1.
    2000013    1    1    2    0    0  0.11378935055E+04 -0.94765542965E+02 -0.14391158361E+03  0.14923111880E+04  0.95000000000E+03 0.  0.
   -2000013    1    1    2    0    0 -0.11378935055E+04  0.94765542965E+02  0.80945667990E+03  0.16915975451E+04  0.95000000000E+03 0.  0.
<mgrwt>
<rscale>  0 0.31135710E+04</rscale>
<asrwt>0</asrwt>
<pdfrwt beam="1">  1        2 0.29611183E+00 0.31135710E+04</pdfrwt>
<pdfrwt beam="2">  1       -2 0.19372028E+00 0.31135710E+04</pdfrwt>
<totfact> 0.91329747E-01</totfact>
</mgrwt>
</event>
<event>
 4    1  0.1308745E-008  0.2852286E+04  0.7816531E-02  0.8287217E-01
         -2   -1    0    0    0  501 -0.00000000000E+00  0.00000000000E+00  0.73146090757E+03  0.73146090757E+03  0.00000000000E+00 0. -1.
          2   -1    0    0  501    0  0.00000000000E+00 -0.00000000000E+00 -0.27805775413E+04  0.27805775413E+04  0.00000000000E+00 0.  1.
    2000013    1    1    2    0    0 -0.31975983943E+03 -0.58751564120E+03 -0.20428740123E+04  0.23501606783E+04  0.95000000000E+03 0.  0.
   -2000013    1    1    2    0    0  0.31975983943E+03  0.58751564120E+03 -0.62426214608E+01  0.11618777706E+04  0.95000000000E+03 0.  0.
<mgrwt>
<rscale>  0 0.28522859E+04</rscale>
<asrwt>0</asrwt>
<pdfrwt beam="2">  1        2 0.42778116E+00 0.28522859E+04</pdfrwt>
<pdfrwt beam="1">  1       -2 0.11253245E+00 0.28522859E+04</pdfrwt>
<totfact> 0.12792209E+00</totfact>
</mgrwt>
</event>
<event>
 4    1  0.1308745E-008  0.3022295E+04  0.7816531E-02  0.8237393E-01
         -2   -1    0    0    0  501 -0.00000000000E+00  0.00000000000E+00  0.86975289911E+03  0.86975289911E+03  0.00000000000E+00 0. -1.
          2   -1    0    0  501    0  0.00000000000E+00 -0.00000000000E+00 -0.26255346188E+04  0.26255346188E+04  0.00000000000E+00 0.  1.
    2000013    1    1    2    0    0  0.58146528490E+03 -0.49980552190E+03 -0.19078647057E+04  0.22650287355E+04  0.95000000000E+03 0.  0.
   -2000013    1    1    2    0    0 -0.58146528490E+03  0.49980552190E+03  0.15208298596E+03  0.12302587825E+04  0.95000000000E+03 0.  0.
<mgrwt>
<rscale>  0 0.30222947E+04</rscale>
<asrwt>0</asrwt>
<pdfrwt beam="2">  1        2 0.40392840E+00 0.30222947E+04</pdfrwt>
<pdfrwt beam="1">  1       -2 0.13380814E+00 0.30222947E+04</pdfrwt>
<totfact> 0.10133454E+00</totfact>
</mgrwt>
</event>
<event>
 4    1  0.1308745E-008  0.3157585E+04  0.7816531E-02  0.8200110E-01
         -2   -1    0    0    0  501 -0.00000000000E+00  0.00000000000E+00  0.13757285559E+04  0.13757285559E+04  0.00000000000E+00 0. -1.
          2   -1    0    0  501    0  0.00000000000E+00 -0.00000000000E+00 -0.18118293383E+04  0.18118293383E+04  0.00000000000E+00 0.  1.
    2000013    1    1    2    0    0  0.11641475491E+04 -0.43969639640E+03 -0.12369134510E+02  0.15656389854E+04  0.95000000000E+03 0.  0.
   -2000013    1    1    2    0    0 -0.11641475491E+04  0.43969639640E+03 -0.42373164789E+03  0.16219189088E+04  0.95000000000E+03 0.  0.
<mgrwt>
<rscale>  0 0.31575847E+04</rscale>
<asrwt>0</asrwt>
<pdfrwt beam="2">  1        2 0.27874298E+00 0.31575847E+04</pdfrwt>
<pdfrwt beam="1">  1       -2 0.21165055E+00 0.31575847E+04</pdfrwt>
<totfact> 0.80259944E-01</totfact>
</mgrwt>
</event>
<event>
 4    1  0.1308745E-008  0.2415354E+04  0.7816531E-02  0.8433777E-01
         -2   -1    0    0    0  501 -0.00000000000E+00  0.00000000000E+00  0.11445589841E+04  0.11445589841E+04  0.00000000000E+00 0. -1.
          2   -1    0    0  501    0  0.00000000000E+00 -0.00000000000E+00 -0.12742758845E+04  0.12742758845E+04  0.00000000000E+00 0.  1.
    2000013    1    1    2    0    0 -0.71778664641E+03 -0.14803815901E+03  0.72638153891E+02  0.12020437878E+04  0.95000000000E+03 0.  0.
   -2000013    1    1    2    0    0  0.71778664641E+03  0.14803815901E+03 -0.20235505426E+03  0.12167910808E+04  0.95000000000E+03 0.  0.
<mgrwt>
<rscale>  0 0.24153541E+04</rscale>
<asrwt>0</asrwt>
<pdfrwt beam="2">  1        2 0.19604244E+00 0.24153541E+04</pdfrwt>
<pdfrwt beam="1">  1       -2 0.17608600E+00 0.24153541E+04</pdfrwt>
<totfact> 0.29677191E+00</totfact>
</mgrwt>
</event>
<event>
 4    1  0.1308745E-008  0.2385336E+04  0.7816531E-02  0.8445014E-01
          2   -1    0    0  501    0  0.00000000000E+00  0.00000000000E+00  0.13355769962E+04  0.13355769962E+04  0.00000000000E+00 0.  1.
         -2   -1    0    0    0  501 -0.00000000000E+00 -0.00000000000E+00 -0.10650503274E+04  0.10650503274E+04  0.00000000000E+00 0. -1.
    2000013    1    1    2    0    0 -0.89634300732E+02 -0.71425620213E+03  0.17749046927E+03  0.12050722372E+04  0.95000000000E+03 0.  0.
   -2000013    1    1    2    0    0  0.89634300732E+02  0.71425620213E+03  0.93036199581E+02  0.11955550864E+04  0.95000000000E+03 0.  0.
<mgrwt>
<rscale>  0 0.23853358E+04</rscale>
<asrwt>0</asrwt>
<pdfrwt beam="1">  1        2 0.20547338E+00 0.23853358E+04</pdfrwt>
<pdfrwt beam="2">  1       -2 0.16385390E+00 0.23853358E+04</pdfrwt>
<totfact> 0.33494455E+00</totfact>
</mgrwt>
</event>
<event>
 4    1  0.1308745E-008  0.2578365E+04  0.7816531E-02  0.8375588E-01
          2   -1    0    0  501    0  0.00000000000E+00  0.00000000000E+00  0.10618803889E+04  0.10618803889E+04  0.00000000000E+00 0.  1.
         -2   -1    0    0    0  501 -0.00000000000E+00 -0.00000000000E+00 -0.15651397366E+04  0.15651397366E+04  0.00000000000E+00 0. -1.
    2000013    1    1    2    0    0  0.46664097493E+03 -0.73590709805E+03 -0.23803106185E+03  0.13109049709E+04  0.95000000000E+03 0.  0.
   -2000013    1    1    2    0    0 -0.46664097493E+03  0.73590709805E+03 -0.26522828576E+03  0.13161151545E+04  0.95000000000E+03 0.  0.
<mgrwt>
<rscale>  0 0.25783647E+04</rscale>
<asrwt>0</asrwt>
<pdfrwt beam="1">  1        2 0.16336621E+00 0.25783647E+04</pdfrwt>
<pdfrwt beam="2">  1       -2 0.24079073E+00 0.25783647E+04</pdfrwt>
<totfact> 0.14932865E+00</totfact>
</mgrwt>
</event>
<event>
 4    1  0.1308745E-008  0.2031397E+04  0.7816531E-02  0.8592081E-01
         -2   -1    0    0    0  501 -0.00000000000E+00  0.00000000000E+00  0.70893554376E+03  0.70893554376E+03  0.00000000000E+00 0. -1.
          2   -1    0    0  501    0  0.00000000000E+00 -0.00000000000E+00 -0.14552001180E+04  0.14552001180E+04  0.00000000000E+00 0.  1.
    2000013    1    1    2    0    0  0.32560544528E+03 -0.14002358403E+03 -0.30994764264E+03  0.10602797043E+04  0.95000000000E+03 0.  0.
   -2000013    1    1    2    0    0 -0.32560544528E+03  0.14002358403E+03 -0.43631693160E+03  0.11038559575E+04  0.95000000000E+03 0.  0.
<mgrwt>
<rscale>  0 0.20313966E+04</rscale>
<asrwt>0</asrwt>
<pdfrwt beam="2">  1        2 0.22387694E+00 0.20313966E+04</pdfrwt>
<pdfrwt beam="1">  1       -2 0.10906701E+00 0.20313966E+04</pdfrwt>
<totfact> 0.83662158E+00</totfact>
</mgrwt>
</event>
<event>
 4    1  0.1308745E-008  0.3327184E+04  0.7816531E-02  0.8156013E-01
          2   -1    0    0  501    0  0.00000000000E+00  0.00000000000E+00  0.79972449630E+03  0.79972449630E+03  0.00000000000E+00 0.  1.
         -2   -1    0    0    0  501 -0.00000000000E+00 -0.00000000000E+00 -0.34606151574E+04  0.34606151574E+04  0.00000000000E+00 0. -1.
    2000013    1    1    2    0    0 -0.11091825069E+04  0.78903111679E+03 -0.11891133258E+04  0.20418977542E+04  0.95000000000E+03 0.  0.
   -2000013    1    1    2    0    0  0.11091825069E+04 -0.78903111679E+03 -0.14717773353E+04  0.22184418995E+04  0.95000000000E+03 0.  0.
<mgrwt>
<rscale>  0 0.33271842E+04</rscale>
<asrwt>0</asrwt>
<pdfrwt beam="1">  1        2 0.12303454E+00 0.33271842E+04</pdfrwt>
<pdfrwt beam="2">  1       -2 0.53240232E+00 0.33271842E+04</pdfrwt>
<totfact> 0.30359428E-02</totfact>
</mgrwt>
</event>
<event>
 4    1  0.1308745E-008  0.2552538E+04  0.7816531E-02  0.8384504E-01
          2   -1    0    0  501    0  0.00000000000E+00  0.00000000000E+00  0.21683616062E+04  0.21683616062E+04  0.00000000000E+00 0.  1.
         -2   -1    0    0    0  501 -0.00000000000E+00 -0.00000000000E+00 -0.75119488405E+03  0.75119488405E+03  0.00000000000E+00 0. -1.
    2000013    1    1    2    0    0 -0.32596398912E+03  0.30154846183E+03  0.15406261730E+04  0.18636558164E+04  0.95000000000E+03 0.  0.
   -2000013    1    1    2    0    0  0.32596398912E+03 -0.30154846183E+03 -0.12345945085E+03  0.10559006739E+04  0.95000000000E+03 0.  0.
<mgrwt>
<rscale>  0 0.25525377E+04</rscale>
<asrwt>0</asrwt>
<pdfrwt beam="1">  1        2 0.33359409E+00 0.25525377E+04</pdfrwt>
<pdfrwt beam="2">  1       -2 0.11556844E+00 0.25525377E+04</pdfrwt>
<totfact> 0.27829696E+00</totfact>
</mgrwt>
</event>
<event>
 4    1  0.1308745E-008  0.2741612E+04  0.7816531E-02  0.8321628E-01
          1   -1    0    0  501    0  0.00000000000E+00  0.00000000000E+00  0.33359175025E+04  0.33359175025E+04  0.00000000000E+00 0.  1.
         -1   -1    0    0    0  501 -0.00000000000E+00 -0.00000000000E+00 -0.56329619004E+03  0.56329619004E+03  0.00000000000E+00 0. -1.
    2000013    1    1    2    0    0 -0.95728688960E+03  0.23593067772E+03  0.14822260183E+04  0.20178095656E+04  0.95000000000E+03 0.  0.
   -2000013    1    1    2    0    0  0.95728688960E+03 -0.23593067772E+03  0.12903952941E+04  0.18814041269E+04  0.95000000000E+03 0.  0.
<mgrwt>
<rscale>  0 0.27416124E+04</rscale>
<asrwt>0</asrwt>
<pdfrwt beam="1">  1        1 0.51321806E+00 0.27416124E+04</pdfrwt>
<pdfrwt beam="2">  1       -1 0.86660954E-01 0.27416124E+04</pdfrwt>
<totfact> 0.38272881E-01</totfact>
</mgrwt>
</event>
<event>
 4    1  0.1308745E-008  0.2366337E+04  0.7816531E-02  0.8452215E-01
         -2   -1    0    0    0  501 -0.00000000000E+00  0.00000000000E+00  0.89153197156E+03  0.89153197156E+03  0.00000000000E+00 0. -1.
          2   -1    0    0  501    0  0.00000000000E+00 -0.00000000000E+00 -0.15702049315E+04  0.15702049315E+04  0.00000000000E+00 0.  1.
    2000013    1    1    2    0    0  0.27912304756E+02 -0.65105121689E+03 -0.58757594116E+02  0.11535160331E+04  0.95000000000E+03 0.  0.
   -2000013    1    1    2    0    0 -0.27912304756E+02  0.65105121689E+03 -0.61991536580E+03  0.13082208699E+04  0.95000000000E+03 0.  0.
<mgrwt>
<rscale>  0 0.23663372E+04</rscale>
<asrwt>0</asrwt>
<pdfrwt beam="2">  1        2 0.24156998E+00 0.23663372E+04</pdfrwt>
<pdfrwt beam="1">  1       -2 0.13715877E+00 0.23663372E+04</pdfrwt>
<totfact> 0.39589163E+00</totfact>
</mgrwt>
</event>
<event>
 4    1  0.1308745E-008  0.2900517E+04  0.7816531E-02  0.8272724E-01
          2   -1    0    0  501    0  0.00000000000E+00  0.00000000000E+00  0.24003983916E+04  0.24003983916E+04  0.00000000000E+00 0.  1.
         -2   -1    0    0    0  501 -0.00000000000E+00 -0.00000000000E+00 -0.87620853031E+03  0.87620853031E+03  0.00000000000E+00 0. -1.
    2000013    1    1    2    0    0 -0.32578146170E+03  0.86082270093E+03  0.90348702135E+02  0.13258250907E+04  0.95000000000E+03 0.  0.
   -2000013    1    1    2    0    0  0.32578146170E+03 -0.86082270093E+03  0.14338411592E+04  0.19507818312E+04  0.95000000000E+03 0.  0.
<mgrwt>
<rscale>  0 0.29005169E+04</rscale>
<asrwt>0</asrwt>
<pdfrwt beam="1">  1        2 0.36929206E+00 0.29005169E+04</pdfrwt>
<pdfrwt beam="2">  1       -2 0.13480131E+00 0.29005169E+04</pdfrwt>
<totfact> 0.13577435E+00</totfact>
</mgrwt>
</event>
<event>
 4    1  0.1308745E-008  0.2641104E+04  0.7816531E-02  0.8354372E-01
         -2   -1    0    0    0  501 -0.00000000000E+00  0.00000000000E+00  0.10028766883E+04  0.10028766883E+04  0.00000000000E+00 0. -1.
          2   -1    0    0  501    0  0.00000000000E+00 -0.00000000000E+00 -0.17388556678E+04  0.17388556678E+04  0.00000000000E+00 0.  1.
    2000013    1    1    2    0    0 -0.80311231542E+03 -0.13029509779E+03 -0.80767341626E+03  0.14888930623E+04  0.95000000000E+03 0.  0.
   -2000013    1    1    2    0    0  0.80311231542E+03  0.13029509779E+03  0.71694436798E+02  0.12528392937E+04  0.95000000000E+03 0.  0.
<mgrwt>
<rscale>  0 0.26411042E+04</rscale>
<asrwt>0</asrwt>
<pdfrwt beam="2">  1        2 0.26751626E+00 0.26411042E+04</pdfrwt>
<pdfrwt beam="1">  1       -2 0.15428872E+00 0.26411042E+04</pdfrwt>
<totfact> 0.22865050E+00</totfact>
</mgrwt>
</event>
<event>
 4    1  0.1308745E-008  0.2498070E+04  0.7816531E-02  0.8403674E-01
          1   -1    0    0  501    0  0.00000000000E+00  0.00000000000E+00  0.10850344211E+04  0.10850344211E+04  0.00000000000E+00 0.  1.
         -1   -1    0    0    0  501 -0.00000000000E+00 -0.00000000000E+00 -0.14378234092E+04  0.14378234092E+04  0.00000000000E+00 0. -1.
    2000013    1    1    2    0    0  0.29336444894E+03 -0.75214238432E+03 -0.25335449551E+03  0.12721907744E+04  0.95000000000E+03 0.  0.
   -2000013    1    1    2    0    0 -0.29336444894E+03  0.75214238432E+03 -0.99434492577E+02  0.12506670558E+04  0.95000000000E+03 0.  0.
<mgrwt>
<rscale>  0 0.24980696E+04</rscale>
<asrwt>0</asrwt>
<pdfrwt beam="1">  1        1 0.16692837E+00 0.24980696E+04</pdfrwt>
<pdfrwt beam="2">  1       -1 0.22120360E+00 0.24980696E+04</pdfrwt>
<totfact> 0.12490823E+00</totfact>
</mgrwt>
</event>
<event>
 4    1  0.1308745E-008  0.2147842E+04  0.7816531E-02  0.8540456E-01
         -2   -1    0    0    0  501 -0.00000000000E+00  0.00000000000E+00  0.17906485426E+04  0.17906485426E+04  0.00000000000E+00 0. -1.
          2   -1    0    0  501    0  0.00000000000E+00 -0.00000000000E+00 -0.64407208716E+03  0.64407208716E+03  0.00000000000E+00 0.  1.
    2000013    1    1    2    0    0 -0.10358688239E+03  0.46705913840E+03  0.40541229095E+03  0.11383029503E+04  0.95000000000E+03 0.  0.
   -2000013    1    1    2    0    0  0.10358688239E+03 -0.46705913840E+03  0.74116416450E+03  0.12964176795E+04  0.95000000000E+03 0.  0.
<mgrwt>
<rscale>  0 0.21478424E+04</rscale>
<asrwt>0</asrwt>
<pdfrwt beam="2">  1        2 0.99088014E-01 0.21478424E+04</pdfrwt>
<pdfrwt beam="1">  1       -2 0.27548439E+00 0.21478424E+04</pdfrwt>
<totfact> 0.18734244E+00</totfact>
</mgrwt>
</event>
<event>
 4    1  0.1308745E-008  0.2153771E+04  0.7816531E-02  0.8537920E-01
          2   -1    0    0  501    0  0.00000000000E+00  0.00000000000E+00  0.35508304932E+04  0.35508304932E+04  0.00000000000E+00 0.  1.
         -2   -1    0    0    0  501 -0.00000000000E+00 -0.00000000000E+00 -0.32659482960E+03  0.32659482960E+03  0.00000000000E+00 0. -1.
    2000013    1    1    2    0    0 -0.25884978641E+03  0.40403069012E+03  0.19076015166E+04  0.21844192722E+04  0.95000000000E+03 0.  0.
   -2000013    1    1    2    0    0  0.25884978641E+03 -0.40403069012E+03  0.13166341470E+04  0.16930060507E+04  0.95000000000E+03 0.  0.
<mgrwt>
<rscale>  0 0.21537715E+04</rscale>
<asrwt>0</asrwt>
<pdfrwt beam="1">  1        2 0.54628159E+00 0.21537715E+04</pdfrwt>
<pdfrwt beam="2">  1       -2 0.50245361E-01 0.21537715E+04</pdfrwt>
<totfact> 0.25843336E+00</totfact>
</mgrwt>
</event>
<event>
 4    1  0.1308745E-008  0.2858703E+04  0.7816531E-02  0.8285272E-01
          2   -1    0    0  501    0  0.00000000000E+00  0.00000000000E+00  0.16488641491E+04  0.16488641491E+04  0.00000000000E+00 0.  1.
         -2   -1    0    0    0  501 -0.00000000000E+00 -0.00000000000E+00 -0.12390622514E+04  0.12390622514E+04  0.00000000000E+00 0. -1.
    2000013    1    1    2    0    0 -0.92301069217E+03 -0.53368095153E+03  0.26702125895E+03  0.14527781829E+04  0.95000000000E+03 0.  0.
   -2000013    1    1    2    0    0  0.92301069217E+03  0.53368095153E+03  0.14278063873E+03  0.14351482177E+04  0.95000000000E+03 0.  0.
<mgrwt>
<rscale>  0 0.28587027E+04</rscale>
<asrwt>0</asrwt>
<pdfrwt beam="1">  1        2 0.25367141E+00 0.28587027E+04</pdfrwt>
<pdfrwt beam="2">  1       -2 0.19062496E+00 0.28587027E+04</pdfrwt>
<totfact> 0.13923341E+00</totfact>
</mgrwt>
</event>
<event>
 4    1  0.1308745E-008  0.2301640E+04  0.7816531E-02  0.8477275E-01
          2   -1    0    0  501    0  0.00000000000E+00  0.00000000000E+00  0.20464766479E+04  0.20464766479E+04  0.00000000000E+00 0.  1.
         -2   -1    0    0    0  501 -0.00000000000E+00 -0.00000000000E+00 -0.64715477782E+03  0.64715477782E+03  0.00000000000E+00 0. -1.
    2000013    1    1    2    0    0  0.12467518509E+03  0.21198799379E+03  0.14032148308E+04  0.17123068278E+04  0.95000000000E+03 0.  0.
   -2000013    1    1    2    0    0 -0.12467518509E+03 -0.21198799379E+03 -0.38929607014E+01  0.98132459789E+03  0.95000000000E+03 0.  0.
<mgrwt>
<rscale>  0 0.23016404E+04</rscale>
<asrwt>0</asrwt>
<pdfrwt beam="1">  1        2 0.31484256E+00 0.23016404E+04</pdfrwt>
<pdfrwt beam="2">  1       -2 0.99562274E-01 0.23016404E+04</pdfrwt>
<totfact> 0.47620035E+00</totfact>
</mgrwt>
</event>
<event>
 4    1  0.1308745E-008  0.2189948E+04  0.7816531E-02  0.8522624E-01
         -1   -1    0    0    0  501 -0.00000000000E+00  0.00000000000E+00  0.36426328034E+03  0.36426328034E+03  0.00000000000E+00 0. -1.
          1   -1    0    0  501    0  0.00000000000E+00 -0.00000000000E+00 -0.32914867331E+04  0.32914867331E+04  0.00000000000E+00 0.  1.
    2000013    1    1    2    0    0  0.48436043934E+03  0.24124910093E+03 -0.13625986398E+04  0.17469920484E+04  0.95000000000E+03 0.  0.
   -2000013    1    1    2    0    0 -0.48436043934E+03 -0.24124910093E+03 -0.15646248130E+04  0.19087579651E+04  0.95000000000E+03 0.  0.
<mgrwt>
<rscale>  0 0.21899477E+04</rscale>
<asrwt>0</asrwt>
<pdfrwt beam="2">  1        1 0.50638259E+00 0.21899477E+04</pdfrwt>
<pdfrwt beam="1">  1       -1 0.56040503E-01 0.21899477E+04</pdfrwt>
<totfact> 0.10676159E+00</totfact>
</mgrwt>
</event>
<event>
 4    1  0.1308745E-008  0.2455090E+04  0.7816531E-02  0.8419162E-01
          2   -1    0    0  501    0  0.00000000000E+00  0.00000000000E+00  0.12024762464E+04  0.12024762464E+04  0.00000000000E+00 0.  1.
         -2   -1    0    0    0  501 -0.00000000000E+00 -0.00000000000E+00 -0.12531366002E+04  0.12531366002E+04  0.00000000000E+00 0. -1.
    2000013    1    1    2    0    0  0.74447139964E+03 -0.21306383288E+03  0.43482240332E+02  0.12263867934E+04  0.95000000000E+03 0.  0.
   -2000013    1    1    2    0    0 -0.74447139964E+03  0.21306383288E+03 -0.94142594167E+02  0.12292260532E+04  0.95000000000E+03 0.  0.
<mgrwt>
<rscale>  0 0.24550902E+04</rscale>
<asrwt>0</asrwt>
<pdfrwt beam="1">  1        2 0.18499635E+00 0.24550902E+04</pdfrwt>
<pdfrwt beam="2">  1       -2 0.19279025E+00 0.24550902E+04</pdfrwt>
<totfact> 0.25087722E+00</totfact>
</mgrwt>
</event>
<event>
 4    1  0.1308745E-008  0.2289384E+04  0.7816531E-02  0.8482119E-01
          1   -1    0    0  501    0  0.00000000000E+00  0.00000000000E+00  0.16111036339E+04  0.16111036339E+04  0.00000000000E+00 0.  1.
         -1   -1    0    0    0  501 -0.00000000000E+00 -0.00000000000E+00 -0.81330542464E+03  0.81330542464E+03  0.00000000000E+00 0. -1.
    2000013    1    1    2    0    0  0.45031901226E+03 -0.26221805213E+02  0.87760506719E+03  0.13697318898E+04  0.95000000000E+03 0.  0.
   -2000013    1    1    2    0    0 -0.45031901226E+03  0.26221805213E+02 -0.79806857888E+02  0.10546771688E+04  0.95000000000E+03 0.  0.
<mgrwt>
<rscale>  0 0.22893836E+04</rscale>
<asrwt>0</asrwt>
<pdfrwt beam="1">  1        1 0.24786210E+00 0.22893836E+04</pdfrwt>
<pdfrwt beam="2">  1       -1 0.12512391E+00 0.22893836E+04</pdfrwt>
<totfact> 0.27691071E+00</totfact>
</mgrwt>
</event>
<event>
 4    1  0.1308745E-008  0.2856982E+04  0.7816531E-02  0.8285793E-01
         -2   -1    0    0    0  501 -0.00000000000E+00  0.00000000000E+00  0.71907003159E+03  0.71907003159E+03  0.00000000000E+00 0. -1.
          2   -1    0    0  501    0  0.00000000000E+00 -0.00000000000E+00 -0.28378128216E+04  0.28378128216E+04  0.00000000000E+00 0.  1.
    2000013    1    1    2    0    0  0.69732016342E+03 -0.76776506448E+03 -0.13702862287E+04  0.19636453226E+04  0.95000000000E+03 0.  0.
   -2000013    1    1    2    0    0 -0.69732016342E+03  0.76776506448E+03 -0.74845656131E+03  0.15932375305E+04  0.95000000000E+03 0.  0.
<mgrwt>
<rscale>  0 0.28569817E+04</rscale>
<asrwt>0</asrwt>
<pdfrwt beam="2">  1        2 0.43658659E+00 0.28569817E+04</pdfrwt>
<pdfrwt beam="1">  1       -2 0.11062616E+00 0.28569817E+04</pdfrwt>
<totfact> 0.12305000E+00</totfact>
</mgrwt>
</event>
<event>
 4    1  0.1308745E-008  0.2631539E+04  0.7816531E-02  0.8357567E-01
          2   -1    0    0  501    0  0.00000000000E+00  0.00000000000E+00  0.38730727832E+04  0.38730727832E+04  0.00000000000E+00 0.  1.
         -2   -1    0    0    0  501 -0.00000000000E+00 -0.00000000000E+00 -0.44699619578E+03  0.44699619578E+03  0.00000000000E+00 0. -1.
    2000013    1    1    2    0    0  0.81321941401E+03  0.15605699160E+03  0.10920920311E+04  0.16675864608E+04  0.95000000000E+03 0.  0.
   -2000013    1    1    2    0    0 -0.81321941401E+03 -0.15605699160E+03  0.23339845563E+04  0.26524825181E+04  0.95000000000E+03 0.  0.
<mgrwt>
<rscale>  0 0.26315386E+04</rscale>
<asrwt>0</asrwt>
<pdfrwt beam="1">  1        2 0.59585733E+00 0.26315386E+04</pdfrwt>
<pdfrwt beam="2">  1       -2 0.68768648E-01 0.26315386E+04</pdfrwt>
<totfact> 0.73678686E-01</totfact>
</mgrwt>
</event>
<event>
 4    1  0.1308745E-008  0.2158062E+04  0.7816531E-02  0.8536089E-01
          2   -1    0    0  501    0  0.00000000000E+00  0.00000000000E+00  0.43827606663E+04  0.43827606663E+04  0.00000000000E+00 0.  1.
         -2   -1    0    0    0  501 -0.00000000000E+00 -0.00000000000E+00 -0.26565634319E+03  0.26565634319E+03  0.00000000000E+00 0. -1.
    2000013    1    1    2    0    0 -0.33615956613E+03 -0.11033209046E+03  0.12623617834E+04  0.16190224509E+04  0.95000000000E+03 0.  0.
   -2000013    1    1    2    0    0  0.33615956613E+03  0.11033209046E+03  0.28547425396E+04  0.30293945586E+04  0.95000000000E+03 0.  0.
<mgrwt>
<rscale>  0 0.21580623E+04</rscale>
<asrwt>0</asrwt>
<pdfrwt beam="1">  1        2 0.67427082E+00 0.21580623E+04</pdfrwt>
<pdfrwt beam="2">  1       -2 0.40870210E-01 0.21580623E+04</pdfrwt>
<totfact> 0.83774536E-01</totfact>
</mgrwt>
</event>
<event>
 4    1  0.1308745E-008  0.2728040E+04  0.7816531E-02  0.8325964E-01
         -2   -1    0    0    0  501 -0.00000000000E+00  0.00000000000E+00  0.10398539892E+04  0.10398539892E+04  0.00000000000E+00 0. -1.
          2   -1    0    0  501    0  0.00000000000E+00 -0.00000000000E+00 -0.17892423235E+04  0.17892423235E+04  0.00000000000E+00 0.  1.
    2000013    1    1    2    0    0  0.69711626733E+03 -0.67752733299E+03 -0.49310069779E+03  0.14459124024E+04  0.95000000000E+03 0.  0.
   -2000013    1    1    2    0    0 -0.69711626733E+03  0.67752733299E+03 -0.25628763654E+03  0.13831839103E+04  0.95000000000E+03 0.  0.
<mgrwt>
<rscale>  0 0.27280402E+04</rscale>
<asrwt>0</asrwt>
<pdfrwt beam="2">  1        2 0.27526804E+00 0.27280402E+04</pdfrwt>
<pdfrwt beam="1">  1       -2 0.15997754E+00 0.27280402E+04</pdfrwt>
<totfact> 0.19298342E+00</totfact>
</mgrwt>
</event>
<event>
 4    1  0.1308745E-008  0.2336764E+04  0.7816531E-02  0.8463565E-01
          2   -1    0    0  501    0  0.00000000000E+00  0.00000000000E+00  0.21911873769E+04  0.21911873769E+04  0.00000000000E+00 0.  1.
         -2   -1    0    0    0  501 -0.00000000000E+00 -0.00000000000E+00 -0.62300301336E+03  0.62300301336E+03  0.00000000000E+00 0. -1.
    2000013    1    1    2    0    0 -0.26498561542E+03  0.30282264031E+02  0.15376117194E+04  0.18269877371E+04  0.95000000000E+03 0.  0.
   -2000013    1    1    2    0    0  0.26498561542E+03 -0.30282264031E+02  0.30572644178E+02  0.98720265319E+03  0.95000000000E+03 0.  0.
<mgrwt>
<rscale>  0 0.23367639E+04</rscale>
<asrwt>0</asrwt>
<pdfrwt beam="1">  1        2 0.33710575E+00 0.23367639E+04</pdfrwt>
<pdfrwt beam="2">  1       -2 0.95846619E-01 0.23367639E+04</pdfrwt>
<totfact> 0.43091365E+00</totfact>
</mgrwt>
</event>
<event>
 4    1  0.1308745E-008  0.2054015E+04  0.7816531E-02  0.8581775E-01
         -2   -1    0    0    0  501 -0.00000000000E+00  0.00000000000E+00  0.14328180567E+04  0.14328180567E+04  0.00000000000E+00 0. -1.
          2   -1    0    0  501    0  0.00000000000E+00 -0.00000000000E+00 -0.73613255872E+03  0.73613255872E+03  0.00000000000E+00 0.  1.
    2000013    1    1    2    0    0  0.67058318334E+02 -0.36803968841E+03  0.46542541258E+03  0.11220832612E+04  0.95000000000E+03 0.  0.
   -2000013    1    1    2    0    0 -0.67058318334E+02  0.36803968841E+03  0.23126008540E+03  0.10468673543E+04  0.95000000000E+03 0.  0.
<mgrwt>
<rscale>  0 0.20540146E+04</rscale>
<asrwt>0</asrwt>
<pdfrwt beam="2">  1        2 0.11325116E+00 0.20540146E+04</pdfrwt>
<pdfrwt beam="1">  1       -2 0.22043355E+00 0.20540146E+04</pdfrwt>
<totfact> 0.34883895E+00</totfact>
</mgrwt>
</event>
<event>
 4    1  0.1308745E-008  0.3111650E+04  0.7816531E-02  0.8212548E-01
          2   -1    0    0  501    0  0.00000000000E+00  0.00000000000E+00  0.18785613083E+04  0.18785613083E+04  0.00000000000E+00 0.  1.
         -2   -1    0    0    0  501 -0.00000000000E+00 -0.00000000000E+00 -0.12885349814E+04  0.12885349814E+04  0.00000000000E+00 0. -1.
    2000013    1    1    2    0    0 -0.25326548008E+03 -0.90744582496E+03 -0.51316999777E+03  0.14329845691E+04  0.95000000000E+03 0.  0.
   -2000013    1    1    2    0    0  0.25326548008E+03  0.90744582496E+03  0.11031963247E+04  0.17341117206E+04  0.95000000000E+03 0.  0.
<mgrwt>
<rscale>  0 0.31116503E+04</rscale>
<asrwt>0</asrwt>
<pdfrwt beam="1">  1        2 0.28900943E+00 0.31116503E+04</pdfrwt>
<pdfrwt beam="2">  1       -2 0.19823615E+00 0.31116503E+04</pdfrwt>
<totfact> 0.90438431E-01</totfact>
</mgrwt>
</event>
<event>
 4    1  0.1308745E-008  0.3035439E+04  0.7816531E-02  0.8233683E-01
          2   -1    0    0  501    0  0.00000000000E+00  0.00000000000E+00  0.24511607460E+04  0.24511607460E+04  0.00000000000E+00 0.  1.
         -2   -1    0    0    0  501 -0.00000000000E+00 -0.00000000000E+00 -0.93974769952E+03  0.93974769952E+03  0.00000000000E+00 0. -1.
    2000013    1    1    2    0    0 -0.90689573293E+03  0.56522914674E+03  0.13242564059E+04  0.19488711829E+04  0.95000000000E+03 0.  0.
   -2000013    1    1    2    0    0  0.90689573293E+03 -0.56522914674E+03  0.18715664052E+03  0.14420372626E+04  0.95000000000E+03 0.  0.
<mgrwt>
<rscale>  0 0.30354391E+04</rscale>
<asrwt>0</asrwt>
<pdfrwt beam="1">  1        2 0.37710165E+00 0.30354391E+04</pdfrwt>
<pdfrwt beam="2">  1       -2 0.14457657E+00 0.30354391E+04</pdfrwt>
<totfact> 0.10468719E+00</totfact>
</mgrwt>
</event>
<event>
 4    1  0.1308745E-008  0.3103885E+04  0.7816531E-02  0.8214673E-01
         -2   -1    0    0    0  501 -0.00000000000E+00  0.00000000000E+00  0.16252179794E+04  0.16252179794E+04  0.00000000000E+00 0. -1.
          2   -1    0    0  501    0  0.00000000000E+00 -0.00000000000E+00 -0.14819707456E+04  0.14819707456E+04  0.00000000000E+00 0.  1.
    2000013    1    1    2    0    0 -0.53508213025E+03  0.50339939230E+03  0.10556763604E+04  0.15989610415E+04  0.95000000000E+03 0.  0.
   -2000013    1    1    2    0    0  0.53508213025E+03 -0.50339939230E+03 -0.91242912664E+03  0.15082276835E+04  0.95000000000E+03 0.  0.
<mgrwt>
<rscale>  0 0.31038850E+04</rscale>
<asrwt>0</asrwt>
<pdfrwt beam="2">  1        2 0.22799550E+00 0.31038850E+04</pdfrwt>
<pdfrwt beam="1">  1       -2 0.25003354E+00 0.31038850E+04</pdfrwt>
<totfact> 0.70848084E-01</totfact>
</mgrwt>
</event>
<event>
 4    1  0.1308745E-008  0.2331921E+04  0.7816531E-02  0.8465440E-01
          1   -1    0    0  501    0  0.00000000000E+00  0.00000000000E+00  0.36285506722E+03  0.36285506722E+03  0.00000000000E+00 0.  1.
         -1   -1    0    0    0  501 -0.00000000000E+00 -0.00000000000E+00 -0.37465760593E+04  0.37465760593E+04  0.00000000000E+00 0. -1.
    2000013    1    1    2    0    0  0.58268108043E+03  0.10920762299E+03 -0.22643089465E+04  0.25260717630E+04  0.95000000000E+03 0.  0.
   -2000013    1    1    2    0    0 -0.58268108043E+03 -0.10920762299E+03 -0.11194120456E+04  0.15833593636E+04  0.95000000000E+03 0.  0.
<mgrwt>
<rscale>  0 0.23319212E+04</rscale>
<asrwt>0</asrwt>
<pdfrwt beam="1">  1        1 0.55823853E-01 0.23319212E+04</pdfrwt>
<pdfrwt beam="2">  1       -1 0.57639635E+00 0.23319212E+04</pdfrwt>
<totfact> 0.33658573E-02</totfact>
</mgrwt>
</event>
<event>
 4    1  0.1308745E-008  0.2505818E+04  0.7816531E-02  0.8400916E-01
         -2   -1    0    0    0  501 -0.00000000000E+00  0.00000000000E+00  0.41854835072E+03  0.41854835072E+03  0.00000000000E+00 0. -1.
          2   -1    0    0  501    0  0.00000000000E+00 -0.00000000000E+00 -0.37505363052E+04  0.37505363052E+04  0.00000000000E+00 0.  1.
    2000013    1    1    2    0    0  0.19551779997E+03  0.76432337504E+03 -0.13135930205E+04  0.18028987923E+04  0.95000000000E+03 0.  0.
   -2000013    1    1    2    0    0 -0.19551779997E+03 -0.76432337504E+03 -0.20183949339E+04  0.23661858636E+04  0.95000000000E+03 0.  0.
<mgrwt>
<rscale>  0 0.25058179E+04</rscale>
<asrwt>0</asrwt>
<pdfrwt beam="2">  1        2 0.57700557E+00 0.25058179E+04</pdfrwt>
<pdfrwt beam="1">  1       -2 0.64392056E-01 0.25058179E+04</pdfrwt>
<totfact> 0.10653072E+00</totfact>
</mgrwt>
</event>
<event>
 4    1  0.1308745E-008  0.1930013E+04  0.7816531E-02  0.8640059E-01
         -1   -1    0    0    0  501 -0.00000000000E+00  0.00000000000E+00  0.64087677022E+03  0.64087677022E+03  0.00000000000E+00 0. -1.
          1   -1    0    0  501    0  0.00000000000E+00 -0.00000000000E+00 -0.14530686174E+04  0.14530686174E+04  0.00000000000E+00 0.  1.
    2000013    1    1    2    0    0 -0.76929176786E+01  0.16929188419E+03 -0.40136686410E+03  0.10451384036E+04  0.95000000000E+03 0.  0.
   -2000013    1    1    2    0    0  0.76929176786E+01 -0.16929188419E+03 -0.41082498306E+03  0.10488069840E+04  0.95000000000E+03 0.  0.
<mgrwt>
<rscale>  0 0.19300134E+04</rscale>
<asrwt>0</asrwt>
<pdfrwt beam="2">  1        1 0.22354902E+00 0.19300134E+04</pdfrwt>
<pdfrwt beam="1">  1       -1 0.98596426E-01 0.19300134E+04</pdfrwt>
<totfact> 0.64788024E+00</totfact>
</mgrwt>
</event>
<event>
 4    1  0.1308745E-008  0.2162082E+04  0.7816531E-02  0.8534378E-01
          2   -1    0    0  501    0  0.00000000000E+00  0.00000000000E+00  0.19956990547E+04  0.19956990547E+04  0.00000000000E+00 0.  1.
         -2   -1    0    0    0  501 -0.00000000000E+00 -0.00000000000E+00 -0.58558413393E+03  0.58558413393E+03  0.00000000000E+00 0. -1.
    2000013    1    1    2    0    0  0.25289194276E+03 -0.35267433361E+03  0.37201589374E+03  0.11087061583E+04  0.95000000000E+03 0.  0.
   -2000013    1    1    2    0    0 -0.25289194276E+03  0.35267433361E+03  0.10380990270E+04  0.14725770303E+04  0.95000000000E+03 0.  0.
<mgrwt>
<rscale>  0 0.21620821E+04</rscale>
<asrwt>0</asrwt>
<pdfrwt beam="1">  1        2 0.30703062E+00 0.21620821E+04</pdfrwt>
<pdfrwt beam="2">  1       -2 0.90089868E-01 0.21620821E+04</pdfrwt>
<totfact> 0.64941560E+00</totfact>
</mgrwt>
</event>
<event>
 4    1  0.1308745E-008  0.3654210E+04  0.7816531E-02  0.8078186E-01
         -2   -1    0    0    0  501 -0.00000000000E+00  0.00000000000E+00  0.10756844235E+04  0.10756844235E+04  0.00000000000E+00 0. -1.
          2   -1    0    0  501    0  0.00000000000E+00 -0.00000000000E+00 -0.31034317425E+04  0.31034317425E+04  0.00000000000E+00 0.  1.
    2000013    1    1    2    0    0 -0.21267459268E+03 -0.10945300207E+04 -0.22627973284E+04  0.26955478475E+04  0.95000000000E+03 0.  0.
   -2000013    1    1    2    0    0  0.21267459268E+03  0.10945300207E+04  0.23505000937E+03  0.14835683185E+04  0.95000000000E+03 0.  0.
<mgrwt>
<rscale>  0 0.36542103E+04</rscale>
<asrwt>0</asrwt>
<pdfrwt beam="2">  1        2 0.47745103E+00 0.36542103E+04</pdfrwt>
<pdfrwt beam="1">  1       -2 0.16548991E+00 0.36542103E+04</pdfrwt>
<totfact> 0.27874538E-01</totfact>
</mgrwt>
</event>
<event>
 4    1  0.1308745E-008  0.4229709E+04  0.7816531E-02  0.7959745E-01
          2   -1    0    0  501    0  0.00000000000E+00  0.00000000000E+00  0.27825801363E+04  0.27825801363E+04  0.00000000000E+00 0.  1.
         -2   -1    0    0    0  501 -0.00000000000E+00 -0.00000000000E+00 -0.16073609272E+04  0.16073609272E+04  0.00000000000E+00 0. -1.
    2000013    1    1    2    0    0  0.62616597626E+03 -0.17567600633E+03 -0.12536197317E+04  0.17020600227E+04  0.95000000000E+03 0.  0.
   -2000013    1    1    2    0    0 -0.62616597626E+03  0.17567600633E+03  0.24288389408E+04  0.26878810408E+04  0.95000000000E+03 0.  0.
<mgrwt>
<rscale>  0 0.42297095E+04</rscale>
<asrwt>0</asrwt>
<pdfrwt beam="1">  1        2 0.42808925E+00 0.42297095E+04</pdfrwt>
<pdfrwt beam="2">  1       -2 0.24728630E+00 0.42297095E+04</pdfrwt>
<totfact> 0.12250259E-01</totfact>
</mgrwt>
</event>
<event>
 4    1  0.1308745E-008  0.2276870E+04  0.7816531E-02  0.8487097E-01
         -2   -1    0    0    0  501 -0.00000000000E+00  0.00000000000E+00  0.12051378801E+04  0.12051378801E+04  0.00000000000E+00 0. -1.
          2   -1    0    0  501    0  0.00000000000E+00 -0.00000000000E+00 -0.10754242932E+04  0.10754242932E+04  0.00000000000E+00 0.  1.
    2000013    1    1    2    0    0 -0.54272612963E+03 -0.30927100480E+03  0.12269422606E+03  0.11435707583E+04  0.95000000000E+03 0.  0.
   -2000013    1    1    2    0    0  0.54272612963E+03  0.30927100480E+03  0.70193608841E+01  0.11369914149E+04  0.95000000000E+03 0.  0.
<mgrwt>
<rscale>  0 0.22768703E+04</rscale>
<asrwt>0</asrwt>
<pdfrwt beam="2">  1        2 0.16544989E+00 0.22768703E+04</pdfrwt>
<pdfrwt beam="1">  1       -2 0.18540583E+00 0.22768703E+04</pdfrwt>
<totfact> 0.34120089E+00</totfact>
</mgrwt>
</event>
<event>
 4    1  0.1308745E-008  0.3829317E+04  0.7816531E-02  0.8039893E-01
         -2   -1    0    0    0  501 -0.00000000000E+00  0.00000000000E+00  0.20792810067E+04  0.20792810067E+04  0.00000000000E+00 0. -1.
          2   -1    0    0  501    0  0.00000000000E+00 -0.00000000000E+00 -0.17630692080E+04  0.17630692080E+04  0.00000000000E+00 0.  1.
    2000013    1    1    2    0    0 -0.90985870942E+03  0.83815873023E+03  0.12723193042E+04  0.20128709198E+04  0.95000000000E+03 0.  0.
   -2000013    1    1    2    0    0  0.90985870942E+03 -0.83815873023E+03 -0.95610750551E+03  0.18294792948E+04  0.95000000000E+03 0.  0.
<mgrwt>
<rscale>  0 0.38293166E+04</rscale>
<asrwt>0</asrwt>
<pdfrwt beam="2">  1        2 0.27124142E+00 0.38293166E+04</pdfrwt>
<pdfrwt beam="1">  1       -2 0.31988938E+00 0.38293166E+04</pdfrwt>
<totfact> 0.17350962E-01</totfact>
</mgrwt>
</event>
<event>
 4    1  0.1308745E-008  0.2057544E+04  0.7816531E-02  0.8580180E-01
         -1   -1    0    0    0  501 -0.00000000000E+00  0.00000000000E+00  0.10202943372E+04  0.10202943372E+04  0.00000000000E+00 0.  1.
          1   -1    0    0  501    0  0.00000000000E+00 -0.00000000000E+00 -0.10373202671E+04  0.10373202671E+04  0.00000000000E+00 0. -1.
    2000013    1    1    2    0    0 -0.33383295743E+03  0.21072633841E+03 -0.13199414715E+02  0.10288460807E+04  0.95000000000E+03 0.  0.
   -2000013    1    1    2    0    0  0.33383295743E+03 -0.21072633841E+03 -0.38265151760E+01  0.10287685237E+04  0.95000000000E+03 0.  0.
<mgrwt>
<rscale>  0 0.20575442E+04</rscale>
<asrwt>0</asrwt>
<pdfrwt beam="2">  1        1 0.15958773E+00 0.20575442E+04</pdfrwt>
<pdfrwt beam="1">  1       -1 0.15696836E+00 0.20575442E+04</pdfrwt>
<totfact> 0.40269041E+00</totfact>
</mgrwt>
</event>
<event>
 4    1  0.1308745E-008  0.2318201E+04  0.7816531E-02  0.8470779E-01
         -2   -1    0    0    0  501 -0.00000000000E+00  0.00000000000E+00  0.73213327747E+03  0.73213327747E+03  0.00000000000E+00 0. -1.
          2   -1    0    0  501    0  0.00000000000E+00 -0.00000000000E+00 -0.18350673942E+04  0.18350673942E+04  0.00000000000E+00 0.  1.
    2000013    1    1    2    0    0 -0.65571493923E+03  0.99707450368E+02 -0.58836641915E+03  0.12994532313E+04  0.95000000000E+03 0.  0.
   -2000013    1    1    2    0    0  0.65571493923E+03 -0.99707450368E+02 -0.51456769762E+03  0.12677474404E+04  0.95000000000E+03 0.  0.
<mgrwt>
<rscale>  0 0.23182009E+04</rscale>
<asrwt>0</asrwt>
<pdfrwt beam="2">  1        2 0.28231806E+00 0.23182009E+04</pdfrwt>
<pdfrwt beam="1">  1       -2 0.11263589E+00 0.23182009E+04</pdfrwt>
<totfact> 0.46331221E+00</totfact>
</mgrwt>
</event>
<event>
 4    1  0.1308745E-008  0.2700907E+04  0.7816531E-02  0.8334711E-01
         -2   -1    0    0    0  501 -0.00000000000E+00  0.00000000000E+00  0.13581586588E+04  0.13581586588E+04  0.00000000000E+00 0. -1.
          2   -1    0    0  501    0  0.00000000000E+00 -0.00000000000E+00 -0.13427924143E+04  0.13427924143E+04  0.00000000000E+00 0.  1.
    2000013    1    1    2    0    0 -0.72694918004E+03  0.28979619536E+03 -0.54801301247E+03  0.13473140714E+04  0.95000000000E+03 0.  0.
   -2000013    1    1    2    0    0  0.72694918004E+03 -0.28979619536E+03  0.56337925697E+03  0.13536370017E+04  0.95000000000E+03 0.  0.
<mgrwt>
<rscale>  0 0.27009074E+04</rscale>
<asrwt>0</asrwt>
<pdfrwt beam="2">  1        2 0.20658345E+00 0.27009074E+04</pdfrwt>
<pdfrwt beam="1">  1       -2 0.20894749E+00 0.27009074E+04</pdfrwt>
<totfact> 0.15929084E+00</totfact>
</mgrwt>
</event>
<event>
 4    1  0.1308745E-008  0.2501236E+04  0.7816531E-02  0.8402545E-01
         -1   -1    0    0    0  501 -0.00000000000E+00  0.00000000000E+00  0.56005634397E+03  0.56005634397E+03  0.00000000000E+00 0. -1.
          1   -1    0    0  501    0  0.00000000000E+00 -0.00000000000E+00 -0.27926578318E+04  0.27926578318E+04  0.00000000000E+00 0.  1.
    2000013    1    1    2    0    0 -0.18496693607E+03 -0.69805534055E+03 -0.16179336501E+04  0.20103987968E+04  0.95000000000E+03 0.  0.
   -2000013    1    1    2    0    0  0.18496693607E+03  0.69805534055E+03 -0.61466783770E+03  0.13423153790E+04  0.95000000000E+03 0.  0.
<mgrwt>
<rscale>  0 0.25012363E+04</rscale>
<asrwt>0</asrwt>
<pdfrwt beam="2">  1        1 0.42963966E+00 0.25012363E+04</pdfrwt>
<pdfrwt beam="1">  1       -1 0.86162515E-01 0.25012363E+04</pdfrwt>
<totfact> 0.99575440E-01</totfact>
</mgrwt>
</event>
<event>
 4    1  0.1308745E-008  0.2096623E+04  0.7816531E-02  0.8562732E-01
         -2   -1    0    0    0  501 -0.00000000000E+00  0.00000000000E+00  0.87559736912E+03  0.87559736912E+03  0.00000000000E+00 0. -1.
          2   -1    0    0  501    0  0.00000000000E+00 -0.00000000000E+00 -0.12550942244E+04  0.12550942244E+04  0.00000000000E+00 0.  1.
    2000013    1    1    2    0    0  0.37783288698E+03 -0.13335943948E+03  0.28429119447E+01  0.10310434097E+04  0.95000000000E+03 0.  0.
   -2000013    1    1    2    0    0 -0.37783288698E+03  0.13335943948E+03 -0.38233976726E+03  0.10996481838E+04  0.95000000000E+03 0.  0.
<mgrwt>
<rscale>  0 0.20966232E+04</rscale>
<asrwt>0</asrwt>
<pdfrwt beam="2">  1        2 0.19309142E+00 0.20966232E+04</pdfrwt>
<pdfrwt beam="1">  1       -2 0.13470729E+00 0.20966232E+04</pdfrwt>
<totfact> 0.64245048E+00</totfact>
</mgrwt>
</event>
<event>
 4    1  0.1308745E-008  0.2614657E+04  0.7816531E-02  0.8363240E-01
         -2   -1    0    0    0  501 -0.00000000000E+00  0.00000000000E+00  0.79541550736E+03  0.79541550736E+03  0.00000000000E+00 0.  1.
          2   -1    0    0  501    0  0.00000000000E+00 -0.00000000000E+00 -0.21486976703E+04  0.21486976703E+04  0.00000000000E+00 0. -1.
    2000013    1    1    2    0    0  0.88798092984E+03 -0.25160197601E+02 -0.82544527434E+03  0.15404554743E+04  0.95000000000E+03 0.  0.
   -2000013    1    1    2    0    0 -0.88798092984E+03  0.25160197601E+02 -0.52783688860E+03  0.14036577034E+04  0.95000000000E+03 0.  0.
<mgrwt>
<rscale>  0 0.26146567E+04</rscale>
<asrwt>0</asrwt>
<pdfrwt beam="2">  1        2 0.33056888E+00 0.26146567E+04</pdfrwt>
<pdfrwt beam="1">  1       -2 0.12237162E+00 0.26146567E+04</pdfrwt>
<totfact> 0.24653272E+00</totfact>
</mgrwt>
</event>
<event>
 4    1  0.1308745E-008  0.3215870E+04  0.7816531E-02  0.8184639E-01
          2   -1    0    0  501    0  0.00000000000E+00  0.00000000000E+00  0.23569550610E+04  0.23569550610E+04  0.00000000000E+00 0.  1.
         -2   -1    0    0    0  501 -0.00000000000E+00 -0.00000000000E+00 -0.10969467888E+04  0.10969467888E+04  0.00000000000E+00 0. -1.
    2000013    1    1    2    0    0 -0.60949165013E+03  0.83518869939E+03 -0.21153133266E+03  0.14199527245E+04  0.95000000000E+03 0.  0.
   -2000013    1    1    2    0    0  0.60949165013E+03 -0.83518869939E+03  0.14715396049E+04  0.20339491252E+04  0.95000000000E+03 0.  0.
<mgrwt>
<rscale>  0 0.32158696E+04</rscale>
<asrwt>0</asrwt>
<pdfrwt beam="1">  1        2 0.36260847E+00 0.32158696E+04</pdfrwt>
<pdfrwt beam="2">  1       -2 0.16876105E+00 0.32158696E+04</pdfrwt>
<totfact> 0.76957790E-01</totfact>
</mgrwt>
</event>
<event>
 4    1  0.1308745E-008  0.2008975E+04  0.7816531E-02  0.8602436E-01
          2   -1    0    0  501    0  0.00000000000E+00  0.00000000000E+00  0.54834095865E+03  0.54834095865E+03  0.00000000000E+00 0.  1.
         -2   -1    0    0    0  501 -0.00000000000E+00 -0.00000000000E+00 -0.18400867140E+04  0.18400867140E+04  0.00000000000E+00 0. -1.
    2000013    1    1    2    0    0  0.11791387711E+03  0.28194380078E+03 -0.78194069344E+03  0.12678041005E+04  0.95000000000E+03 0.  0.
   -2000013    1    1    2    0    0 -0.11791387711E+03 -0.28194380078E+03 -0.50980506186E+03  0.11206235721E+04  0.95000000000E+03 0.  0.
<mgrwt>
<rscale>  0 0.20089748E+04</rscale>
<asrwt>0</asrwt>
<pdfrwt beam="1">  1        2 0.84360147E-01 0.20089748E+04</pdfrwt>
<pdfrwt beam="2">  1       -2 0.28309026E+00 0.20089748E+04</pdfrwt>
<totfact> 0.20694498E+00</totfact>
</mgrwt>
</event>
<event>
 4    1  0.1308745E-008  0.2180319E+04  0.7816531E-02  0.8526665E-01
         -2   -1    0    0    0  501 -0.00000000000E+00  0.00000000000E+00  0.69924413269E+03  0.69924413269E+03  0.00000000000E+00 0. -1.
          2   -1    0    0  501    0  0.00000000000E+00 -0.00000000000E+00 -0.16996173623E+04  0.16996173623E+04  0.00000000000E+00 0.  1.
    2000013    1    1    2    0    0 -0.49111110694E+03  0.10480084300E+03 -0.70238481400E+03  0.12837514413E+04  0.95000000000E+03 0.  0.
   -2000013    1    1    2    0    0  0.49111110694E+03 -0.10480084300E+03 -0.29798841562E+03  0.11151100537E+04  0.95000000000E+03 0.  0.
<mgrwt>
<rscale>  0 0.21803188E+04</rscale>
<asrwt>0</asrwt>
<pdfrwt beam="2">  1        2 0.26147959E+00 0.21803188E+04</pdfrwt>
<pdfrwt beam="1">  1       -2 0.10757602E+00 0.21803188E+04</pdfrwt>
<totfact> 0.62291521E+00</totfact>
</mgrwt>
</event>
<event>
 4    1  0.1308745E-008  0.3344698E+04  0.7816531E-02  0.8151614E-01
         -2   -1    0    0    0  501 -0.00000000000E+00  0.00000000000E+00  0.11369290141E+04  0.11369290141E+04  0.00000000000E+00 0.  1.
          2   -1    0    0  501    0  0.00000000000E+00 -0.00000000000E+00 -0.24599168981E+04  0.24599168981E+04  0.00000000000E+00 0. -1.
    2000013    1    1    2    0    0 -0.71906507000E+03 -0.83529596009E+03 -0.15479400101E+04  0.21244745681E+04  0.95000000000E+03 0.  0.
   -2000013    1    1    2    0    0  0.71906507000E+03  0.83529596009E+03  0.22495212609E+03  0.14723713441E+04  0.95000000000E+03 0.  0.
<mgrwt>
<rscale>  0 0.33446978E+04</rscale>
<asrwt>0</asrwt>
<pdfrwt beam="2">  1        2 0.37844875E+00 0.33446978E+04</pdfrwt>
<pdfrwt beam="1">  1       -2 0.17491216E+00 0.33446978E+04</pdfrwt>
<totfact> 0.60118669E-01</totfact>
</mgrwt>
</event>
<event>
 4    1  0.1308745E-008  0.2179307E+04  0.7816531E-02  0.8527091E-01
         -2   -1    0    0    0  501 -0.00000000000E+00  0.00000000000E+00  0.62748666593E+03  0.62748666593E+03  0.00000000000E+00 0. -1.
          2   -1    0    0  501    0  0.00000000000E+00 -0.00000000000E+00 -0.18922227726E+04  0.18922227726E+04  0.00000000000E+00 0.  1.
    2000013    1    1    2    0    0  0.52696481940E+03 -0.69326382145E+02 -0.57636115831E+03  0.12317427706E+04  0.95000000000E+03 0.  0.
   -2000013    1    1    2    0    0 -0.52696481940E+03  0.69326382145E+02 -0.68837494837E+03  0.12879666679E+04  0.95000000000E+03 0.  0.
<mgrwt>
<rscale>  0 0.21793068E+04</rscale>
<asrwt>0</asrwt>
<pdfrwt beam="2">  1        2 0.29111119E+00 0.21793068E+04</pdfrwt>
<pdfrwt beam="1">  1       -2 0.96536412E-01 0.21793068E+04</pdfrwt>
<totfact> 0.63027900E+00</totfact>
</mgrwt>
</event>
<event>
 4    1  0.1308745E-008  0.3455101E+04  0.7816531E-02  0.8124514E-01
          2   -1    0    0  501    0  0.00000000000E+00  0.00000000000E+00  0.13748217071E+04  0.13748217071E+04  0.00000000000E+00 0.  1.
         -2   -1    0    0    0  501 -0.00000000000E+00 -0.00000000000E+00 -0.21707765723E+04  0.21707765723E+04  0.00000000000E+00 0. -1.
    2000013    1    1    2    0    0 -0.13452521181E+04 -0.15515581805E+03  0.11322105739E+03  0.16580396850E+04  0.95000000000E+03 0.  0.
   -2000013    1    1    2    0    0  0.13452521181E+04  0.15515581805E+03 -0.90917592261E+03  0.18875585944E+04  0.95000000000E+03 0.  0.
<mgrwt>
<rscale>  0 0.34551010E+04</rscale>
<asrwt>0</asrwt>
<pdfrwt beam="1">  1        2 0.21151103E+00 0.34551010E+04</pdfrwt>
<pdfrwt beam="2">  1       -2 0.33396563E+00 0.34551010E+04</pdfrwt>
<totfact> 0.24189688E-01</totfact>
</mgrwt>
</event>
<event>
 4    1  0.1308745E-008  0.2321679E+04  0.7816531E-02  0.8469422E-01
         -2   -1    0    0    0  501 -0.00000000000E+00  0.00000000000E+00  0.12731243803E+04  0.12731243803E+04  0.00000000000E+00 0. -1.
          2   -1    0    0  501    0  0.00000000000E+00 -0.00000000000E+00 -0.10584575142E+04  0.10584575142E+04  0.00000000000E+00 0.  1.
    2000013    1    1    2    0    0  0.58190266718E+03  0.22663059032E+03 -0.12835021875E+03  0.11440917433E+04  0.95000000000E+03 0.  0.
   -2000013    1    1    2    0    0 -0.58190266718E+03 -0.22663059032E+03  0.34301708492E+03  0.11874901512E+04  0.95000000000E+03 0.  0.
<mgrwt>
<rscale>  0 0.23216788E+04</rscale>
<asrwt>0</asrwt>
<pdfrwt beam="2">  1        2 0.16283962E+00 0.23216788E+04</pdfrwt>
<pdfrwt beam="1">  1       -2 0.19586529E+00 0.23216788E+04</pdfrwt>
<totfact> 0.29634343E+00</totfact>
</mgrwt>
</event>
<event>
 4    1  0.1308745E-008  0.3319857E+04  0.7816531E-02  0.8157861E-01
          2   -1    0    0  501    0  0.00000000000E+00  0.00000000000E+00  0.22494052433E+04  0.22494052433E+04  0.00000000000E+00 0.  1.
         -2   -1    0    0    0  501 -0.00000000000E+00 -0.00000000000E+00 -0.12249296531E+04  0.12249296531E+04  0.00000000000E+00 0. -1.
    2000013    1    1    2    0    0 -0.57104687342E+01  0.74332442983E+03  0.17056045436E+04  0.20890549722E+04  0.95000000000E+03 0.  0.
   -2000013    1    1    2    0    0  0.57104687342E+01 -0.74332442983E+03 -0.68112895335E+03  0.13852799243E+04  0.95000000000E+03 0.  0.
<mgrwt>
<rscale>  0 0.33198573E+04</rscale>
<asrwt>0</asrwt>
<pdfrwt beam="1">  1        2 0.34606234E+00 0.33198573E+04</pdfrwt>
<pdfrwt beam="2">  1       -2 0.18845072E+00 0.33198573E+04</pdfrwt>
<totfact> 0.64114267E-01</totfact>
</mgrwt>
</event>
<event>
 4    1  0.1308745E-008  0.3227334E+04  0.7816531E-02  0.8181635E-01
         -2   -1    0    0    0  501 -0.00000000000E+00  0.00000000000E+00  0.78790664639E+03  0.78790664639E+03  0.00000000000E+00 0. -1.
          2   -1    0    0  501    0  0.00000000000E+00 -0.00000000000E+00 -0.33048599997E+04  0.33048599997E+04  0.00000000000E+00 0.  1.
    2000013    1    1    2    0    0 -0.18790902511E+03  0.12563135360E+04 -0.16342187269E+04  0.22774556746E+04  0.95000000000E+03 0.  0.
   -2000013    1    1    2    0    0  0.18790902511E+03 -0.12563135360E+04 -0.88273462645E+03  0.18153109715E+04  0.95000000000E+03 0.  0.
<mgrwt>
<rscale>  0 0.32273340E+04</rscale>
<asrwt>0</asrwt>
<pdfrwt beam="2">  1        2 0.50844000E+00 0.32273340E+04</pdfrwt>
<pdfrwt beam="1">  1       -2 0.12121641E+00 0.32273340E+04</pdfrwt>
<totfact> 0.48045953E-01</totfact>
</mgrwt>
</event>
<event>
 4    1  0.1308745E-008  0.2483478E+04  0.7816531E-02  0.8408895E-01
          1   -1    0    0  501    0  0.00000000000E+00  0.00000000000E+00  0.15665469407E+04  0.15665469407E+04  0.00000000000E+00 0.  1.
         -1   -1    0    0    0  501 -0.00000000000E+00 -0.00000000000E+00 -0.98427636519E+03  0.98427636519E+03  0.00000000000E+00 0. -1.
    2000013    1    1    2    0    0  0.65941710868E+03 -0.10368635493E+03  0.74333927929E+03  0.13786352192E+04  0.95000000000E+03 0.  0.
   -2000013    1    1    2    0    0 -0.65941710868E+03  0.10368635493E+03 -0.16106870374E+03  0.11721880868E+04  0.95000000000E+03 0.  0.
<mgrwt>
<rscale>  0 0.24834775E+04</rscale>
<asrwt>0</asrwt>
<pdfrwt beam="1">  1        1 0.24100722E+00 0.24834775E+04</pdfrwt>
<pdfrwt beam="2">  1       -1 0.15142713E+00 0.24834775E+04</pdfrwt>
<totfact> 0.17802742E+00</totfact>
</mgrwt>
</event>
<event>
 4    1  0.1308745E-008  0.2009344E+04  0.7816531E-02  0.8602264E-01
          2   -1    0    0  501    0  0.00000000000E+00  0.00000000000E+00  0.79589909036E+03  0.79589909036E+03  0.00000000000E+00 0.  1.
         -2   -1    0    0    0  501 -0.00000000000E+00 -0.00000000000E+00 -0.12682086110E+04  0.12682086110E+04  0.00000000000E+00 0. -1.
    2000013    1    1    2    0    0 -0.14587453898E+03 -0.16543145379E+03 -0.48401728659E+03  0.10887698015E+04  0.95000000000E+03 0.  0.
   -2000013    1    1    2    0    0  0.14587453898E+03  0.16543145379E+03  0.11707765959E+02  0.97533789981E+03  0.95000000000E+03 0.  0.
<mgrwt>
<rscale>  0 0.20093443E+04</rscale>
<asrwt>0</asrwt>
<pdfrwt beam="1">  1        2 0.12244602E+00 0.20093443E+04</pdfrwt>
<pdfrwt beam="2">  1       -2 0.19510901E+00 0.20093443E+04</pdfrwt>
<totfact> 0.46108713E+00</totfact>
</mgrwt>
</event>
<event>
 4    1  0.1308745E-008  0.2424677E+04  0.7816531E-02  0.8430322E-01
         -2   -1    0    0    0  501 -0.00000000000E+00  0.00000000000E+00  0.17776346992E+04  0.17776346992E+04  0.00000000000E+00 0. -1.
          2   -1    0    0  501    0  0.00000000000E+00 -0.00000000000E+00 -0.82680890999E+03  0.82680890999E+03  0.00000000000E+00 0.  1.
    2000013    1    1    2    0    0  0.63357806679E+03  0.40312111434E+03  0.53745702959E+03  0.13248727706E+04  0.95000000000E+03 0.  0.
   -2000013    1    1    2    0    0 -0.63357806679E+03 -0.40312111434E+03  0.41336875958E+03  0.12795708386E+04  0.95000000000E+03 0.  0.
<mgrwt>
<rscale>  0 0.24246766E+04</rscale>
<asrwt>0</asrwt>
<pdfrwt beam="2">  1        2 0.12720137E+00 0.24246766E+04</pdfrwt>
<pdfrwt beam="1">  1       -2 0.27348226E+00 0.24246766E+04</pdfrwt>
<totfact> 0.13648961E+00</totfact>
</mgrwt>
</event>
<event>
 4    1  0.1308745E-008  0.2560660E+04  0.7816531E-02  0.8381688E-01
         -4   -1    0    0    0  501 -0.00000000000E+00  0.00000000000E+00  0.21396664235E+04  0.21396664235E+04  0.00000000000E+00 0. -1.
          4   -1    0    0  501    0  0.00000000000E+00 -0.00000000000E+00 -0.76612174740E+03  0.76612174740E+03  0.00000000000E+00 0.  1.
    2000013    1    1    2    0    0  0.50245289801E+03 -0.66930558294E+03  0.90302508527E+03  0.15551151670E+04  0.95000000000E+03 0.  0.
   -2000013    1    1    2    0    0 -0.50245289801E+03  0.66930558294E+03  0.47051959083E+03  0.13506730039E+04  0.95000000000E+03 0.  0.
<mgrwt>
<rscale>  0 0.25606601E+04</rscale>
<asrwt>0</asrwt>
<pdfrwt beam="2">  1        4 0.11786488E+00 0.25606601E+04</pdfrwt>
<pdfrwt beam="1">  1       -4 0.32917945E+00 0.25606601E+04</pdfrwt>
<totfact> 0.19803495E-02</totfact>
</mgrwt>
</event>
<event>
 4    1  0.1308745E-008  0.2800060E+04  0.7816531E-02  0.8303250E-01
         -2   -1    0    0    0  501 -0.00000000000E+00  0.00000000000E+00  0.50804514308E+03  0.50804514308E+03  0.00000000000E+00 0. -1.
          2   -1    0    0  501    0  0.00000000000E+00 -0.00000000000E+00 -0.38580914868E+04  0.38580914868E+04  0.00000000000E+00 0.  1.
    2000013    1    1    2    0    0 -0.73830296306E+03  0.14623738150E+03 -0.27677671448E+04  0.30215081673E+04  0.95000000000E+03 0.  0.
   -2000013    1    1    2    0    0  0.73830296306E+03 -0.14623738150E+03 -0.58227919895E+03  0.13446284626E+04  0.95000000000E+03 0.  0.
<mgrwt>
<rscale>  0 0.28000605E+04</rscale>
<asrwt>0</asrwt>
<pdfrwt beam="2">  1        2 0.59355255E+00 0.28000605E+04</pdfrwt>
<pdfrwt beam="1">  1       -2 0.78160790E-01 0.28000605E+04</pdfrwt>
<totfact> 0.56187806E-01</totfact>
</mgrwt>
</event>
<event>
 4    1  0.1308745E-008  0.2271403E+04  0.7816531E-02  0.8489283E-01
         -2   -1    0    0    0  501 -0.00000000000E+00  0.00000000000E+00  0.98057792591E+03  0.98057792591E+03  0.00000000000E+00 0. -1.
          2   -1    0    0  501    0  0.00000000000E+00 -0.00000000000E+00 -0.13153650193E+04  0.13153650193E+04  0.00000000000E+00 0.  1.
    2000013    1    1    2    0    0 -0.41502912511E+03 -0.16590081511E+03 -0.60513773635E+03  0.12118019372E+04  0.95000000000E+03 0.  0.
   -2000013    1    1    2    0    0  0.41502912511E+03  0.16590081511E+03  0.27035064292E+03  0.10841410080E+04  0.95000000000E+03 0.  0.
<mgrwt>
<rscale>  0 0.22714030E+04</rscale>
<asrwt>0</asrwt>
<pdfrwt beam="2">  1        2 0.20236385E+00 0.22714030E+04</pdfrwt>
<pdfrwt beam="1">  1       -2 0.15085814E+00 0.22714030E+04</pdfrwt>
<totfact> 0.43434436E+00</totfact>
</mgrwt>
</event>
<event>
 4    1  0.1308745E-008  0.2675910E+04  0.7816531E-02  0.8342864E-01
          2   -1    0    0  501    0  0.00000000000E+00  0.00000000000E+00  0.19416176101E+04  0.19416176101E+04  0.00000000000E+00 0.  1.
         -2   -1    0    0    0  501 -0.00000000000E+00 -0.00000000000E+00 -0.92197551868E+03  0.92197551868E+03  0.00000000000E+00 0. -1.
    2000013    1    1    2    0    0 -0.92834006621E+03  0.10483432754E+03  0.37955229223E+03  0.13854116563E+04  0.95000000000E+03 0.  0.
   -2000013    1    1    2    0    0  0.92834006621E+03 -0.10483432754E+03  0.64008979922E+03  0.14781814726E+04  0.95000000000E+03 0.  0.
<mgrwt>
<rscale>  0 0.26759102E+04</rscale>
<asrwt>0</asrwt>
<pdfrwt beam="1">  1        2 0.29871040E+00 0.26759102E+04</pdfrwt>
<pdfrwt beam="2">  1       -2 0.14184239E+00 0.26759102E+04</pdfrwt>
<totfact> 0.21971245E+00</totfact>
</mgrwt>
</event>
<event>
 4    1  0.1308745E-008  0.3276250E+04  0.7816531E-02  0.8168965E-01
          2   -1    0    0  501    0  0.00000000000E+00  0.00000000000E+00  0.16153711308E+04  0.16153711308E+04  0.00000000000E+00 0.  1.
         -2   -1    0    0    0  501 -0.00000000000E+00 -0.00000000000E+00 -0.16611998721E+04  0.16611998721E+04  0.00000000000E+00 0. -1.
    2000013    1    1    2    0    0 -0.91002314210E+03 -0.55722705885E+03 -0.82443535078E+03  0.16494962146E+04  0.95000000000E+03 0.  0.
   -2000013    1    1    2    0    0  0.91002314210E+03  0.55722705885E+03  0.77860660956E+03  0.16270747883E+04  0.95000000000E+03 0.  0.
<mgrwt>
<rscale>  0 0.32762505E+04</rscale>
<asrwt>0</asrwt>
<pdfrwt beam="1">  1        2 0.24851863E+00 0.32762505E+04</pdfrwt>
<pdfrwt beam="2">  1       -2 0.25556921E+00 0.32762505E+04</pdfrwt>
<totfact> 0.54340158E-01</totfact>
</mgrwt>
</event>
<event>
 4    1  0.1308745E-008  0.3275630E+04  0.7816531E-02  0.8169124E-01
          2   -1    0    0  501    0  0.00000000000E+00  0.00000000000E+00  0.14525313062E+04  0.14525313062E+04  0.00000000000E+00 0.  1.
         -2   -1    0    0    0  501 -0.00000000000E+00 -0.00000000000E+00 -0.18467333745E+04  0.18467333745E+04  0.00000000000E+00 0. -1.
    2000013    1    1    2    0    0 -0.47804113991E+03 -0.12371118155E+04 -0.34295285229E+03  0.16670589775E+04  0.95000000000E+03 0.  0.
   -2000013    1    1    2    0    0  0.47804113991E+03  0.12371118155E+04 -0.51249215977E+02  0.16322057032E+04  0.95000000000E+03 0.  0.
<mgrwt>
<rscale>  0 0.32756300E+04</rscale>
<asrwt>0</asrwt>
<pdfrwt beam="1">  1        2 0.22346636E+00 0.32756300E+04</pdfrwt>
<pdfrwt beam="2">  1       -2 0.28411283E+00 0.32756300E+04</pdfrwt>
<totfact> 0.44921540E-01</totfact>
</mgrwt>
</event>
<event>
 4    1  0.1308745E-008  0.3404969E+04  0.7816531E-02  0.8136688E-01
         -2   -1    0    0    0  501 -0.00000000000E+00  0.00000000000E+00  0.15141378983E+04  0.15141378983E+04  0.00000000000E+00 0. -1.
          2   -1    0    0  501    0  0.00000000000E+00 -0.00000000000E+00 -0.19142600955E+04  0.19142600955E+04  0.00000000000E+00 0.  1.
    2000013    1    1    2    0    0 -0.43788337610E+03 -0.12410476053E+04 -0.71741829874E+03  0.17745788303E+04  0.95000000000E+03 0.  0.
   -2000013    1    1    2    0    0  0.43788337610E+03  0.12410476053E+04  0.31729610147E+03  0.16538191635E+04  0.95000000000E+03 0.  0.
<mgrwt>
<rscale>  0 0.34049692E+04</rscale>
<asrwt>0</asrwt>
<pdfrwt beam="2">  1        2 0.29450155E+00 0.34049692E+04</pdfrwt>
<pdfrwt beam="1">  1       -2 0.23294429E+00 0.34049692E+04</pdfrwt>
<totfact> 0.50603925E-01</totfact>
</mgrwt>
</event>
<event>
 4    1  0.1308745E-008  0.2711273E+04  0.7816531E-02  0.8331357E-01
          2   -1    0    0  501    0  0.00000000000E+00  0.00000000000E+00  0.20536247230E+04  0.20536247230E+04  0.00000000000E+00 0.  1.
         -2   -1    0    0    0  501 -0.00000000000E+00 -0.00000000000E+00 -0.89488129134E+03  0.89488129134E+03  0.00000000000E+00 0. -1.
    2000013    1    1    2    0    0  0.20648318395E+03  0.92904496949E+03  0.76612562972E+03  0.15476460645E+04  0.95000000000E+03 0.  0.
   -2000013    1    1    2    0    0 -0.20648318395E+03 -0.92904496949E+03  0.39261780196E+03  0.14008599498E+04  0.95000000000E+03 0.  0.
<mgrwt>
<rscale>  0 0.27112730E+04</rscale>
<asrwt>0</asrwt>
<pdfrwt beam="1">  1        2 0.31594226E+00 0.27112730E+04</pdfrwt>
<pdfrwt beam="2">  1       -2 0.13767404E+00 0.27112730E+04</pdfrwt>
<totfact> 0.20506950E+00</totfact>
</mgrwt>
</event>
<event>
 4    1  0.1308745E-008  0.2188388E+04  0.7816531E-02  0.8523277E-01
          1   -1    0    0  501    0  0.00000000000E+00  0.00000000000E+00  0.72784669303E+03  0.72784669303E+03  0.00000000000E+00 0.  1.
         -1   -1    0    0    0  501 -0.00000000000E+00 -0.00000000000E+00 -0.16449355771E+04  0.16449355771E+04  0.00000000000E+00 0. -1.
    2000013    1    1    2    0    0 -0.33429904420E+03 -0.19886850531E+03 -0.47874011611E+02  0.10276655362E+04  0.95000000000E+03 0.  0.
   -2000013    1    1    2    0    0  0.33429904420E+03  0.19886850531E+03 -0.86921487248E+03  0.13451167339E+04  0.95000000000E+03 0.  0.
<mgrwt>
<rscale>  0 0.21883884E+04</rscale>
<asrwt>0</asrwt>
<pdfrwt beam="1">  1        1 0.11197642E+00 0.21883884E+04</pdfrwt>
<pdfrwt beam="2">  1       -1 0.25306701E+00 0.21883884E+04</pdfrwt>
<totfact> 0.15591402E+00</totfact>
</mgrwt>
</event>
<event>
 4    1  0.1308745E-008  0.2828702E+04  0.7816531E-02  0.8294412E-01
         -2   -1    0    0    0  501 -0.00000000000E+00  0.00000000000E+00  0.99213096605E+03  0.99213096605E+03  0.00000000000E+00 0. -1.
          2   -1    0    0  501    0  0.00000000000E+00 -0.00000000000E+00 -0.20162550114E+04  0.20162550114E+04  0.00000000000E+00 0.  1.
    2000013    1    1    2    0    0  0.30628780908E+03  0.99600983973E+03 -0.39535919395E+03  0.14644646514E+04  0.95000000000E+03 0.  0.
   -2000013    1    1    2    0    0 -0.30628780908E+03 -0.99600983973E+03 -0.62876485141E+03  0.15439213261E+04  0.95000000000E+03 0.  0.
<mgrwt>
<rscale>  0 0.28287022E+04</rscale>
<asrwt>0</asrwt>
<pdfrwt beam="2">  1        2 0.31019308E+00 0.28287022E+04</pdfrwt>
<pdfrwt beam="1">  1       -2 0.15263553E+00 0.28287022E+04</pdfrwt>
<totfact> 0.16249901E+00</totfact>
</mgrwt>
</event>
<event>
 4    1  0.1308745E-008  0.2577908E+04  0.7816531E-02  0.8375744E-01
          2   -1    0    0  501    0  0.00000000000E+00  0.00000000000E+00  0.45685218872E+03  0.45685218872E+03  0.00000000000E+00 0.  1.
         -2   -1    0    0    0  501 -0.00000000000E+00 -0.00000000000E+00 -0.36366302511E+04  0.36366302511E+04  0.00000000000E+00 0. -1.
    2000013    1    1    2    0    0 -0.80196873511E+03  0.24371875180E+03 -0.12129494648E+04  0.17539381649E+04  0.95000000000E+03 0.  0.
   -2000013    1    1    2    0    0  0.80196873511E+03 -0.24371875180E+03 -0.19668285976E+04  0.23395442749E+04  0.95000000000E+03 0.  0.
<mgrwt>
<rscale>  0 0.25779081E+04</rscale>
<asrwt>0</asrwt>
<pdfrwt beam="1">  1        2 0.70284953E-01 0.25779081E+04</pdfrwt>
<pdfrwt beam="2">  1       -2 0.55948157E+00 0.25779081E+04</pdfrwt>
<totfact> 0.45784602E-02</totfact>
</mgrwt>
</event>
<event>
 4    1  0.1308745E-008  0.3433504E+04  0.7816531E-02  0.8129732E-01
          2   -1    0    0  501    0  0.00000000000E+00  0.00000000000E+00  0.19463980530E+04  0.19463980530E+04  0.00000000000E+00 0.  1.
         -2   -1    0    0    0  501 -0.00000000000E+00 -0.00000000000E+00 -0.15142004663E+04  0.15142004663E+04  0.00000000000E+00 0. -1.
    2000013    1    1    2    0    0 -0.52355458618E+02  0.96031672315E+03  0.12826495255E+04  0.18635018401E+04  0.95000000000E+03 0.  0.
   -2000013    1    1    2    0    0  0.52355458618E+02 -0.96031672315E+03 -0.85045193879E+03  0.15970966793E+04  0.95000000000E+03 0.  0.
<mgrwt>
<rscale>  0 0.34335037E+04</rscale>
<asrwt>0</asrwt>
<pdfrwt beam="1">  1        2 0.29944586E+00 0.34335037E+04</pdfrwt>
<pdfrwt beam="2">  1       -2 0.23295392E+00 0.34335037E+04</pdfrwt>
<totfact> 0.48446218E-01</totfact>
</mgrwt>
</event>
<event>
 4    1  0.1308745E-008  0.3009798E+04  0.7816531E-02  0.8240939E-01
          2   -1    0    0  501    0  0.00000000000E+00  0.00000000000E+00  0.24414037499E+04  0.24414037499E+04  0.00000000000E+00 0.  1.
         -2   -1    0    0    0  501 -0.00000000000E+00 -0.00000000000E+00 -0.92763054444E+03  0.92763054444E+03  0.00000000000E+00 0. -1.
    2000013    1    1    2    0    0  0.96633559645E+03 -0.52765007690E+03  0.11904135121E+04  0.18793092929E+04  0.95000000000E+03 0.  0.
   -2000013    1    1    2    0    0 -0.96633559645E+03  0.52765007690E+03  0.32335969333E+03  0.14897250014E+04  0.95000000000E+03 0.  0.
<mgrwt>
<rscale>  0 0.30097978E+04</rscale>
<asrwt>0</asrwt>
<pdfrwt beam="1">  1        2 0.37560057E+00 0.30097978E+04</pdfrwt>
<pdfrwt beam="2">  1       -2 0.14271239E+00 0.30097978E+04</pdfrwt>
<totfact> 0.10995204E+00</totfact>
</mgrwt>
</event>
<event>
 4    1  0.1308745E-008  0.2492404E+04  0.7816531E-02  0.8405697E-01
          2   -1    0    0  501    0  0.00000000000E+00  0.00000000000E+00  0.11113244760E+04  0.11113244760E+04  0.00000000000E+00 0.  1.
         -2   -1    0    0    0  501 -0.00000000000E+00 -0.00000000000E+00 -0.13974494225E+04  0.13974494225E+04  0.00000000000E+00 0. -1.
    2000013    1    1    2    0    0  0.46997484125E+03 -0.43547294949E+03 -0.63618486801E+03  0.13106274175E+04  0.95000000000E+03 0.  0.
   -2000013    1    1    2    0    0 -0.46997484125E+03  0.43547294949E+03  0.35005992150E+03  0.11981464809E+04  0.95000000000E+03 0.  0.
<mgrwt>
<rscale>  0 0.24924043E+04</rscale>
<asrwt>0</asrwt>
<pdfrwt beam="1">  1        2 0.17097300E+00 0.24924043E+04</pdfrwt>
<pdfrwt beam="2">  1       -2 0.21499222E+00 0.24924043E+04</pdfrwt>
<totfact> 0.20347867E+00</totfact>
</mgrwt>
</event>
<event>
 4    1  0.1308745E-008  0.2410183E+04  0.7816531E-02  0.8435701E-01
          2   -1    0    0  501    0  0.00000000000E+00  0.00000000000E+00  0.68306771248E+03  0.68306771248E+03  0.00000000000E+00 0.  1.
         -2   -1    0    0    0  501 -0.00000000000E+00 -0.00000000000E+00 -0.21260639330E+04  0.21260639330E+04  0.00000000000E+00 0. -1.
    2000013    1    1    2    0    0 -0.31128569877E+03  0.64205313918E+03 -0.95638738560E+03  0.15252238692E+04  0.95000000000E+03 0.  0.
   -2000013    1    1    2    0    0  0.31128569877E+03 -0.64205313918E+03 -0.48660883490E+03  0.12839077763E+04  0.95000000000E+03 0.  0.
<mgrwt>
<rscale>  0 0.24101831E+04</rscale>
<asrwt>0</asrwt>
<pdfrwt beam="1">  1        2 0.10508734E+00 0.24101831E+04</pdfrwt>
<pdfrwt beam="2">  1       -2 0.32708676E+00 0.24101831E+04</pdfrwt>
<totfact> 0.82220523E-01</totfact>
</mgrwt>
</event>
<event>
 4    1  0.1308745E-008  0.2528051E+04  0.7816531E-02  0.8393060E-01
         -2   -1    0    0    0  501 -0.00000000000E+00  0.00000000000E+00  0.13753326059E+04  0.13753326059E+04  0.00000000000E+00 0. -1.
          2   -1    0    0  501    0  0.00000000000E+00 -0.00000000000E+00 -0.11617263037E+04  0.11617263037E+04  0.00000000000E+00 0.  1.
    2000013    1    1    2    0    0 -0.68194530731E+03  0.40876615993E+03  0.35893710131E+03  0.12897577363E+04  0.95000000000E+03 0.  0.
   -2000013    1    1    2    0    0  0.68194530731E+03 -0.40876615993E+03 -0.14533079912E+03  0.12473011733E+04  0.95000000000E+03 0.  0.
<mgrwt>
<rscale>  0 0.25280507E+04</rscale>
<asrwt>0</asrwt>
<pdfrwt beam="2">  1        2 0.17872712E+00 0.25280507E+04</pdfrwt>
<pdfrwt beam="1">  1       -2 0.21158963E+00 0.25280507E+04</pdfrwt>
<totfact> 0.19875542E+00</totfact>
</mgrwt>
</event>
<event>
 4    1  0.1308745E-008  0.2443938E+04  0.7816531E-02  0.8423235E-01
         -2   -1    0    0    0  501 -0.00000000000E+00  0.00000000000E+00  0.54659612783E+03  0.54659612783E+03  0.00000000000E+00 0. -1.
          2   -1    0    0  501    0  0.00000000000E+00 -0.00000000000E+00 -0.27318310489E+04  0.27318310489E+04  0.00000000000E+00 0.  1.
    2000013    1    1    2    0    0 -0.42834747551E+03 -0.63593057192E+03 -0.11638411587E+04  0.16866877289E+04  0.95000000000E+03 0.  0.
   -2000013    1    1    2    0    0  0.42834747551E+03  0.63593057192E+03 -0.10213937624E+04  0.15917394479E+04  0.95000000000E+03 0.  0.
<mgrwt>
<rscale>  0 0.24439380E+04</rscale>
<asrwt>0</asrwt>
<pdfrwt beam="2">  1        2 0.42028169E+00 0.24439380E+04</pdfrwt>
<pdfrwt beam="1">  1       -2 0.84091714E-01 0.24439380E+04</pdfrwt>
<totfact> 0.28119197E+00</totfact>
</mgrwt>
</event>
<event>
 4    1  0.1308745E-008  0.2235717E+04  0.7816531E-02  0.8503707E-01
          2   -1    0    0  501    0  0.00000000000E+00  0.00000000000E+00  0.91397263328E+03  0.91397263328E+03  0.00000000000E+00 0.  1.
         -2   -1    0    0    0  501 -0.00000000000E+00 -0.00000000000E+00 -0.13672264085E+04  0.13672264085E+04  0.00000000000E+00 0. -1.
    2000013    1    1    2    0    0 -0.39372690115E+03 -0.32167319913E+03 -0.53036206445E+03  0.12009489744E+04  0.95000000000E+03 0.  0.
   -2000013    1    1    2    0    0  0.39372690115E+03  0.32167319913E+03  0.77108289245E+02  0.10802500673E+04  0.95000000000E+03 0.  0.
<mgrwt>
<rscale>  0 0.22357169E+04</rscale>
<asrwt>0</asrwt>
<pdfrwt beam="1">  1        2 0.14061117E+00 0.22357169E+04</pdfrwt>
<pdfrwt beam="2">  1       -2 0.21034252E+00 0.22357169E+04</pdfrwt>
<totfact> 0.29781718E+00</totfact>
</mgrwt>
</event>
<event>
 4    1  0.1308745E-008  0.2467641E+04  0.7816531E-02  0.8414605E-01
          2   -1    0    0  501    0  0.00000000000E+00  0.00000000000E+00  0.13212038852E+04  0.13212038852E+04  0.00000000000E+00 0.  1.
         -2   -1    0    0    0  501 -0.00000000000E+00 -0.00000000000E+00 -0.11522164462E+04  0.11522164462E+04  0.00000000000E+00 0. -1.
    2000013    1    1    2    0    0 -0.60443518922E+03  0.10766443670E+03  0.57847585208E+03  0.12704596965E+04  0.95000000000E+03 0.  0.
   -2000013    1    1    2    0    0  0.60443518922E+03 -0.10766443670E+03 -0.40948841305E+03  0.12029606350E+04  0.95000000000E+03 0.  0.
<mgrwt>
<rscale>  0 0.24676409E+04</rscale>
<asrwt>0</asrwt>
<pdfrwt beam="1">  1        2 0.20326214E+00 0.24676409E+04</pdfrwt>
<pdfrwt beam="2">  1       -2 0.17726407E+00 0.24676409E+04</pdfrwt>
<totfact> 0.27221932E+00</totfact>
</mgrwt>
</event>
<event>
 4    1  0.1308745E-008  0.2868044E+04  0.7816531E-02  0.8282449E-01
          2   -1    0    0  501    0  0.00000000000E+00  0.00000000000E+00  0.13205053764E+04  0.13205053764E+04  0.00000000000E+00 0.  1.
         -2   -1    0    0    0  501 -0.00000000000E+00 -0.00000000000E+00 -0.15572964847E+04  0.15572964847E+04  0.00000000000E+00 0. -1.
    2000013    1    1    2    0    0  0.82234856677E+03  0.64087689400E+03 -0.37799968161E+03  0.14602616607E+04  0.95000000000E+03 0.  0.
   -2000013    1    1    2    0    0 -0.82234856677E+03 -0.64087689400E+03  0.14120857330E+03  0.14175402004E+04  0.95000000000E+03 0.  0.
<mgrwt>
<rscale>  0 0.28680435E+04</rscale>
<asrwt>0</asrwt>
<pdfrwt beam="1">  1        2 0.20315467E+00 0.28680435E+04</pdfrwt>
<pdfrwt beam="2">  1       -2 0.23958407E+00 0.28680435E+04</pdfrwt>
<totfact> 0.10370502E+00</totfact>
</mgrwt>
</event>
<event>
 4    1  0.1308745E-008  0.2892127E+04  0.7816531E-02  0.8275224E-01
          2   -1    0    0  501    0  0.00000000000E+00  0.00000000000E+00  0.21095388110E+04  0.21095388110E+04  0.00000000000E+00 0.  1.
         -2   -1    0    0    0  501 -0.00000000000E+00 -0.00000000000E+00 -0.99125933346E+03  0.99125933346E+03  0.00000000000E+00 0. -1.
    2000013    1    1    2    0    0  0.56267757367E+03 -0.74537033639E+03 -0.43955681518E+02  0.13328972549E+04  0.95000000000E+03 0.  0.
   -2000013    1    1    2    0    0 -0.56267757367E+03  0.74537033639E+03  0.11622351591E+04  0.17679008896E+04  0.95000000000E+03 0.  0.
<mgrwt>
<rscale>  0 0.28921273E+04</rscale>
<asrwt>0</asrwt>
<pdfrwt beam="1">  1        2 0.32454443E+00 0.28921273E+04</pdfrwt>
<pdfrwt beam="2">  1       -2 0.15250144E+00 0.28921273E+04</pdfrwt>
<totfact> 0.14372297E+00</totfact>
</mgrwt>
</event>
<event>
 4    1  0.1308745E-008  0.2534651E+04  0.7816531E-02  0.8390744E-01
         -1   -1    0    0    0  501 -0.00000000000E+00  0.00000000000E+00  0.12890524043E+04  0.12890524043E+04  0.00000000000E+00 0.  1.
          1   -1    0    0  501    0  0.00000000000E+00 -0.00000000000E+00 -0.12459644862E+04  0.12459644862E+04  0.00000000000E+00 0. -1.
    2000013    1    1    2    0    0  0.63935120260E+03 -0.34418758362E+03  0.44157899846E+03  0.12746478199E+04  0.95000000000E+03 0.  0.
   -2000013    1    1    2    0    0 -0.63935120260E+03  0.34418758362E+03 -0.39849108031E+03  0.12603690706E+04  0.95000000000E+03 0.  0.
<mgrwt>
<rscale>  0 0.25346507E+04</rscale>
<asrwt>0</asrwt>
<pdfrwt beam="2">  1        1 0.19168685E+00 0.25346507E+04</pdfrwt>
<pdfrwt beam="1">  1       -1 0.19831575E+00 0.25346507E+04</pdfrwt>
<totfact> 0.13547267E+00</totfact>
</mgrwt>
</event>
<event>
 4    1  0.1308745E-008  0.2824235E+04  0.7816531E-02  0.8295784E-01
          1   -1    0    0  501    0  0.00000000000E+00  0.00000000000E+00  0.15497261307E+04  0.15497261307E+04  0.00000000000E+00 0.  1.
         -1   -1    0    0    0  501 -0.00000000000E+00 -0.00000000000E+00 -0.12867276660E+04  0.12867276660E+04  0.00000000000E+00 0. -1.
    2000013    1    1    2    0    0 -0.33478719019E+03 -0.73119953101E+03  0.80134831759E+03  0.14803358886E+04  0.95000000000E+03 0.  0.
   -2000013    1    1    2    0    0  0.33478719019E+03  0.73119953101E+03 -0.53834985286E+03  0.13561179082E+04  0.95000000000E+03 0.  0.
<mgrwt>
<rscale>  0 0.28242348E+04</rscale>
<asrwt>0</asrwt>
<pdfrwt beam="1">  1        1 0.23841940E+00 0.28242348E+04</pdfrwt>
<pdfrwt beam="2">  1       -1 0.19795810E+00 0.28242348E+04</pdfrwt>
<totfact> 0.81180133E-01</totfact>
</mgrwt>
</event>
<event>
 4    1  0.1308745E-008  0.2991863E+04  0.7816531E-02  0.8246058E-01
         -2   -1    0    0    0  501 -0.00000000000E+00  0.00000000000E+00  0.20514398569E+04  0.20514398569E+04  0.00000000000E+00 0. -1.
          2   -1    0    0  501    0  0.00000000000E+00 -0.00000000000E+00 -0.10908487842E+04  0.10908487842E+04  0.00000000000E+00 0.  1.
    2000013    1    1    2    0    0 -0.97068593571E+03 -0.26290739898E+03 -0.11749572202E+03  0.13884007818E+04  0.95000000000E+03 0.  0.
   -2000013    1    1    2    0    0  0.97068593571E+03  0.26290739898E+03  0.10780867946E+04  0.17538878593E+04  0.95000000000E+03 0.  0.
<mgrwt>
<rscale>  0 0.29918627E+04</rscale>
<asrwt>0</asrwt>
<pdfrwt beam="2">  1        2 0.16782289E+00 0.29918627E+04</pdfrwt>
<pdfrwt beam="1">  1       -2 0.31560613E+00 0.29918627E+04</pdfrwt>
<totfact> 0.48182285E-01</totfact>
</mgrwt>
</event>
<event>
 4    1  0.1308745E-008  0.2323959E+04  0.7816531E-02  0.8468534E-01
         -2   -1    0    0    0  501 -0.00000000000E+00  0.00000000000E+00  0.42310888942E+03  0.42310888942E+03  0.00000000000E+00 0. -1.
          2   -1    0    0  501    0  0.00000000000E+00 -0.00000000000E+00 -0.31911313216E+04  0.31911313216E+04  0.00000000000E+00 0.  1.
    2000013    1    1    2    0    0  0.63319404380E+03  0.15838396863E+03 -0.11550422191E+04  0.16317606156E+04  0.95000000000E+03 0.  0.
   -2000013    1    1    2    0    0 -0.63319404380E+03 -0.15838396863E+03 -0.16129802131E+04  0.19824795955E+04  0.95000000000E+03 0.  0.
<mgrwt>
<rscale>  0 0.23239587E+04</rscale>
<asrwt>0</asrwt>
<pdfrwt beam="2">  1        2 0.49094326E+00 0.23239587E+04</pdfrwt>
<pdfrwt beam="1">  1       -2 0.65093678E-01 0.23239587E+04</pdfrwt>
<totfact> 0.25912645E+00</totfact>
</mgrwt>
</event>
<event>
 4    1  0.1308745E-008  0.2724195E+04  0.7816531E-02  0.8327197E-01
         -2   -1    0    0    0  501 -0.00000000000E+00  0.00000000000E+00  0.92628025906E+03  0.92628025906E+03  0.00000000000E+00 0. -1.
          2   -1    0    0  501    0  0.00000000000E+00 -0.00000000000E+00 -0.20029685272E+04  0.20029685272E+04  0.00000000000E+00 0.  1.
    2000013    1    1    2    0    0 -0.94809188268E+03  0.20875274425E+03 -0.64775940717E+03  0.15048415783E+04  0.95000000000E+03 0.  0.
   -2000013    1    1    2    0    0  0.94809188268E+03 -0.20875274425E+03 -0.42892886094E+03  0.14244072079E+04  0.95000000000E+03 0.  0.
<mgrwt>
<rscale>  0 0.27241954E+04</rscale>
<asrwt>0</asrwt>
<pdfrwt beam="2">  1        2 0.30814900E+00 0.27241954E+04</pdfrwt>
<pdfrwt beam="1">  1       -2 0.14250466E+00 0.27241954E+04</pdfrwt>
<totfact> 0.19985870E+00</totfact>
</mgrwt>
</event>
<event>
 4    1  0.1308745E-008  0.2996942E+04  0.7816531E-02  0.8244605E-01
          2   -1    0    0  501    0  0.00000000000E+00  0.00000000000E+00  0.21304864273E+04  0.21304864273E+04  0.00000000000E+00 0.  1.
         -2   -1    0    0    0  501 -0.00000000000E+00 -0.00000000000E+00 -0.10539446908E+04  0.10539446908E+04  0.00000000000E+00 0. -1.
    2000013    1    1    2    0    0  0.26868171988E+03  0.11214129830E+04  0.66015497723E+03  0.16334201967E+04  0.95000000000E+03 0.  0.
   -2000013    1    1    2    0    0 -0.26868171988E+03 -0.11214129830E+04  0.41638675925E+03  0.15510109214E+04  0.95000000000E+03 0.  0.
<mgrwt>
<rscale>  0 0.29969417E+04</rscale>
<asrwt>0</asrwt>
<pdfrwt beam="1">  1        2 0.32776714E+00 0.29969417E+04</pdfrwt>
<pdfrwt beam="2">  1       -2 0.16214534E+00 0.29969417E+04</pdfrwt>
<totfact> 0.11749458E+00</totfact>
</mgrwt>
</event>
<event>
 4    1  0.1308745E-008  0.2823506E+04  0.7816531E-02  0.8296008E-01
         -1   -1    0    0    0  501 -0.00000000000E+00  0.00000000000E+00  0.12433559248E+04  0.12433559248E+04  0.00000000000E+00 0. -1.
          1   -1    0    0  501    0  0.00000000000E+00 -0.00000000000E+00 -0.16029576906E+04  0.16029576906E+04  0.00000000000E+00 0.  1.
    2000013    1    1    2    0    0  0.54047858163E+03  0.86633771532E+03 -0.40040367380E+03  0.14510276483E+04  0.95000000000E+03 0.  0.
   -2000013    1    1    2    0    0 -0.54047858163E+03 -0.86633771532E+03  0.40801907998E+02  0.13952859671E+04  0.95000000000E+03 0.  0.
<mgrwt>
<rscale>  0 0.28235063E+04</rscale>
<asrwt>0</asrwt>
<pdfrwt beam="2">  1        1 0.24660888E+00 0.28235063E+04</pdfrwt>
<pdfrwt beam="1">  1       -1 0.19128553E+00 0.28235063E+04</pdfrwt>
<totfact> 0.83053159E-01</totfact>
</mgrwt>
</event>
<event>
 4    1  0.1308745E-008  0.3767346E+04  0.7816531E-02  0.8053199E-01
          2   -1    0    0  501    0  0.00000000000E+00  0.00000000000E+00  0.38156498788E+04  0.38156498788E+04  0.00000000000E+00 0.  1.
         -2   -1    0    0    0  501 -0.00000000000E+00 -0.00000000000E+00 -0.92991334272E+03  0.92991334272E+03  0.00000000000E+00 0. -1.
    2000013    1    1    2    0    0 -0.14600795740E+04  0.71587955262E+03  0.14901320504E+04  0.24015223139E+04  0.95000000000E+03 0.  0.
   -2000013    1    1    2    0    0  0.14600795740E+04 -0.71587955262E+03  0.13956044856E+04  0.23440409076E+04  0.95000000000E+03 0.  0.
<mgrwt>
<rscale>  0 0.37673459E+04</rscale>
<asrwt>0</asrwt>
<pdfrwt beam="1">  1        2 0.58702305E+00 0.37673459E+04</pdfrwt>
<pdfrwt beam="2">  1       -2 0.14306359E+00 0.37673459E+04</pdfrwt>
<totfact> 0.13004217E-01</totfact>
</mgrwt>
</event>
<event>
 4    1  0.1308745E-008  0.2119885E+04  0.7816531E-02  0.8552534E-01
         -3   -1    0    0    0  501 -0.00000000000E+00  0.00000000000E+00  0.91596008087E+03  0.91596008087E+03  0.00000000000E+00 0. -1.
          3   -1    0    0  501    0  0.00000000000E+00 -0.00000000000E+00 -0.12265577459E+04  0.12265577459E+04  0.00000000000E+00 0.  1.
    2000013    1    1    2    0    0 -0.24023689926E+03  0.40182925106E+03 -0.11245023185E+03  0.10650472146E+04  0.95000000000E+03 0.  0.
   -2000013    1    1    2    0    0  0.24023689926E+03 -0.40182925106E+03 -0.19814743321E+03  0.10774706122E+04  0.95000000000E+03 0.  0.
<mgrwt>
<rscale>  0 0.21198848E+04</rscale>
<asrwt>0</asrwt>
<pdfrwt beam="2">  1        3 0.18870119E+00 0.21198848E+04</pdfrwt>
<pdfrwt beam="1">  1       -3 0.14091694E+00 0.21198848E+04</pdfrwt>
<totfact> 0.15834820E-01</totfact>
</mgrwt>
</event>
<event>
 4    1  0.1308745E-008  0.2478172E+04  0.7816531E-02  0.8410803E-01
          2   -1    0    0  501    0  0.00000000000E+00  0.00000000000E+00  0.86021040911E+03  0.86021040911E+03  0.00000000000E+00 0.  1.
         -2   -1    0    0    0  501 -0.00000000000E+00 -0.00000000000E+00 -0.17848356912E+04  0.17848356912E+04  0.00000000000E+00 0. -1.
    2000013    1    1    2    0    0  0.20858213022E+03  0.65080503170E+03 -0.89689146960E+03  0.14744381990E+04  0.95000000000E+03 0.  0.
   -2000013    1    1    2    0    0 -0.20858213022E+03 -0.65080503170E+03 -0.27733812482E+02  0.11706079013E+04  0.95000000000E+03 0.  0.
<mgrwt>
<rscale>  0 0.24781721E+04</rscale>
<asrwt>0</asrwt>
<pdfrwt beam="1">  1        2 0.13234006E+00 0.24781721E+04</pdfrwt>
<pdfrwt beam="2">  1       -2 0.27459011E+00 0.24781721E+04</pdfrwt>
<totfact> 0.12675915E+00</totfact>
</mgrwt>
</event>
<event>
 4    1  0.1308745E-008  0.3021919E+04  0.7816531E-02  0.8237499E-01
         -2   -1    0    0    0  501 -0.00000000000E+00  0.00000000000E+00  0.22620595947E+04  0.22620595947E+04  0.00000000000E+00 0. -1.
          2   -1    0    0  501    0  0.00000000000E+00 -0.00000000000E+00 -0.10092562911E+04  0.10092562911E+04  0.00000000000E+00 0.  1.
    2000013    1    1    2    0    0  0.22960524374E+03  0.11204581973E+04  0.33521784810E+03  0.15241443979E+04  0.95000000000E+03 0.  0.
   -2000013    1    1    2    0    0 -0.22960524374E+03 -0.11204581973E+04  0.91758545549E+03  0.17471714879E+04  0.95000000000E+03 0.  0.
<mgrwt>
<rscale>  0 0.30219185E+04</rscale>
<asrwt>0</asrwt>
<pdfrwt beam="2">  1        2 0.15527020E+00 0.30219185E+04</pdfrwt>
<pdfrwt beam="1">  1       -2 0.34800917E+00 0.30219185E+04</pdfrwt>
<totfact> 0.33989799E-01</totfact>
</mgrwt>
</event>
<event>
 4    1  0.1308745E-008  0.2736542E+04  0.7816531E-02  0.8323245E-01
         -2   -1    0    0    0  501 -0.00000000000E+00  0.00000000000E+00  0.29920898250E+04  0.29920898250E+04  0.00000000000E+00 0. -1.
          2   -1    0    0  501    0  0.00000000000E+00 -0.00000000000E+00 -0.62570499648E+03  0.62570499648E+03  0.00000000000E+00 0.  1.
    2000013    1    1    2    0    0  0.34062126017E+03 -0.66978860781E+03  0.34182976837E+03  0.12585655377E+04  0.95000000000E+03 0.  0.
   -2000013    1    1    2    0    0 -0.34062126017E+03  0.66978860781E+03  0.20245550601E+04  0.23592292838E+04  0.95000000000E+03 0.  0.
<mgrwt>
<rscale>  0 0.27365420E+04</rscale>
<asrwt>0</asrwt>
<pdfrwt beam="2">  1        2 0.96262309E-01 0.27365420E+04</pdfrwt>
<pdfrwt beam="1">  1       -2 0.46032150E+00 0.27365420E+04</pdfrwt>
<totfact> 0.12209321E-01</totfact>
</mgrwt>
</event>
<event>
 4    1  0.1308745E-008  0.2679653E+04  0.7816531E-02  0.8341637E-01
         -2   -1    0    0    0  501 -0.00000000000E+00  0.00000000000E+00  0.98015172009E+03  0.98015172009E+03  0.00000000000E+00 0. -1.
          2   -1    0    0  501    0  0.00000000000E+00 -0.00000000000E+00 -0.18314875319E+04  0.18314875319E+04  0.00000000000E+00 0.  1.
    2000013    1    1    2    0    0  0.59825584365E+03 -0.65925831120E+03 -0.93691779215E+02  0.13053006262E+04  0.95000000000E+03 0.  0.
   -2000013    1    1    2    0    0 -0.59825584365E+03  0.65925831120E+03 -0.75764403260E+03  0.15063386258E+04  0.95000000000E+03 0.  0.
<mgrwt>
<rscale>  0 0.26796535E+04</rscale>
<asrwt>0</asrwt>
<pdfrwt beam="2">  1        2 0.28176731E+00 0.26796535E+04</pdfrwt>
<pdfrwt beam="1">  1       -2 0.15079258E+00 0.26796535E+04</pdfrwt>
<totfact> 0.21522203E+00</totfact>
</mgrwt>
</event>
<event>
 4    1  0.1308745E-008  0.2482530E+04  0.7816531E-02  0.8409236E-01
         -2   -1    0    0    0  501 -0.00000000000E+00  0.00000000000E+00  0.11766302408E+04  0.11766302408E+04  0.00000000000E+00 0.  1.
          2   -1    0    0  501    0  0.00000000000E+00 -0.00000000000E+00 -0.13094501176E+04  0.13094501176E+04  0.00000000000E+00 0. -1.
    2000013    1    1    2    0    0  0.77902250284E+03  0.11311426940E+03 -0.20286820459E+03  0.12503305188E+04  0.95000000000E+03 0.  0.
   -2000013    1    1    2    0    0 -0.77902250284E+03 -0.11311426940E+03  0.70048327830E+02  0.12357498396E+04  0.95000000000E+03 0.  0.
<mgrwt>
<rscale>  0 0.24825298E+04</rscale>
<asrwt>0</asrwt>
<pdfrwt beam="2">  1        2 0.20145387E+00 0.24825298E+04</pdfrwt>
<pdfrwt beam="1">  1       -2 0.18102004E+00 0.24825298E+04</pdfrwt>
<totfact> 0.26012299E+00</totfact>
</mgrwt>
</event>
<event>
 4    1  0.1308745E-008  0.2913220E+04  0.7816531E-02  0.8268955E-01
         -2   -1    0    0    0  501 -0.00000000000E+00  0.00000000000E+00  0.55080877102E+03  0.55080877102E+03  0.00000000000E+00 0. -1.
          2   -1    0    0  501    0  0.00000000000E+00 -0.00000000000E+00 -0.38519953835E+04  0.38519953835E+04  0.00000000000E+00 0.  1.
    2000013    1    1    2    0    0 -0.98804563201E+03 -0.12536443916E+03 -0.93011668662E+03  0.16611945895E+04  0.95000000000E+03 0.  0.
   -2000013    1    1    2    0    0  0.98804563201E+03  0.12536443916E+03 -0.23710699258E+04  0.27416095650E+04  0.95000000000E+03 0.  0.
<mgrwt>
<rscale>  0 0.29132201E+04</rscale>
<asrwt>0</asrwt>
<pdfrwt beam="2">  1        2 0.59261468E+00 0.29132201E+04</pdfrwt>
<pdfrwt beam="1">  1       -2 0.84739811E-01 0.29132201E+04</pdfrwt>
<totfact> 0.46855523E-01</totfact>
</mgrwt>
</event>
<event>
 4    1  0.1308745E-008  0.2197466E+04  0.7816531E-02  0.8519483E-01
         -2   -1    0    0    0  501 -0.00000000000E+00  0.00000000000E+00  0.63647318061E+03  0.63647318061E+03  0.00000000000E+00 0.  1.
          2   -1    0    0  501    0  0.00000000000E+00 -0.00000000000E+00 -0.18967251087E+04  0.18967251087E+04  0.00000000000E+00 0. -1.
    2000013    1    1    2    0    0 -0.33262276742E+03 -0.37983865647E+03 -0.88737798000E+03  0.13945805784E+04  0.95000000000E+03 0.  0.
   -2000013    1    1    2    0    0  0.33262276742E+03  0.37983865647E+03 -0.37287394810E+03  0.11386177109E+04  0.95000000000E+03 0.  0.
<mgrwt>
<rscale>  0 0.21974664E+04</rscale>
<asrwt>0</asrwt>
<pdfrwt beam="2">  1        2 0.29180386E+00 0.21974664E+04</pdfrwt>
<pdfrwt beam="1">  1       -2 0.97918952E-01 0.21974664E+04</pdfrwt>
<totfact> 0.60514769E+00</totfact>
</mgrwt>
</event>
<event>
 4    1  0.1308745E-008  0.2923907E+04  0.7816531E-02  0.8265800E-01
         -2   -1    0    0    0  501 -0.00000000000E+00  0.00000000000E+00  0.83553060732E+03  0.83553060732E+03  0.00000000000E+00 0. -1.
          2   -1    0    0  501    0  0.00000000000E+00 -0.00000000000E+00 -0.25580241624E+04  0.25580241624E+04  0.00000000000E+00 0.  1.
    2000013    1    1    2    0    0  0.36346346867E+03  0.93212494017E+03 -0.14224954171E+04  0.19816548157E+04  0.95000000000E+03 0.  0.
   -2000013    1    1    2    0    0 -0.36346346867E+03 -0.93212494017E+03 -0.29999813797E+03  0.14118999539E+04  0.95000000000E+03 0.  0.
<mgrwt>
<rscale>  0 0.29239066E+04</rscale>
<asrwt>0</asrwt>
<pdfrwt beam="2">  1        2 0.39354218E+00 0.29239066E+04</pdfrwt>
<pdfrwt beam="1">  1       -2 0.12854317E+00 0.29239066E+04</pdfrwt>
<totfact> 0.12393465E+00</totfact>
</mgrwt>
</event>
<event>
 4    1  0.1308745E-008  0.4221580E+04  0.7816531E-02  0.7961280E-01
         -2   -1    0    0    0  501 -0.00000000000E+00  0.00000000000E+00  0.18620923699E+04  0.18620923699E+04  0.00000000000E+00 0.  1.
          2   -1    0    0  501    0  0.00000000000E+00 -0.00000000000E+00 -0.23927035290E+04  0.23927035290E+04  0.00000000000E+00 0. -1.
    2000013    1    1    2    0    0 -0.16478107910E+04  0.24619390206E+03 -0.11537417828E+04  0.22381939018E+04  0.95000000000E+03 0.  0.
   -2000013    1    1    2    0    0  0.16478107910E+04 -0.24619390206E+03  0.62313062379E+03  0.20166019971E+04  0.95000000000E+03 0.  0.
<mgrwt>
<rscale>  0 0.42215803E+04</rscale>
<asrwt>0</asrwt>
<pdfrwt beam="2">  1        2 0.36810824E+00 0.42215803E+04</pdfrwt>
<pdfrwt beam="1">  1       -2 0.28647575E+00 0.42215803E+04</pdfrwt>
<totfact> 0.11960118E-01</totfact>
</mgrwt>
</event>
<event>
 4    1  0.1308745E-008  0.2234319E+04  0.7816531E-02  0.8504278E-01
          2   -1    0    0  501    0  0.00000000000E+00  0.00000000000E+00  0.13956655141E+04  0.13956655141E+04  0.00000000000E+00 0.  1.
         -2   -1    0    0    0  501 -0.00000000000E+00 -0.00000000000E+00 -0.89422947484E+03  0.89422947484E+03  0.00000000000E+00 0. -1.
    2000013    1    1    2    0    0 -0.48655059650E+03  0.19753693556E+02 -0.86749683109E+02  0.10710495782E+04  0.95000000000E+03 0.  0.
   -2000013    1    1    2    0    0  0.48655059650E+03 -0.19753693556E+02  0.58818572235E+03  0.12188454108E+04  0.95000000000E+03 0.  0.
<mgrwt>
<rscale>  0 0.22343189E+04</rscale>
<asrwt>0</asrwt>
<pdfrwt beam="1">  1        2 0.21471777E+00 0.22343189E+04</pdfrwt>
<pdfrwt beam="2">  1       -2 0.13757377E+00 0.22343189E+04</pdfrwt>
<totfact> 0.49863419E+00</totfact>
</mgrwt>
</event>
<event>
 4    1  0.1308745E-008  0.2160430E+04  0.7816531E-02  0.8535081E-01
         -2   -1    0    0    0  501 -0.00000000000E+00  0.00000000000E+00  0.14499041658E+04  0.14499041658E+04  0.00000000000E+00 0. -1.
          2   -1    0    0  501    0  0.00000000000E+00 -0.00000000000E+00 -0.80478728940E+03  0.80478728940E+03  0.00000000000E+00 0.  1.
    2000013    1    1    2    0    0 -0.49434009958E+03 -0.10396560162E+03  0.22254688716E+03  0.10987302205E+04  0.95000000000E+03 0.  0.
   -2000013    1    1    2    0    0  0.49434009958E+03  0.10396560162E+03  0.42256998921E+03  0.11559612347E+04  0.95000000000E+03 0.  0.
<mgrwt>
<rscale>  0 0.21604300E+04</rscale>
<asrwt>0</asrwt>
<pdfrwt beam="2">  1        2 0.12381343E+00 0.21604300E+04</pdfrwt>
<pdfrwt beam="1">  1       -2 0.22306218E+00 0.21604300E+04</pdfrwt>
<totfact> 0.29609575E+00</totfact>
</mgrwt>
</event>
<event>
 4    1  0.1308745E-008  0.1964227E+04  0.7816531E-02  0.8623531E-01
          2   -1    0    0  501    0  0.00000000000E+00  0.00000000000E+00  0.93769662618E+03  0.93769662618E+03  0.00000000000E+00 0.  1.
         -2   -1    0    0    0  501 -0.00000000000E+00 -0.00000000000E+00 -0.10286340067E+04  0.10286340067E+04  0.00000000000E+00 0. -1.
    2000013    1    1    2    0    0 -0.17333034348E+03  0.14168173951E+03  0.63870616600E+02  0.97810867441E+03  0.95000000000E+03 0.  0.
   -2000013    1    1    2    0    0  0.17333034348E+03 -0.14168173951E+03 -0.15480799715E+03  0.98822195850E+03  0.95000000000E+03 0.  0.
<mgrwt>
<rscale>  0 0.19642267E+04</rscale>
<asrwt>0</asrwt>
<pdfrwt beam="1">  1        2 0.14426102E+00 0.19642267E+04</pdfrwt>
<pdfrwt beam="2">  1       -2 0.15825139E+00 0.19642267E+04</pdfrwt>
<totfact> 0.66881205E+00</totfact>
</mgrwt>
</event>
<event>
 4    1  0.1308745E-008  0.2532776E+04  0.7816531E-02  0.8391401E-01
          2   -1    0    0  501    0  0.00000000000E+00  0.00000000000E+00  0.15604203151E+04  0.15604203151E+04  0.00000000000E+00 0.  1.
         -2   -1    0    0    0  501 -0.00000000000E+00 -0.00000000000E+00 -0.10277609391E+04  0.10277609391E+04  0.00000000000E+00 0. -1.
    2000013    1    1    2    0    0 -0.35780120501E+03  0.65163012823E+03 -0.12758366339E+03  0.12130214827E+04  0.95000000000E+03 0.  0.
   -2000013    1    1    2    0    0  0.35780120501E+03 -0.65163012823E+03  0.66024303937E+03  0.13751597716E+04  0.95000000000E+03 0.  0.
<mgrwt>
<rscale>  0 0.25327764E+04</rscale>
<asrwt>0</asrwt>
<pdfrwt beam="1">  1        2 0.24006466E+00 0.25327764E+04</pdfrwt>
<pdfrwt beam="2">  1       -2 0.15811707E+00 0.25327764E+04</pdfrwt>
<totfact> 0.27161476E+00</totfact>
</mgrwt>
</event>
<event>
 4    1  0.1308745E-008  0.4090621E+04  0.7816531E-02  0.7986511E-01
          2   -1    0    0  501    0  0.00000000000E+00  0.00000000000E+00  0.37223196466E+04  0.37223196466E+04  0.00000000000E+00 0.  1.
         -2   -1    0    0    0  501 -0.00000000000E+00 -0.00000000000E+00 -0.11238409555E+04  0.11238409555E+04  0.00000000000E+00 0. -1.
    2000013    1    1    2    0    0  0.12676655649E+04  0.69744543988E+03  0.25901764511E+04  0.31152720866E+04  0.95000000000E+03 0.  0.
   -2000013    1    1    2    0    0 -0.12676655649E+04 -0.69744543988E+03  0.83022400182E+01  0.17308885155E+04  0.95000000000E+03 0.  0.
<mgrwt>
<rscale>  0 0.40906211E+04</rscale>
<asrwt>0</asrwt>
<pdfrwt beam="1">  1        2 0.57266455E+00 0.40906211E+04</pdfrwt>
<pdfrwt beam="2">  1       -2 0.17289861E+00 0.40906211E+04</pdfrwt>
<totfact> 0.89220311E-02</totfact>
</mgrwt>
</event>
<event>
 4    1  0.1308745E-008  0.2059970E+04  0.7816531E-02  0.8579085E-01
         -2   -1    0    0    0  501 -0.00000000000E+00  0.00000000000E+00  0.90241193973E+03  0.90241193973E+03  0.00000000000E+00 0. -1.
          2   -1    0    0  501    0  0.00000000000E+00 -0.00000000000E+00 -0.11755933531E+04  0.11755933531E+04  0.00000000000E+00 0.  1.
    2000013    1    1    2    0    0  0.39783061996E+03  0.96613137089E+01 -0.13393422893E+03  0.10386534171E+04  0.95000000000E+03 0.  0.
   -2000013    1    1    2    0    0 -0.39783061996E+03 -0.96613137089E+01 -0.13924718441E+03  0.10393518757E+04  0.95000000000E+03 0.  0.
<mgrwt>
<rscale>  0 0.20599704E+04</rscale>
<asrwt>0</asrwt>
<pdfrwt beam="2">  1        2 0.18086052E+00 0.20599704E+04</pdfrwt>
<pdfrwt beam="1">  1       -2 0.13883261E+00 0.20599704E+04</pdfrwt>
<totfact> 0.66492372E+00</totfact>
</mgrwt>
</event>
<event>
 4    1  0.1308745E-008  0.2474976E+04  0.7816531E-02  0.8411955E-01
         -2   -1    0    0    0  501 -0.00000000000E+00  0.00000000000E+00  0.41796768859E+03  0.41796768859E+03  0.00000000000E+00 0. -1.
          2   -1    0    0  501    0  0.00000000000E+00 -0.00000000000E+00 -0.36638639601E+04  0.36638639601E+04  0.00000000000E+00 0.  1.
    2000013    1    1    2    0    0  0.19991097289E+03 -0.67844576904E+03 -0.22144342509E+04  0.25112690238E+04  0.95000000000E+03 0.  0.
   -2000013    1    1    2    0    0 -0.19991097289E+03  0.67844576904E+03 -0.10314620207E+04  0.15705626249E+04  0.95000000000E+03 0.  0.
<mgrwt>
<rscale>  0 0.24749762E+04</rscale>
<asrwt>0</asrwt>
<pdfrwt beam="2">  1        2 0.56367140E+00 0.24749762E+04</pdfrwt>
<pdfrwt beam="1">  1       -2 0.64302719E-01 0.24749762E+04</pdfrwt>
<totfact> 0.12417336E+00</totfact>
</mgrwt>
</event>
<event>
 4    1  0.1308745E-008  0.2885876E+04  0.7816531E-02  0.8277092E-01
         -2   -1    0    0    0  501 -0.00000000000E+00  0.00000000000E+00  0.75163007160E+03  0.75163007160E+03  0.00000000000E+00 0. -1.
          2   -1    0    0  501    0  0.00000000000E+00 -0.00000000000E+00 -0.27700720472E+04  0.27700720472E+04  0.00000000000E+00 0.  1.
    2000013    1    1    2    0    0 -0.32085893640E+03 -0.10362029974E+04 -0.94347801552E+03  0.17231708780E+04  0.95000000000E+03 0.  0.
   -2000013    1    1    2    0    0  0.32085893640E+03  0.10362029974E+04 -0.10749639601E+04  0.17985312409E+04  0.95000000000E+03 0.  0.
<mgrwt>
<rscale>  0 0.28858756E+04</rscale>
<asrwt>0</asrwt>
<pdfrwt beam="2">  1        2 0.42616493E+00 0.28858756E+04</pdfrwt>
<pdfrwt beam="1">  1       -2 0.11563539E+00 0.28858756E+04</pdfrwt>
<totfact> 0.12113292E+00</totfact>
</mgrwt>
</event>
<event>
 4    1  0.1308745E-008  0.2481345E+04  0.7816531E-02  0.8409662E-01
         -2   -1    0    0    0  501 -0.00000000000E+00  0.00000000000E+00  0.39719850518E+03  0.39719850518E+03  0.00000000000E+00 0. -1.
          2   -1    0    0  501    0  0.00000000000E+00 -0.00000000000E+00 -0.38753133170E+04  0.38753133170E+04  0.00000000000E+00 0.  1.
    2000013    1    1    2    0    0  0.58452652360E+03 -0.53364418070E+03 -0.15641279210E+04  0.19938514291E+04  0.95000000000E+03 0.  0.
   -2000013    1    1    2    0    0 -0.58452652360E+03  0.53364418070E+03 -0.19139868908E+04  0.22786603930E+04  0.95000000000E+03 0.  0.
<mgrwt>
<rscale>  0 0.24813453E+04</rscale>
<asrwt>0</asrwt>
<pdfrwt beam="2">  1        2 0.59620207E+00 0.24813453E+04</pdfrwt>
<pdfrwt beam="1">  1       -2 0.61107461E-01 0.24813453E+04</pdfrwt>
<totfact> 0.95925773E-01</totfact>
</mgrwt>
</event>
<event>
 4    1  0.1308745E-008  0.3238658E+04  0.7816531E-02  0.8178682E-01
          2   -1    0    0  501    0  0.00000000000E+00  0.00000000000E+00  0.12995105348E+04  0.12995105348E+04  0.00000000000E+00 0.  1.
         -2   -1    0    0    0  501 -0.00000000000E+00 -0.00000000000E+00 -0.20178569298E+04  0.20178569298E+04  0.00000000000E+00 0. -1.
    2000013    1    1    2    0    0  0.58049898741E+03  0.83137566317E+03 -0.12109856534E+04  0.18431361372E+04  0.95000000000E+03 0.  0.
   -2000013    1    1    2    0    0 -0.58049898741E+03 -0.83137566317E+03  0.49263925831E+03  0.14742313273E+04  0.95000000000E+03 0.  0.
<mgrwt>
<rscale>  0 0.32386580E+04</rscale>
<asrwt>0</asrwt>
<pdfrwt beam="1">  1        2 0.19992470E+00 0.32386580E+04</pdfrwt>
<pdfrwt beam="2">  1       -2 0.31043953E+00 0.32386580E+04</pdfrwt>
<totfact> 0.38073036E-01</totfact>
</mgrwt>
</event>
<event>
 4    1  0.1308745E-008  0.2104927E+04  0.7816531E-02  0.8559076E-01
          2   -1    0    0  501    0  0.00000000000E+00  0.00000000000E+00  0.19250202625E+04  0.19250202625E+04  0.00000000000E+00 0.  1.
         -2   -1    0    0    0  501 -0.00000000000E+00 -0.00000000000E+00 -0.57541162389E+03  0.57541162389E+03  0.00000000000E+00 0. -1.
    2000013    1    1    2    0    0  0.45128884658E+03 -0.19092322803E+02  0.71513847964E+03  0.12719863147E+04  0.95000000000E+03 0.  0.
   -2000013    1    1    2    0    0 -0.45128884658E+03  0.19092322803E+02  0.63447015896E+03  0.12284455716E+04  0.95000000000E+03 0.  0.
<mgrwt>
<rscale>  0 0.21049266E+04</rscale>
<asrwt>0</asrwt>
<pdfrwt beam="1">  1        2 0.29615696E+00 0.21049266E+04</pdfrwt>
<pdfrwt beam="2">  1       -2 0.88524866E-01 0.21049266E+04</pdfrwt>
<totfact> 0.74370148E+00</totfact>
</mgrwt>
</event>
<event>
 4    1  0.1308745E-008  0.2386248E+04  0.7816531E-02  0.8444670E-01
          1   -1    0    0  501    0  0.00000000000E+00  0.00000000000E+00  0.68205963018E+03  0.68205963018E+03  0.00000000000E+00 0.  1.
         -1   -1    0    0    0  501 -0.00000000000E+00 -0.00000000000E+00 -0.20871275258E+04  0.20871275258E+04  0.00000000000E+00 0. -1.
    2000013    1    1    2    0    0 -0.23398689928E+03  0.51609590633E+03 -0.12214380638E+04  0.16478822158E+04  0.95000000000E+03 0.  0.
   -2000013    1    1    2    0    0  0.23398689928E+03 -0.51609590633E+03 -0.18362983175E+03  0.11213049401E+04  0.95000000000E+03 0.  0.
<mgrwt>
<rscale>  0 0.23862485E+04</rscale>
<asrwt>0</asrwt>
<pdfrwt beam="1">  1        1 0.10493225E+00 0.23862485E+04</pdfrwt>
<pdfrwt beam="2">  1       -1 0.32109654E+00 0.23862485E+04</pdfrwt>
<totfact> 0.61230311E-01</totfact>
</mgrwt>
</event>
<event>
 4    1  0.1308745E-008  0.2019920E+04  0.7816531E-02  0.8597364E-01
         -2   -1    0    0    0  501 -0.00000000000E+00  0.00000000000E+00  0.44849517319E+03  0.44849517319E+03  0.00000000000E+00 0. -1.
          2   -1    0    0  501    0  0.00000000000E+00 -0.00000000000E+00 -0.22743146473E+04  0.22743146473E+04  0.00000000000E+00 0.  1.
    2000013    1    1    2    0    0 -0.15958894487E+02 -0.14713701833E+03 -0.13297277840E+04  0.16409082753E+04  0.95000000000E+03 0.  0.
   -2000013    1    1    2    0    0  0.15958894487E+02  0.14713701833E+03 -0.49609169015E+03  0.10819015452E+04  0.95000000000E+03 0.  0.
<mgrwt>
<rscale>  0 0.20199199E+04</rscale>
<asrwt>0</asrwt>
<pdfrwt beam="2">  1        2 0.34989456E+00 0.20199199E+04</pdfrwt>
<pdfrwt beam="1">  1       -2 0.68999257E-01 0.20199199E+04</pdfrwt>
<totfact> 0.83427000E+00</totfact>
</mgrwt>
</event>
<event>
 4    1  0.1308745E-008  0.2099595E+04  0.7816531E-02  0.8561422E-01
         -2   -1    0    0    0  501 -0.00000000000E+00  0.00000000000E+00  0.95536593910E+03  0.95536593910E+03  0.00000000000E+00 0. -1.
          2   -1    0    0  501    0  0.00000000000E+00 -0.00000000000E+00 -0.11535634129E+04  0.11535634129E+04  0.00000000000E+00 0.  1.
    2000013    1    1    2    0    0  0.42629548499E+03 -0.13292761882E+03 -0.85712793826E+02  0.10532066632E+04  0.95000000000E+03 0.  0.
   -2000013    1    1    2    0    0 -0.42629548499E+03  0.13292761882E+03 -0.11248467994E+03  0.10557226888E+04  0.95000000000E+03 0.  0.
<mgrwt>
<rscale>  0 0.20995954E+04</rscale>
<asrwt>0</asrwt>
<pdfrwt beam="2">  1        2 0.17747129E+00 0.20995954E+04</pdfrwt>
<pdfrwt beam="1">  1       -2 0.14697938E+00 0.20995954E+04</pdfrwt>
<totfact> 0.58868792E+00</totfact>
</mgrwt>
</event>
<event>
 4    1  0.1308745E-008  0.2717897E+04  0.7816531E-02  0.8329221E-01
         -2   -1    0    0    0  501 -0.00000000000E+00  0.00000000000E+00  0.15560700173E+04  0.15560700173E+04  0.00000000000E+00 0. -1.
          2   -1    0    0  501    0  0.00000000000E+00 -0.00000000000E+00 -0.11867978353E+04  0.11867978353E+04  0.00000000000E+00 0.  1.
    2000013    1    1    2    0    0 -0.44755935003E+03  0.83683485131E+03  0.39545389897E+03  0.13998163188E+04  0.95000000000E+03 0.  0.
   -2000013    1    1    2    0    0  0.44755935003E+03 -0.83683485131E+03 -0.26181717032E+02  0.13430515338E+04  0.95000000000E+03 0.  0.
<mgrwt>
<rscale>  0 0.27178966E+04</rscale>
<asrwt>0</asrwt>
<pdfrwt beam="2">  1        2 0.18258428E+00 0.27178966E+04</pdfrwt>
<pdfrwt beam="1">  1       -2 0.23939539E+00 0.27178966E+04</pdfrwt>
<totfact> 0.12625174E+00</totfact>
</mgrwt>
</event>
<event>
 4    1  0.1308745E-008  0.2311019E+04  0.7816531E-02  0.8473589E-01
         -2   -1    0    0    0  501 -0.00000000000E+00  0.00000000000E+00  0.12922562045E+04  0.12922562045E+04  0.00000000000E+00 0. -1.
          2   -1    0    0  501    0  0.00000000000E+00 -0.00000000000E+00 -0.10332329677E+04  0.10332329677E+04  0.00000000000E+00 0.  1.
    2000013    1    1    2    0    0  0.39493665618E+03  0.51999749476E+03  0.20956702295E+03  0.11716615100E+04  0.95000000000E+03 0.  0.
   -2000013    1    1    2    0    0 -0.39493665618E+03 -0.51999749476E+03  0.49456213855E+02  0.11538276622E+04  0.95000000000E+03 0.  0.
<mgrwt>
<rscale>  0 0.23110186E+04</rscale>
<asrwt>0</asrwt>
<pdfrwt beam="2">  1        2 0.15895892E+00 0.23110186E+04</pdfrwt>
<pdfrwt beam="1">  1       -2 0.19880865E+00 0.23110186E+04</pdfrwt>
<totfact> 0.29417855E+00</totfact>
</mgrwt>
</event>
<event>
 4    1  0.1308745E-008  0.2374959E+04  0.7816531E-02  0.8448938E-01
          2   -1    0    0  501    0  0.00000000000E+00  0.00000000000E+00  0.11862755991E+04  0.11862755991E+04  0.00000000000E+00 0.  1.
         -2   -1    0    0    0  501 -0.00000000000E+00 -0.00000000000E+00 -0.11886849153E+04  0.11886849153E+04  0.00000000000E+00 0. -1.
    2000013    1    1    2    0    0 -0.56381853337E+03  0.23788678739E+03  0.36366050181E+03  0.11871101140E+04  0.95000000000E+03 0.  0.
   -2000013    1    1    2    0    0  0.56381853337E+03 -0.23788678739E+03 -0.36606981801E+03  0.11878504004E+04  0.95000000000E+03 0.  0.
<mgrwt>
<rscale>  0 0.23749593E+04</rscale>
<asrwt>0</asrwt>
<pdfrwt beam="1">  1        2 0.18250394E+00 0.23749593E+04</pdfrwt>
<pdfrwt beam="2">  1       -2 0.18287460E+00 0.23749593E+04</pdfrwt>
<totfact> 0.30134061E+00</totfact>
</mgrwt>
</event>
<event>
 4    1  0.1308745E-008  0.2180616E+04  0.7816531E-02  0.8526540E-01
         -2   -1    0    0    0  501 -0.00000000000E+00  0.00000000000E+00  0.13927634872E+04  0.13927634872E+04  0.00000000000E+00 0. -1.
          2   -1    0    0  501    0  0.00000000000E+00 -0.00000000000E+00 -0.85353421815E+03  0.85353421815E+03  0.00000000000E+00 0.  1.
    2000013    1    1    2    0    0 -0.31475038739E+03 -0.41565724880E+03  0.39336871787E+03  0.11528563237E+04  0.95000000000E+03 0.  0.
   -2000013    1    1    2    0    0  0.31475038739E+03  0.41565724880E+03  0.14586055123E+03  0.10934413817E+04  0.95000000000E+03 0.  0.
<mgrwt>
<rscale>  0 0.21806158E+04</rscale>
<asrwt>0</asrwt>
<pdfrwt beam="2">  1        2 0.13131296E+00 0.21806158E+04</pdfrwt>
<pdfrwt beam="1">  1       -2 0.21427131E+00 0.21806158E+04</pdfrwt>
<totfact> 0.31046764E+00</totfact>
</mgrwt>
</event>
<event>
 4    1  0.1308745E-008  0.2689689E+04  0.7816531E-02  0.8338358E-01
         -1   -1    0    0    0  501 -0.00000000000E+00  0.00000000000E+00  0.17442176513E+04  0.17442176513E+04  0.00000000000E+00 0. -1.
          1   -1    0    0  501    0  0.00000000000E+00 -0.00000000000E+00 -0.10369158431E+04  0.10369158431E+04  0.00000000000E+00 0.  1.
    2000013    1    1    2    0    0 -0.61511566765E+03  0.46034645862E+03  0.93473647319E+03  0.15383492519E+04  0.95000000000E+03 0.  0.
   -2000013    1    1    2    0    0  0.61511566765E+03 -0.46034645862E+03 -0.22743466505E+03  0.12427842425E+04  0.95000000000E+03 0.  0.
<mgrwt>
<rscale>  0 0.26896891E+04</rscale>
<asrwt>0</asrwt>
<pdfrwt beam="2">  1        1 0.15952551E+00 0.26896891E+04</pdfrwt>
<pdfrwt beam="1">  1       -1 0.26834118E+00 0.26896891E+04</pdfrwt>
<totfact> 0.65557557E-01</totfact>
</mgrwt>
</event>
<event>
 4    1  0.1308745E-008  0.2307503E+04  0.7816531E-02  0.8474969E-01
         -2   -1    0    0    0  501 -0.00000000000E+00  0.00000000000E+00  0.44889486351E+03  0.44889486351E+03  0.00000000000E+00 0. -1.
          2   -1    0    0  501    0  0.00000000000E+00 -0.00000000000E+00 -0.29653770505E+04  0.29653770505E+04  0.00000000000E+00 0.  1.
    2000013    1    1    2    0    0  0.65848840744E+02  0.63089604650E+03 -0.14980916361E+04  0.18839173128E+04  0.95000000000E+03 0.  0.
   -2000013    1    1    2    0    0 -0.65848840744E+02 -0.63089604650E+03 -0.10183905509E+04  0.15303546012E+04  0.95000000000E+03 0.  0.
<mgrwt>
<rscale>  0 0.23075030E+04</rscale>
<asrwt>0</asrwt>
<pdfrwt beam="2">  1        2 0.45621187E+00 0.23075030E+04</pdfrwt>
<pdfrwt beam="1">  1       -2 0.69060746E-01 0.23075030E+04</pdfrwt>
<totfact> 0.31769865E+00</totfact>
</mgrwt>
</event>
<event>
 4    1  0.1308745E-008  0.2388336E+04  0.7816531E-02  0.8443883E-01
          2   -1    0    0  501    0  0.00000000000E+00  0.00000000000E+00  0.15941279444E+04  0.15941279444E+04  0.00000000000E+00 0.  1.
         -2   -1    0    0    0  501 -0.00000000000E+00 -0.00000000000E+00 -0.89455633231E+03  0.89455633231E+03  0.00000000000E+00 0. -1.
    2000013    1    1    2    0    0  0.15271747820E+03  0.68022136964E+03  0.55160766816E+03  0.13010744634E+04  0.95000000000E+03 0.  0.
   -2000013    1    1    2    0    0 -0.15271747820E+03 -0.68022136964E+03  0.14796394393E+03  0.11876098133E+04  0.95000000000E+03 0.  0.
<mgrwt>
<rscale>  0 0.23883360E+04</rscale>
<asrwt>0</asrwt>
<pdfrwt beam="1">  1        2 0.24525045E+00 0.23883360E+04</pdfrwt>
<pdfrwt beam="2">  1       -2 0.13762405E+00 0.23883360E+04</pdfrwt>
<totfact> 0.37981597E+00</totfact>
</mgrwt>
</event>
<event>
 4    1  0.1308745E-008  0.3599099E+04  0.7816531E-02  0.8090698E-01
         -2   -1    0    0    0  501 -0.00000000000E+00  0.00000000000E+00  0.88859396654E+03  0.88859396654E+03  0.00000000000E+00 0. -1.
          2   -1    0    0  501    0  0.00000000000E+00 -0.00000000000E+00 -0.36443847736E+04  0.36443847736E+04  0.00000000000E+00 0.  1.
    2000013    1    1    2    0    0  0.73949033969E+03  0.13331097437E+04 -0.12407872798E+04  0.21831355031E+04  0.95000000000E+03 0.  0.
   -2000013    1    1    2    0    0 -0.73949033969E+03 -0.13331097437E+04 -0.15150035273E+04  0.23498432371E+04  0.95000000000E+03 0.  0.
<mgrwt>
<rscale>  0 0.35990990E+04</rscale>
<asrwt>0</asrwt>
<pdfrwt beam="2">  1        2 0.56067458E+00 0.35990990E+04</pdfrwt>
<pdfrwt beam="1">  1       -2 0.13670676E+00 0.35990990E+04</pdfrwt>
<totfact> 0.19925374E-01</totfact>
</mgrwt>
</event>
<event>
 4    1  0.1308745E-008  0.4066832E+04  0.7816531E-02  0.7991198E-01
          2   -1    0    0  501    0  0.00000000000E+00  0.00000000000E+00  0.19026115128E+04  0.19026115128E+04  0.00000000000E+00 0.  1.
         -2   -1    0    0    0  501 -0.00000000000E+00 -0.00000000000E+00 -0.21732135095E+04  0.21732135095E+04  0.00000000000E+00 0. -1.
    2000013    1    1    2    0    0 -0.12033662604E+04  0.13353359604E+04 -0.16806210744E+03  0.20400875853E+04  0.95000000000E+03 0.  0.
   -2000013    1    1    2    0    0  0.12033662604E+04 -0.13353359604E+04 -0.10253988924E+03  0.20357374371E+04  0.95000000000E+03 0.  0.
<mgrwt>
<rscale>  0 0.40668322E+04</rscale>
<asrwt>0</asrwt>
<pdfrwt beam="1">  1        2 0.29270946E+00 0.40668322E+04</pdfrwt>
<pdfrwt beam="2">  1       -2 0.33434054E+00 0.40668322E+04</pdfrwt>
<totfact> 0.11581847E-01</totfact>
</mgrwt>
</event>
<event>
 4    1  0.1308745E-008  0.2201265E+04  0.7816531E-02  0.8517902E-01
         -2   -1    0    0    0  501 -0.00000000000E+00  0.00000000000E+00  0.73217675358E+03  0.73217675358E+03  0.00000000000E+00 0. -1.
          2   -1    0    0  501    0  0.00000000000E+00 -0.00000000000E+00 -0.16545075819E+04  0.16545075819E+04  0.00000000000E+00 0.  1.
    2000013    1    1    2    0    0  0.48222508515E+03 -0.22386326819E+03 -0.63678504476E+03  0.12612101287E+04  0.95000000000E+03 0.  0.
   -2000013    1    1    2    0    0 -0.48222508515E+03  0.22386326819E+03 -0.28554578359E+03  0.11254742068E+04  0.95000000000E+03 0.  0.
<mgrwt>
<rscale>  0 0.22012651E+04</rscale>
<asrwt>0</asrwt>
<pdfrwt beam="2">  1        2 0.25453963E+00 0.22012651E+04</pdfrwt>
<pdfrwt beam="1">  1       -2 0.11264258E+00 0.22012651E+04</pdfrwt>
<totfact> 0.58936620E+00</totfact>
</mgrwt>
</event>
<event>
 4    1  0.1308745E-008  0.2253229E+04  0.7816531E-02  0.8496594E-01
         -1   -1    0    0    0  501 -0.00000000000E+00  0.00000000000E+00  0.61233895900E+03  0.61233895900E+03  0.00000000000E+00 0. -1.
          1   -1    0    0  501    0  0.00000000000E+00 -0.00000000000E+00 -0.20728072134E+04  0.20728072134E+04  0.00000000000E+00 0.  1.
    2000013    1    1    2    0    0 -0.46615717873E+03  0.10396470382E+03 -0.11739669859E+04  0.15839222389E+04  0.95000000000E+03 0.  0.
   -2000013    1    1    2    0    0  0.46615717873E+03 -0.10396470382E+03 -0.28650126857E+03  0.11012239335E+04  0.95000000000E+03 0.  0.
<mgrwt>
<rscale>  0 0.22532293E+04</rscale>
<asrwt>0</asrwt>
<pdfrwt beam="2">  1        1 0.31889342E+00 0.22532293E+04</pdfrwt>
<pdfrwt beam="1">  1       -1 0.94205992E-01 0.22532293E+04</pdfrwt>
<totfact> 0.26328291E+00</totfact>
</mgrwt>
</event>
<event>
 4    1  0.1308745E-008  0.2179593E+04  0.7816531E-02  0.8526970E-01
         -2   -1    0    0    0  501 -0.00000000000E+00  0.00000000000E+00  0.61363394886E+03  0.61363394886E+03  0.00000000000E+00 0. -1.
          2   -1    0    0  501    0  0.00000000000E+00 -0.00000000000E+00 -0.19354474729E+04  0.19354474729E+04  0.00000000000E+00 0.  1.
    2000013    1    1    2    0    0 -0.34982661420E+03  0.26127973396E+03 -0.10204477403E+04  0.14609789013E+04  0.95000000000E+03 0.  0.
   -2000013    1    1    2    0    0  0.34982661420E+03 -0.26127973396E+03 -0.30136578376E+03  0.10881025204E+04  0.95000000000E+03 0.  0.
<mgrwt>
<rscale>  0 0.21795929E+04</rscale>
<asrwt>0</asrwt>
<pdfrwt beam="2">  1        2 0.29776115E+00 0.21795929E+04</pdfrwt>
<pdfrwt beam="1">  1       -2 0.94405224E-01 0.21795929E+04</pdfrwt>
<totfact> 0.62836540E+00</totfact>
</mgrwt>
</event>
<event>
 4    1  0.1308745E-008  0.2192695E+04  0.7816531E-02  0.8521475E-01
          2   -1    0    0  501    0  0.00000000000E+00  0.00000000000E+00  0.17433137823E+04  0.17433137823E+04  0.00000000000E+00 0.  1.
         -2   -1    0    0    0  501 -0.00000000000E+00 -0.00000000000E+00 -0.68947875038E+03  0.68947875038E+03  0.00000000000E+00 0. -1.
    2000013    1    1    2    0    0 -0.34506934833E+03 -0.11202636370E+03  0.98148048749E+03  0.14133034737E+04  0.95000000000E+03 0.  0.
   -2000013    1    1    2    0    0  0.34506934833E+03  0.11202636370E+03  0.72354544402E+02  0.10194890590E+04  0.95000000000E+03 0.  0.
<mgrwt>
<rscale>  0 0.21926950E+04</rscale>
<asrwt>0</asrwt>
<pdfrwt beam="1">  1        2 0.26820212E+00 0.21926950E+04</pdfrwt>
<pdfrwt beam="2">  1       -2 0.10607365E+00 0.21926950E+04</pdfrwt>
<totfact> 0.60869028E+00</totfact>
</mgrwt>
</event>
<event>
 4    1  0.1308745E-008  0.3593796E+04  0.7816531E-02  0.8091914E-01
          2   -1    0    0  501    0  0.00000000000E+00  0.00000000000E+00  0.24172248707E+04  0.24172248707E+04  0.00000000000E+00 0.  1.
         -2   -1    0    0    0  501 -0.00000000000E+00 -0.00000000000E+00 -0.13357639501E+04  0.13357639501E+04  0.00000000000E+00 0. -1.
    2000013    1    1    2    0    0  0.11119341868E+04  0.97091154924E+03  0.13996677729E+03  0.17610103836E+04  0.95000000000E+03 0.  0.
   -2000013    1    1    2    0    0 -0.11119341868E+04 -0.97091154924E+03  0.94149414332E+03  0.19919784372E+04  0.95000000000E+03 0.  0.
<mgrwt>
<rscale>  0 0.35937957E+04</rscale>
<asrwt>0</asrwt>
<pdfrwt beam="1">  1        2 0.37188075E+00 0.35937957E+04</pdfrwt>
<pdfrwt beam="2">  1       -2 0.20550215E+00 0.35937957E+04</pdfrwt>
<totfact> 0.38796623E-01</totfact>
</mgrwt>
</event>
<event>
 4    1  0.1308745E-008  0.2726173E+04  0.7816531E-02  0.8326562E-01
          2   -1    0    0  501    0  0.00000000000E+00  0.00000000000E+00  0.10847522106E+04  0.10847522106E+04  0.00000000000E+00 0.  1.
         -2   -1    0    0    0  501 -0.00000000000E+00 -0.00000000000E+00 -0.17128385996E+04  0.17128385996E+04  0.00000000000E+00 0. -1.
    2000013    1    1    2    0    0  0.94782240611E+03 -0.15027306401E+03 -0.12328052986E+03  0.13559673286E+04  0.95000000000E+03 0.  0.
   -2000013    1    1    2    0    0 -0.94782240611E+03  0.15027306401E+03 -0.50480585908E+03  0.14416234816E+04  0.95000000000E+03 0.  0.
<mgrwt>
<rscale>  0 0.27261735E+04</rscale>
<asrwt>0</asrwt>
<pdfrwt beam="1">  1        2 0.16688496E+00 0.27261735E+04</pdfrwt>
<pdfrwt beam="2">  1       -2 0.26351363E+00 0.27261735E+04</pdfrwt>
<totfact> 0.10349458E+00</totfact>
</mgrwt>
</event>
<event>
 4    1  0.1308745E-008  0.2094034E+04  0.7816531E-02  0.8563876E-01
         -2   -1    0    0    0  501 -0.00000000000E+00  0.00000000000E+00  0.89574220726E+03  0.89574220726E+03  0.00000000000E+00 0. -1.
          2   -1    0    0  501    0  0.00000000000E+00 -0.00000000000E+00 -0.12238394303E+04  0.12238394303E+04  0.00000000000E+00 0.  1.
    2000013    1    1    2    0    0  0.88295597487E+02 -0.23432349297E+03  0.20236369063E+03  0.10030726171E+04  0.95000000000E+03 0.  0.
   -2000013    1    1    2    0    0 -0.88295597487E+02  0.23432349297E+03 -0.53046091372E+03  0.11165090205E+04  0.95000000000E+03 0.  0.
<mgrwt>
<rscale>  0 0.20940340E+04</rscale>
<asrwt>0</asrwt>
<pdfrwt beam="2">  1        2 0.18828299E+00 0.20940340E+04</pdfrwt>
<pdfrwt beam="1">  1       -2 0.13780649E+00 0.20940340E+04</pdfrwt>
<totfact> 0.63248257E+00</totfact>
</mgrwt>
</event>
<event>
 4    1  0.1308745E-008  0.2429267E+04  0.7816531E-02  0.8428627E-01
         -2   -1    0    0    0  501 -0.00000000000E+00  0.00000000000E+00  0.50713711920E+03  0.50713711920E+03  0.00000000000E+00 0. -1.
          2   -1    0    0  501    0  0.00000000000E+00 -0.00000000000E+00 -0.29091441090E+04  0.29091441090E+04  0.00000000000E+00 0.  1.
    2000013    1    1    2    0    0 -0.68165073448E+03 -0.16456254342E+03 -0.80050039092E+03  0.14265445771E+04  0.95000000000E+03 0.  0.
   -2000013    1    1    2    0    0  0.68165073448E+03  0.16456254342E+03 -0.16015065988E+04  0.19897366511E+04  0.95000000000E+03 0.  0.
<mgrwt>
<rscale>  0 0.24292673E+04</rscale>
<asrwt>0</asrwt>
<pdfrwt beam="2">  1        2 0.44756063E+00 0.24292673E+04</pdfrwt>
<pdfrwt beam="1">  1       -2 0.78021095E-01 0.24292673E+04</pdfrwt>
<totfact> 0.26019821E+00</totfact>
</mgrwt>
</event>
<event>
 4    1  0.1308745E-008  0.2193693E+04  0.7816531E-02  0.8521058E-01
          2   -1    0    0  501    0  0.00000000000E+00  0.00000000000E+00  0.65661387500E+03  0.65661387500E+03  0.00000000000E+00 0.  1.
         -2   -1    0    0    0  501 -0.00000000000E+00 -0.00000000000E+00 -0.18322364720E+04  0.18322364720E+04  0.00000000000E+00 0. -1.
    2000013    1    1    2    0    0  0.18560591337E+03  0.47466097540E+03 -0.81703300314E+03  0.13526993476E+04  0.95000000000E+03 0.  0.
   -2000013    1    1    2    0    0 -0.18560591337E+03 -0.47466097540E+03 -0.35858959381E+03  0.11361509994E+04  0.95000000000E+03 0.  0.
<mgrwt>
<rscale>  0 0.21936927E+04</rscale>
<asrwt>0</asrwt>
<pdfrwt beam="1">  1        2 0.10101752E+00 0.21936927E+04</pdfrwt>
<pdfrwt beam="2">  1       -2 0.28188253E+00 0.21936927E+04</pdfrwt>
<totfact> 0.16657665E+00</totfact>
</mgrwt>
</event>
<event>
 4    1  0.1308745E-008  0.2614405E+04  0.7816531E-02  0.8363325E-01
         -2   -1    0    0    0  501 -0.00000000000E+00  0.00000000000E+00  0.10461438008E+04  0.10461438008E+04  0.00000000000E+00 0. -1.
          2   -1    0    0  501    0  0.00000000000E+00 -0.00000000000E+00 -0.16334070190E+04  0.16334070190E+04  0.00000000000E+00 0.  1.
    2000013    1    1    2    0    0  0.71897364759E+03  0.77646893868E+02 -0.83917925328E+03  0.14593402500E+04  0.95000000000E+03 0.  0.
   -2000013    1    1    2    0    0 -0.71897364759E+03 -0.77646893868E+02  0.25191603503E+03  0.12202105698E+04  0.95000000000E+03 0.  0.
<mgrwt>
<rscale>  0 0.26144052E+04</rscale>
<asrwt>0</asrwt>
<pdfrwt beam="2">  1        2 0.25129339E+00 0.26144052E+04</pdfrwt>
<pdfrwt beam="1">  1       -2 0.16094520E+00 0.26144052E+04</pdfrwt>
<totfact> 0.23398262E+00</totfact>
</mgrwt>
</event>
<event>
 4    1  0.1308745E-008  0.3544863E+04  0.7816531E-02  0.8103240E-01
          2   -1    0    0  501    0  0.00000000000E+00  0.00000000000E+00  0.36226413875E+04  0.36226413875E+04  0.00000000000E+00 0.  1.
         -2   -1    0    0    0  501 -0.00000000000E+00 -0.00000000000E+00 -0.86718844518E+03  0.86718844518E+03  0.00000000000E+00 0. -1.
    2000013    1    1    2    0    0 -0.93222067458E+02  0.10055065253E+04 -0.20836494135E+02  0.13866030022E+04  0.95000000000E+03 0.  0.
   -2000013    1    1    2    0    0  0.93222067458E+02 -0.10055065253E+04  0.27762894364E+04  0.31032268304E+04  0.95000000000E+03 0.  0.
<mgrwt>
<rscale>  0 0.35448626E+04</rscale>
<asrwt>0</asrwt>
<pdfrwt beam="1">  1        2 0.55732943E+00 0.35448626E+04</pdfrwt>
<pdfrwt beam="2">  1       -2 0.13341361E+00 0.35448626E+04</pdfrwt>
<totfact> 0.22092368E-01</totfact>
</mgrwt>
</event>
<event>
 4    1  0.1308745E-008  0.3827732E+04  0.7816531E-02  0.8040230E-01
         -2   -1    0    0    0  501 -0.00000000000E+00  0.00000000000E+00  0.13959771348E+04  0.13959771348E+04  0.00000000000E+00 0. -1.
          2   -1    0    0  501    0  0.00000000000E+00 -0.00000000000E+00 -0.26238850153E+04  0.26238850153E+04  0.00000000000E+00 0.  1.
    2000013    1    1    2    0    0  0.94492785359E+03  0.84854028914E+03 -0.17389243007E+04  0.23535647419E+04  0.95000000000E+03 0.  0.
   -2000013    1    1    2    0    0 -0.94492785359E+03 -0.84854028914E+03  0.51101642016E+03  0.16662974082E+04  0.95000000000E+03 0.  0.
<mgrwt>
<rscale>  0 0.38277322E+04</rscale>
<asrwt>0</asrwt>
<pdfrwt beam="2">  1        2 0.40367462E+00 0.38277322E+04</pdfrwt>
<pdfrwt beam="1">  1       -2 0.21476571E+00 0.38277322E+04</pdfrwt>
<totfact> 0.25150500E-01</totfact>
</mgrwt>
</event>
<event>
 4    1  0.1308745E-008  0.2504939E+04  0.7816531E-02  0.8401228E-01
          2   -1    0    0  501    0  0.00000000000E+00  0.00000000000E+00  0.12814041709E+04  0.12814041709E+04  0.00000000000E+00 0.  1.
         -2   -1    0    0    0  501 -0.00000000000E+00 -0.00000000000E+00 -0.12241886539E+04  0.12241886539E+04  0.00000000000E+00 0. -1.
    2000013    1    1    2    0    0 -0.54393143595E+03 -0.54029080492E+03 -0.25147399963E+03  0.12464007114E+04  0.95000000000E+03 0.  0.
   -2000013    1    1    2    0    0  0.54393143595E+03  0.54029080492E+03  0.30868951659E+03  0.12591921134E+04  0.95000000000E+03 0.  0.
<mgrwt>
<rscale>  0 0.25049395E+04</rscale>
<asrwt>0</asrwt>
<pdfrwt beam="1">  1        2 0.19713910E+00 0.25049395E+04</pdfrwt>
<pdfrwt beam="2">  1       -2 0.18833671E+00 0.25049395E+04</pdfrwt>
<totfact> 0.24036356E+00</totfact>
</mgrwt>
</event>
<event>
 4    1  0.1308745E-008  0.2978593E+04  0.7816531E-02  0.8249870E-01
          2   -1    0    0  501    0  0.00000000000E+00  0.00000000000E+00  0.24559286908E+04  0.24559286908E+04  0.00000000000E+00 0.  1.
         -2   -1    0    0    0  501 -0.00000000000E+00 -0.00000000000E+00 -0.90312249760E+03  0.90312249760E+03  0.00000000000E+00 0. -1.
    2000013    1    1    2    0    0 -0.70888270324E+03  0.34301997676E+03 -0.16396954501E+03  0.12448146059E+04  0.95000000000E+03 0.  0.
   -2000013    1    1    2    0    0  0.70888270324E+03 -0.34301997676E+03  0.17167757382E+04  0.21142365825E+04  0.95000000000E+03 0.  0.
<mgrwt>
<rscale>  0 0.29785933E+04</rscale>
<asrwt>0</asrwt>
<pdfrwt beam="1">  1        2 0.37783518E+00 0.29785933E+04</pdfrwt>
<pdfrwt beam="2">  1       -2 0.13894192E+00 0.29785933E+04</pdfrwt>
<totfact> 0.11593990E+00</totfact>
</mgrwt>
</event>
<event>
 4    1  0.1308745E-008  0.2556534E+04  0.7816531E-02  0.8383117E-01
         -2   -1    0    0    0  501 -0.00000000000E+00  0.00000000000E+00  0.83472993881E+03  0.83472993881E+03  0.00000000000E+00 0. -1.
          2   -1    0    0  501    0  0.00000000000E+00 -0.00000000000E+00 -0.19574789060E+04  0.19574789060E+04  0.00000000000E+00 0.  1.
    2000013    1    1    2    0    0 -0.33151268818E+03 -0.78269716250E+03 -0.66470432366E+03  0.14376534174E+04  0.95000000000E+03 0.  0.
   -2000013    1    1    2    0    0  0.33151268818E+03  0.78269716250E+03 -0.45804464357E+03  0.13545554275E+04  0.95000000000E+03 0.  0.
<mgrwt>
<rscale>  0 0.25565338E+04</rscale>
<asrwt>0</asrwt>
<pdfrwt beam="2">  1        2 0.30115060E+00 0.25565338E+04</pdfrwt>
<pdfrwt beam="1">  1       -2 0.12841999E+00 0.25565338E+04</pdfrwt>
<totfact> 0.28057149E+00</totfact>
</mgrwt>
</event>
<event>
 4    1  0.1308745E-008  0.2104309E+04  0.7816531E-02  0.8559348E-01
         -2   -1    0    0    0  501 -0.00000000000E+00  0.00000000000E+00  0.10519601463E+04  0.10519601463E+04  0.00000000000E+00 0. -1.
          2   -1    0    0  501    0  0.00000000000E+00 -0.00000000000E+00 -0.10523491089E+04  0.10523491089E+04  0.00000000000E+00 0.  1.
    2000013    1    1    2    0    0  0.23984238366E+03  0.37966168545E+03 -0.53691754711E+02  0.10521645161E+04  0.95000000000E+03 0.  0.
   -2000013    1    1    2    0    0 -0.23984238366E+03 -0.37966168545E+03  0.53302792020E+02  0.10521447391E+04  0.95000000000E+03 0.  0.
<mgrwt>
<rscale>  0 0.21043092E+04</rscale>
<asrwt>0</asrwt>
<pdfrwt beam="2">  1        2 0.16189986E+00 0.21043092E+04</pdfrwt>
<pdfrwt beam="1">  1       -2 0.16184002E+00 0.21043092E+04</pdfrwt>
<totfact> 0.52464794E+00</totfact>
</mgrwt>
</event>
<event>
 4    1  0.1308745E-008  0.2761064E+04  0.7816531E-02  0.8315459E-01
         -2   -1    0    0    0  501 -0.00000000000E+00  0.00000000000E+00  0.10047511500E+04  0.10047511500E+04  0.00000000000E+00 0. -1.
          2   -1    0    0  501    0  0.00000000000E+00 -0.00000000000E+00 -0.18968567803E+04  0.18968567803E+04  0.00000000000E+00 0.  1.
    2000013    1    1    2    0    0  0.26739416381E+03  0.36144320473E+03 -0.13867293724E+04  0.17400170060E+04  0.95000000000E+03 0.  0.
   -2000013    1    1    2    0    0 -0.26739416381E+03 -0.36144320473E+03  0.49462374204E+03  0.11615909242E+04  0.95000000000E+03 0.  0.
<mgrwt>
<rscale>  0 0.27610643E+04</rscale>
<asrwt>0</asrwt>
<pdfrwt beam="2">  1        2 0.29182412E+00 0.27610643E+04</pdfrwt>
<pdfrwt beam="1">  1       -2 0.15457710E+00 0.27610643E+04</pdfrwt>
<totfact> 0.18406703E+00</totfact>
</mgrwt>
</event>
<event>
 4    1  0.1308745E-008  0.2449926E+04  0.7816531E-02  0.8421045E-01
         -2   -1    0    0    0  501 -0.00000000000E+00  0.00000000000E+00  0.14230618652E+04  0.14230618652E+04  0.00000000000E+00 0. -1.
          2   -1    0    0  501    0  0.00000000000E+00 -0.00000000000E+00 -0.10544403935E+04  0.10544403935E+04  0.00000000000E+00 0.  1.
    2000013    1    1    2    0    0 -0.48240879208E+03  0.59554638233E+03  0.28862305038E+03  0.12542715023E+04  0.95000000000E+03 0.  0.
   -2000013    1    1    2    0    0  0.48240879208E+03 -0.59554638233E+03  0.79998421372E+02  0.12232307565E+04  0.95000000000E+03 0.  0.
<mgrwt>
<rscale>  0 0.24499256E+04</rscale>
<asrwt>0</asrwt>
<pdfrwt beam="2">  1        2 0.16222160E+00 0.24499256E+04</pdfrwt>
<pdfrwt beam="1">  1       -2 0.21893259E+00 0.24499256E+04</pdfrwt>
<totfact> 0.20906853E+00</totfact>
</mgrwt>
</event>
<event>
 4    1  0.1308745E-008  0.2846975E+04  0.7816531E-02  0.8288831E-01
          2   -1    0    0  501    0  0.00000000000E+00  0.00000000000E+00  0.48201419816E+03  0.48201419816E+03  0.00000000000E+00 0.  1.
         -2   -1    0    0    0  501 -0.00000000000E+00 -0.00000000000E+00 -0.42038539578E+04  0.42038539578E+04  0.00000000000E+00 0. -1.
    2000013    1    1    2    0    0 -0.71587134693E+03 -0.76387176362E+03 -0.21355722624E+04  0.25610819480E+04  0.95000000000E+03 0.  0.
   -2000013    1    1    2    0    0  0.71587134693E+03  0.76387176362E+03 -0.15862674972E+04  0.21247862079E+04  0.95000000000E+03 0.  0.
<mgrwt>
<rscale>  0 0.28469754E+04</rscale>
<asrwt>0</asrwt>
<pdfrwt beam="1">  1        2 0.74156027E-01 0.28469754E+04</pdfrwt>
<pdfrwt beam="2">  1       -2 0.64674680E+00 0.28469754E+04</pdfrwt>
<totfact> 0.18930416E-02</totfact>
</mgrwt>
</event>
<event>
 4    1  0.1308745E-008  0.2081604E+04  0.7816531E-02  0.8569390E-01
         -2   -1    0    0    0  501 -0.00000000000E+00  0.00000000000E+00  0.85138824309E+03  0.85138824309E+03  0.00000000000E+00 0. -1.
          2   -1    0    0  501    0  0.00000000000E+00 -0.00000000000E+00 -0.12723560269E+04  0.12723560269E+04  0.00000000000E+00 0.  1.
    2000013    1    1    2    0    0  0.48061227713E+02  0.31334939262E+03 -0.49954126878E+03  0.11191689786E+04  0.95000000000E+03 0.  0.
   -2000013    1    1    2    0    0 -0.48061227713E+02 -0.31334939262E+03  0.78573484996E+02  0.10045752914E+04  0.95000000000E+03 0.  0.
<mgrwt>
<rscale>  0 0.20816042E+04</rscale>
<asrwt>0</asrwt>
<pdfrwt beam="2">  1        2 0.19574708E+00 0.20816042E+04</pdfrwt>
<pdfrwt beam="1">  1       -2 0.13098281E+00 0.20816042E+04</pdfrwt>
<totfact> 0.67489234E+00</totfact>
</mgrwt>
</event>
<event>
 4    1  0.1308745E-008  0.2583892E+04  0.7816531E-02  0.8373693E-01
          2   -1    0    0  501    0  0.00000000000E+00  0.00000000000E+00  0.19596654413E+04  0.19596654413E+04  0.00000000000E+00 0.  1.
         -2   -1    0    0    0  501 -0.00000000000E+00 -0.00000000000E+00 -0.85173960103E+03  0.85173960103E+03  0.00000000000E+00 0. -1.
    2000013    1    1    2    0    0  0.77117998588E+03  0.31104760715E+03  0.85224650466E+03  0.15232508950E+04  0.95000000000E+03 0.  0.
   -2000013    1    1    2    0    0 -0.77117998588E+03 -0.31104760715E+03  0.25567933562E+03  0.12881541473E+04  0.95000000000E+03 0.  0.
<mgrwt>
<rscale>  0 0.25838922E+04</rscale>
<asrwt>0</asrwt>
<pdfrwt beam="1">  1        2 0.30148699E+00 0.25838922E+04</pdfrwt>
<pdfrwt beam="2">  1       -2 0.13103686E+00 0.25838922E+04</pdfrwt>
<totfact> 0.26525092E+00</totfact>
</mgrwt>
</event>
