<event>
 4    1  0.2019612E-008  0.2376290E+04  0.7816531E-02  0.8448434E-01
         -2   -1    0    0    0  501 -0.00000000000E+00  0.00000000000E+00  0.47236982897E+03  0.47236982897E+03  0.00000000000E+00 0. -1.
          2   -1    0    0  501    0  0.00000000000E+00 -0.00000000000E+00 -0.29885240237E+04  0.29885240237E+04  0.00000000000E+00 0.  1.
    2000013    1    1    2    0    0 -0.47136567296E+02  0.70223447829E+03 -0.14293758879E+04  0.18549853227E+04  0.95000000000E+03 0.  0.
   -2000013    1    1    2    0    0  0.47136567296E+02 -0.70223447829E+03 -0.10867783068E+04  0.16059085300E+04  0.95000000000E+03 0.  0.
<mgrwt>
<rscale>  0 0.23762900E+04</rscale>
<asrwt>0</asrwt>
<pdfrwt beam="2">  1        2 0.45977293E+00 0.23762900E+04</pdfrwt>
<pdfrwt beam="1">  1       -2 0.72672280E-01 0.23762900E+04</pdfrwt>
<totfact> 0.27321618E+00</totfact>
</mgrwt>
</event>
<event>
 4    1  0.2019612E-008  0.3249888E+04  0.7816531E-02  0.8175765E-01
         -2   -1    0    0    0  501 -0.00000000000E+00  0.00000000000E+00  0.14607542781E+04  0.14607542781E+04  0.00000000000E+00 0. -1.
          2   -1    0    0  501    0  0.00000000000E+00 -0.00000000000E+00 -0.18075888403E+04  0.18075888403E+04  0.00000000000E+00 0.  1.
    2000013    1    1    2    0    0  0.58659021146E+03  0.11409566396E+04  0.13174116167E+03  0.16017883329E+04  0.95000000000E+03 0.  0.
   -2000013    1    1    2    0    0 -0.58659021146E+03 -0.11409566396E+04 -0.47857572394E+03  0.16665547855E+04  0.95000000000E+03 0.  0.
<mgrwt>
<rscale>  0 0.32498881E+04</rscale>
<asrwt>0</asrwt>
<pdfrwt beam="2">  1        2 0.27809059E+00 0.32498881E+04</pdfrwt>
<pdfrwt beam="1">  1       -2 0.22473143E+00 0.32498881E+04</pdfrwt>
<totfact> 0.66124210E-01</totfact>
</mgrwt>
</event>
<event>
 4    1  0.2019612E-008  0.2072250E+04  0.7816531E-02  0.8573567E-01
          2   -1    0    0  501    0  0.00000000000E+00  0.00000000000E+00  0.24815191627E+04  0.24815191627E+04  0.00000000000E+00 0.  1.
         -2   -1    0    0    0  501 -0.00000000000E+00 -0.00000000000E+00 -0.43261992813E+03  0.43261992813E+03  0.00000000000E+00 0. -1.
    2000013    1    1    2    0    0 -0.33901138044E+03 -0.22218705616E+03  0.11400619643E+04  0.15383553187E+04  0.95000000000E+03 0.  0.
   -2000013    1    1    2    0    0  0.33901138044E+03  0.22218705616E+03  0.90883727030E+03  0.13757837722E+04  0.95000000000E+03 0.  0.
<mgrwt>
<rscale>  0 0.20722496E+04</rscale>
<asrwt>0</asrwt>
<pdfrwt beam="1">  1        2 0.38177217E+00 0.20722496E+04</pdfrwt>
<pdfrwt beam="2">  1       -2 0.66556913E-01 0.20722496E+04</pdfrwt>
<totfact> 0.68387044E+00</totfact>
</mgrwt>
</event>
<event>
 4    1  0.2019612E-008  0.3064833E+04  0.7816531E-02  0.8225456E-01
          2   -1    0    0  501    0  0.00000000000E+00  0.00000000000E+00  0.20027455038E+04  0.20027455038E+04  0.00000000000E+00 0.  1.
         -2   -1    0    0    0  501 -0.00000000000E+00 -0.00000000000E+00 -0.11725403812E+04  0.11725403812E+04  0.00000000000E+00 0. -1.
    2000013    1    1    2    0    0 -0.44898839834E+03 -0.72842516786E+03 -0.46009348751E+03  0.13588155961E+04  0.95000000000E+03 0.  0.
   -2000013    1    1    2    0    0  0.44898839834E+03  0.72842516786E+03  0.12902986101E+04  0.18164702889E+04  0.95000000000E+03 0.  0.
<mgrwt>
<rscale>  0 0.30648328E+04</rscale>
<asrwt>0</asrwt>
<pdfrwt beam="1">  1        2 0.30811469E+00 0.30648328E+04</pdfrwt>
<pdfrwt beam="2">  1       -2 0.18039083E+00 0.30648328E+04</pdfrwt>
<totfact> 0.10216373E+00</totfact>
</mgrwt>
</event>
<event>
 4    1  0.2019612E-008  0.2867279E+04  0.7816531E-02  0.8282680E-01
          2   -1    0    0  501    0  0.00000000000E+00  0.00000000000E+00  0.25017202839E+04  0.25017202839E+04  0.00000000000E+00 0.  1.
         -2   -1    0    0    0  501 -0.00000000000E+00 -0.00000000000E+00 -0.82156339681E+03  0.82156339681E+03  0.00000000000E+00 0. -1.
    2000013    1    1    2    0    0  0.66427197730E+03 -0.84074857594E+03  0.91959202228E+03  0.17018416246E+04  0.95000000000E+03 0.  0.
   -2000013    1    1    2    0    0 -0.66427197730E+03  0.84074857594E+03  0.76056486482E+03  0.16214420561E+04  0.95000000000E+03 0.  0.
<mgrwt>
<rscale>  0 0.28672787E+04</rscale>
<asrwt>0</asrwt>
<pdfrwt beam="1">  1        2 0.38488004E+00 0.28672787E+04</pdfrwt>
<pdfrwt beam="2">  1       -2 0.12639437E+00 0.28672787E+04</pdfrwt>
<totfact> 0.14011425E+00</totfact>
</mgrwt>
</event>
<event>
 4    1  0.2019612E-008  0.2131331E+04  0.7816531E-02  0.8547566E-01
         -2   -1    0    0    0  501 -0.00000000000E+00  0.00000000000E+00  0.27748385312E+03  0.27748385312E+03  0.00000000000E+00 0. -1.
          2   -1    0    0  501    0  0.00000000000E+00 -0.00000000000E+00 -0.40926443552E+04  0.40926443552E+04  0.00000000000E+00 0.  1.
    2000013    1    1    2    0    0 -0.20615344833E+03  0.43309921158E+03 -0.20211624292E+04  0.22842223483E+04  0.95000000000E+03 0.  0.
   -2000013    1    1    2    0    0  0.20615344833E+03 -0.43309921158E+03 -0.17939980729E+04  0.20859058600E+04  0.95000000000E+03 0.  0.
<mgrwt>
<rscale>  0 0.21313308E+04</rscale>
<asrwt>0</asrwt>
<pdfrwt beam="2">  1        2 0.62963750E+00 0.21313308E+04</pdfrwt>
<pdfrwt beam="1">  1       -2 0.42689830E-01 0.21313308E+04</pdfrwt>
<totfact> 0.13851055E+00</totfact>
</mgrwt>
</event>
<event>
 4    1  0.2019612E-008  0.2270992E+04  0.7816531E-02  0.8489447E-01
         -2   -1    0    0    0  501 -0.00000000000E+00  0.00000000000E+00  0.56176299739E+03  0.56176299739E+03  0.00000000000E+00 0. -1.
          2   -1    0    0  501    0  0.00000000000E+00 -0.00000000000E+00 -0.22951862398E+04  0.22951862398E+04  0.00000000000E+00 0.  1.
    2000013    1    1    2    0    0 -0.34807394489E+03 -0.17425395054E+03 -0.25643550291E+03  0.10581961432E+04  0.95000000000E+03 0.  0.
   -2000013    1    1    2    0    0  0.34807394489E+03  0.17425395054E+03 -0.14769877395E+04  0.17987530939E+04  0.95000000000E+03 0.  0.
<mgrwt>
<rscale>  0 0.22709916E+04</rscale>
<asrwt>0</asrwt>
<pdfrwt beam="2">  1        2 0.35310558E+00 0.22709916E+04</pdfrwt>
<pdfrwt beam="1">  1       -2 0.86425075E-01 0.22709916E+04</pdfrwt>
<totfact> 0.48087976E+00</totfact>
</mgrwt>
</event>
<event>
 4    1  0.2019612E-008  0.2124574E+04  0.7816531E-02  0.8550495E-01
          2   -1    0    0  501    0  0.00000000000E+00  0.00000000000E+00  0.21936970730E+04  0.21936970730E+04  0.00000000000E+00 0.  1.
         -2   -1    0    0    0  501 -0.00000000000E+00 -0.00000000000E+00 -0.51440730248E+03  0.51440730248E+03  0.00000000000E+00 0. -1.
    2000013    1    1    2    0    0 -0.45123112126E+03 -0.72922758873E+02  0.10059695731E+04  0.14571897733E+04  0.95000000000E+03 0.  0.
   -2000013    1    1    2    0    0  0.45123112126E+03  0.72922758873E+02  0.67332019743E+03  0.12509146021E+04  0.95000000000E+03 0.  0.
<mgrwt>
<rscale>  0 0.21245741E+04</rscale>
<asrwt>0</asrwt>
<pdfrwt beam="1">  1        2 0.33749185E+00 0.21245741E+04</pdfrwt>
<pdfrwt beam="2">  1       -2 0.79139586E-01 0.21245741E+04</pdfrwt>
<totfact> 0.67810015E+00</totfact>
</mgrwt>
</event>
<event>
 4    1  0.2019612E-008  0.2003192E+04  0.7816531E-02  0.8605130E-01
          2   -1    0    0  501    0  0.00000000000E+00  0.00000000000E+00  0.14704538326E+04  0.14704538326E+04  0.00000000000E+00 0.  1.
         -2   -1    0    0    0  501 -0.00000000000E+00 -0.00000000000E+00 -0.68223473912E+03  0.68223473912E+03  0.00000000000E+00 0. -1.
    2000013    1    1    2    0    0  0.24220266910E+03 -0.19787002094E+03  0.45178028386E+03  0.10974607524E+04  0.95000000000E+03 0.  0.
   -2000013    1    1    2    0    0 -0.24220266910E+03  0.19787002094E+03  0.33643880961E+03  0.10552278193E+04  0.95000000000E+03 0.  0.
<mgrwt>
<rscale>  0 0.20031921E+04</rscale>
<asrwt>0</asrwt>
<pdfrwt beam="1">  1        2 0.22622367E+00 0.20031921E+04</pdfrwt>
<pdfrwt beam="2">  1       -2 0.10495919E+00 0.20031921E+04</pdfrwt>
<totfact> 0.90168838E+00</totfact>
</mgrwt>
</event>
<event>
 4    1  0.2019612E-008  0.3359860E+04  0.7816531E-02  0.8147829E-01
         -2   -1    0    0    0  501 -0.00000000000E+00  0.00000000000E+00  0.17950717619E+04  0.17950717619E+04  0.00000000000E+00 0. -1.
          2   -1    0    0  501    0  0.00000000000E+00 -0.00000000000E+00 -0.15721742527E+04  0.15721742527E+04  0.00000000000E+00 0.  1.
    2000013    1    1    2    0    0  0.11997680570E+04 -0.52849899857E+03  0.56066503543E+03  0.17133592338E+04  0.95000000000E+03 0.  0.
   -2000013    1    1    2    0    0 -0.11997680570E+04  0.52849899857E+03 -0.33776752624E+03  0.16538867809E+04  0.95000000000E+03 0.  0.
<mgrwt>
<rscale>  0 0.33598605E+04</rscale>
<asrwt>0</asrwt>
<pdfrwt beam="2">  1        2 0.24187296E+00 0.33598605E+04</pdfrwt>
<pdfrwt beam="1">  1       -2 0.27616489E+00 0.33598605E+04</pdfrwt>
<totfact> 0.42699801E-01</totfact>
</mgrwt>
</event>
<event>
 4    1  0.2019612E-008  0.1993673E+04  0.7816531E-02  0.8609584E-01
         -1   -1    0    0    0  501 -0.00000000000E+00  0.00000000000E+00  0.67567302499E+03  0.67567302499E+03  0.00000000000E+00 0. -1.
          1   -1    0    0  501    0  0.00000000000E+00 -0.00000000000E+00 -0.14706570791E+04  0.14706570791E+04  0.00000000000E+00 0.  1.
    2000013    1    1    2    0    0 -0.22966665334E+03  0.44725484401E+02 -0.60299065296E+03  0.11492801522E+04  0.95000000000E+03 0.  0.
   -2000013    1    1    2    0    0  0.22966665334E+03 -0.44725484401E+02 -0.19199340120E+03  0.99704995197E+03  0.95000000000E+03 0.  0.
<mgrwt>
<rscale>  0 0.19936733E+04</rscale>
<asrwt>0</asrwt>
<pdfrwt beam="2">  1        1 0.22625493E+00 0.19936733E+04</pdfrwt>
<pdfrwt beam="1">  1       -1 0.10394970E+00 0.19936733E+04</pdfrwt>
<totfact> 0.55459905E+00</totfact>
</mgrwt>
</event>
<event>
 4    1  0.2019612E-008  0.2526840E+04  0.7816531E-02  0.8393486E-01
          2   -1    0    0  501    0  0.00000000000E+00  0.00000000000E+00  0.47378175604E+04  0.47378175604E+04  0.00000000000E+00 0.  1.
         -2   -1    0    0    0  501 -0.00000000000E+00 -0.00000000000E+00 -0.33691253213E+03  0.33691253213E+03  0.00000000000E+00 0. -1.
    2000013    1    1    2    0    0 -0.47151978074E+03 -0.52281379257E+02  0.35753390686E+04  0.37296935131E+04  0.95000000000E+03 0.  0.
   -2000013    1    1    2    0    0  0.47151978074E+03  0.52281379257E+02  0.82556595969E+03  0.13450365794E+04  0.95000000000E+03 0.  0.
<mgrwt>
<rscale>  0 0.25268400E+04</rscale>
<asrwt>0</asrwt>
<pdfrwt beam="1">  1        2 0.72889496E+00 0.25268400E+04</pdfrwt>
<pdfrwt beam="2">  1       -2 0.51832701E-01 0.25268400E+04</pdfrwt>
<totfact> 0.21991624E-01</totfact>
</mgrwt>
</event>
<event>
 4    1  0.2019612E-008  0.2015868E+04  0.7816531E-02  0.8599237E-01
          1   -1    0    0  501    0  0.00000000000E+00  0.00000000000E+00  0.75460914060E+03  0.75460914060E+03  0.00000000000E+00 0.  1.
         -1   -1    0    0    0  501 -0.00000000000E+00 -0.00000000000E+00 -0.13463013951E+04  0.13463013951E+04  0.00000000000E+00 0. -1.
    2000013    1    1    2    0    0  0.92692683241E+02 -0.32134271634E+03 -0.25444280511E+03  0.10387945976E+04  0.95000000000E+03 0.  0.
   -2000013    1    1    2    0    0 -0.92692683241E+02  0.32134271634E+03 -0.33724944936E+03  0.10621159381E+04  0.95000000000E+03 0.  0.
<mgrwt>
<rscale>  0 0.20158684E+04</rscale>
<asrwt>0</asrwt>
<pdfrwt beam="1">  1        1 0.11609372E+00 0.20158684E+04</pdfrwt>
<pdfrwt beam="2">  1       -1 0.20712329E+00 0.20158684E+04</pdfrwt>
<totfact> 0.30218921E+00</totfact>
</mgrwt>
</event>
<event>
 4    1  0.2019612E-008  0.2111768E+04  0.7816531E-02  0.8556077E-01
         -2   -1    0    0    0  501 -0.00000000000E+00  0.00000000000E+00  0.30713132563E+03  0.30713132563E+03  0.00000000000E+00 0. -1.
          2   -1    0    0  501    0  0.00000000000E+00 -0.00000000000E+00 -0.36300141338E+04  0.36300141338E+04  0.00000000000E+00 0.  1.
    2000013    1    1    2    0    0 -0.99683185200E+01  0.34322107648E+03 -0.10883413861E+04  0.14848862069E+04  0.95000000000E+03 0.  0.
   -2000013    1    1    2    0    0  0.99683185200E+01 -0.34322107648E+03 -0.22345414221E+04  0.24522592525E+04  0.95000000000E+03 0.  0.
<mgrwt>
<rscale>  0 0.21117680E+04</rscale>
<asrwt>0</asrwt>
<pdfrwt beam="2">  1        2 0.55846370E+00 0.21117680E+04</pdfrwt>
<pdfrwt beam="1">  1       -2 0.47250974E-01 0.21117680E+04</pdfrwt>
<totfact> 0.25807143E+00</totfact>
</mgrwt>
</event>
<event>
 4    1  0.2019612E-008  0.2215099E+04  0.7816531E-02  0.8512170E-01
          2   -1    0    0  501    0  0.00000000000E+00  0.00000000000E+00  0.31738956281E+04  0.31738956281E+04  0.00000000000E+00 0.  1.
         -2   -1    0    0    0  501 -0.00000000000E+00 -0.00000000000E+00 -0.38648606648E+03  0.38648606648E+03  0.00000000000E+00 0. -1.
    2000013    1    1    2    0    0 -0.21544213754E+03  0.42373845976E+03  0.89002782874E+03  0.13858640384E+04  0.95000000000E+03 0.  0.
   -2000013    1    1    2    0    0  0.21544213754E+03 -0.42373845976E+03  0.18973817329E+04  0.21745176562E+04  0.95000000000E+03 0.  0.
<mgrwt>
<rscale>  0 0.22150995E+04</rscale>
<asrwt>0</asrwt>
<pdfrwt beam="1">  1        2 0.48829162E+00 0.22150995E+04</pdfrwt>
<pdfrwt beam="2">  1       -2 0.59459397E-01 0.22150995E+04</pdfrwt>
<totfact> 0.32559033E+00</totfact>
</mgrwt>
</event>
<event>
 4    1  0.2019612E-008  0.2205435E+04  0.7816531E-02  0.8516169E-01
          2   -1    0    0  501    0  0.00000000000E+00  0.00000000000E+00  0.27042996755E+04  0.27042996755E+04  0.00000000000E+00 0.  1.
         -2   -1    0    0    0  501 -0.00000000000E+00 -0.00000000000E+00 -0.44964910198E+03  0.44964910198E+03  0.00000000000E+00 0. -1.
    2000013    1    1    2    0    0 -0.13405567974E+02 -0.55968263996E+03  0.11385451604E+04  0.15849950943E+04  0.95000000000E+03 0.  0.
   -2000013    1    1    2    0    0  0.13405567974E+02  0.55968263996E+03  0.11161054131E+04  0.15689536831E+04  0.95000000000E+03 0.  0.
<mgrwt>
<rscale>  0 0.22054350E+04</rscale>
<asrwt>0</asrwt>
<pdfrwt beam="1">  1        2 0.41604609E+00 0.22054350E+04</pdfrwt>
<pdfrwt beam="2">  1       -2 0.69176787E-01 0.22054350E+04</pdfrwt>
<totfact> 0.46027701E+00</totfact>
</mgrwt>
</event>
<event>
 4    1  0.2019612E-008  0.2411575E+04  0.7816531E-02  0.8435183E-01
         -2   -1    0    0    0  501 -0.00000000000E+00  0.00000000000E+00  0.98443162945E+03  0.98443162945E+03  0.00000000000E+00 0. -1.
          2   -1    0    0  501    0  0.00000000000E+00 -0.00000000000E+00 -0.14769163019E+04  0.14769163019E+04  0.00000000000E+00 0.  1.
    2000013    1    1    2    0    0 -0.42551384880E+03  0.60038277615E+03 -0.34780291360E+03  0.12509949561E+04  0.95000000000E+03 0.  0.
   -2000013    1    1    2    0    0  0.42551384880E+03 -0.60038277615E+03 -0.14468175884E+03  0.12103529753E+04  0.95000000000E+03 0.  0.
<mgrwt>
<rscale>  0 0.24115747E+04</rscale>
<asrwt>0</asrwt>
<pdfrwt beam="2">  1        2 0.22721789E+00 0.24115747E+04</pdfrwt>
<pdfrwt beam="1">  1       -2 0.15145102E+00 0.24115747E+04</pdfrwt>
<totfact> 0.34327812E+00</totfact>
</mgrwt>
</event>
<event>
 4    1  0.2019612E-008  0.3140417E+04  0.7816531E-02  0.8204732E-01
          2   -1    0    0  501    0  0.00000000000E+00  0.00000000000E+00  0.24894619779E+04  0.24894619779E+04  0.00000000000E+00 0.  1.
         -2   -1    0    0    0  501 -0.00000000000E+00 -0.00000000000E+00 -0.99039682505E+03  0.99039682505E+03  0.00000000000E+00 0. -1.
    2000013    1    1    2    0    0  0.12367612916E+04 -0.18296517410E+03  0.74875565046E+03  0.17395947147E+04  0.95000000000E+03 0.  0.
   -2000013    1    1    2    0    0 -0.12367612916E+04  0.18296517410E+03  0.75030950243E+03  0.17402640883E+04  0.95000000000E+03 0.  0.
<mgrwt>
<rscale>  0 0.31404173E+04</rscale>
<asrwt>0</asrwt>
<pdfrwt beam="1">  1        2 0.38299415E+00 0.31404173E+04</pdfrwt>
<pdfrwt beam="2">  1       -2 0.15236874E+00 0.31404173E+04</pdfrwt>
<totfact> 0.85838957E-01</totfact>
</mgrwt>
</event>
<event>
 4    1  0.2019612E-008  0.2065622E+04  0.7816531E-02  0.8576540E-01
         -2   -1    0    0    0  501 -0.00000000000E+00  0.00000000000E+00  0.22573036035E+04  0.22573036035E+04  0.00000000000E+00 0. -1.
          2   -1    0    0  501    0  0.00000000000E+00 -0.00000000000E+00 -0.47255441848E+03  0.47255441848E+03  0.00000000000E+00 0.  1.
    2000013    1    1    2    0    0  0.28920567206E+02  0.37728205591E+03  0.70076724499E+03  0.12396583725E+04  0.95000000000E+03 0.  0.
   -2000013    1    1    2    0    0 -0.28920567206E+02 -0.37728205591E+03  0.10839819400E+04  0.14901996494E+04  0.95000000000E+03 0.  0.
<mgrwt>
<rscale>  0 0.20656222E+04</rscale>
<asrwt>0</asrwt>
<pdfrwt beam="2">  1        2 0.72700681E-01 0.20656222E+04</pdfrwt>
<pdfrwt beam="1">  1       -2 0.34727747E+00 0.20656222E+04</pdfrwt>
<totfact> 0.98531623E-01</totfact>
</mgrwt>
</event>
<event>
 4    1  0.2019612E-008  0.2323833E+04  0.7816531E-02  0.8468583E-01
          2   -1    0    0  501    0  0.00000000000E+00  0.00000000000E+00  0.19537851326E+04  0.19537851326E+04  0.00000000000E+00 0.  1.
         -2   -1    0    0    0  501 -0.00000000000E+00 -0.00000000000E+00 -0.69099180012E+03  0.69099180012E+03  0.00000000000E+00 0. -1.
    2000013    1    1    2    0    0  0.51979153599E+03 -0.10973942270E+03  0.10941521061E+04  0.15433388523E+04  0.95000000000E+03 0.  0.
   -2000013    1    1    2    0    0 -0.51979153599E+03  0.10973942270E+03  0.16864122642E+03  0.11014380804E+04  0.95000000000E+03 0.  0.
<mgrwt>
<rscale>  0 0.23238326E+04</rscale>
<asrwt>0</asrwt>
<pdfrwt beam="1">  1        2 0.30058233E+00 0.23238326E+04</pdfrwt>
<pdfrwt beam="2">  1       -2 0.10630643E+00 0.23238326E+04</pdfrwt>
<totfact> 0.45765979E+00</totfact>
</mgrwt>
</event>
<event>
 4    1  0.2019612E-008  0.2360717E+04  0.7816531E-02  0.8454359E-01
         -2   -1    0    0    0  501 -0.00000000000E+00  0.00000000000E+00  0.67078635434E+03  0.67078635434E+03  0.00000000000E+00 0. -1.
          2   -1    0    0  501    0  0.00000000000E+00 -0.00000000000E+00 -0.20770343524E+04  0.20770343524E+04  0.00000000000E+00 0.  1.
    2000013    1    1    2    0    0  0.31552137220E+03  0.36675783388E+03 -0.11340988143E+03  0.10721132619E+04  0.95000000000E+03 0.  0.
   -2000013    1    1    2    0    0 -0.31552137220E+03 -0.36675783388E+03 -0.12928381166E+04  0.16757074449E+04  0.95000000000E+03 0.  0.
<mgrwt>
<rscale>  0 0.23607171E+04</rscale>
<asrwt>0</asrwt>
<pdfrwt beam="2">  1        2 0.31954374E+00 0.23607171E+04</pdfrwt>
<pdfrwt beam="1">  1       -2 0.10319790E+00 0.23607171E+04</pdfrwt>
<totfact> 0.41831919E+00</totfact>
</mgrwt>
</event>
<event>
 4    1  0.2019612E-008  0.2430358E+04  0.7816531E-02  0.8428225E-01
          2   -1    0    0  501    0  0.00000000000E+00  0.00000000000E+00  0.27172655441E+04  0.27172655441E+04  0.00000000000E+00 0.  1.
         -2   -1    0    0    0  501 -0.00000000000E+00 -0.00000000000E+00 -0.54343612172E+03  0.54343612172E+03  0.00000000000E+00 0. -1.
    2000013    1    1    2    0    0 -0.62065344461E+02  0.55998438087E+02  0.20973262340E+04  0.23039672879E+04  0.95000000000E+03 0.  0.
   -2000013    1    1    2    0    0  0.62065344461E+02 -0.55998438087E+02  0.76503188405E+02  0.95673437792E+03  0.95000000000E+03 0.  0.
<mgrwt>
<rscale>  0 0.24303582E+04</rscale>
<asrwt>0</asrwt>
<pdfrwt beam="1">  1        2 0.41804085E+00 0.24303582E+04</pdfrwt>
<pdfrwt beam="2">  1       -2 0.83605559E-01 0.24303582E+04</pdfrwt>
<totfact> 0.29102420E+00</totfact>
</mgrwt>
</event>
<event>
 4    1  0.2019612E-008  0.2588337E+04  0.7816531E-02  0.8372174E-01
         -2   -1    0    0    0  501 -0.00000000000E+00  0.00000000000E+00  0.44705206739E+03  0.44705206739E+03  0.00000000000E+00 0. -1.
          2   -1    0    0  501    0  0.00000000000E+00 -0.00000000000E+00 -0.37464813619E+04  0.37464813619E+04  0.00000000000E+00 0.  1.
    2000013    1    1    2    0    0  0.84742601262E+03  0.16527025561E+03 -0.13838538285E+04  0.18875901364E+04  0.95000000000E+03 0.  0.
   -2000013    1    1    2    0    0 -0.84742601262E+03 -0.16527025561E+03 -0.19155754659E+04  0.23059432929E+04  0.95000000000E+03 0.  0.
<mgrwt>
<rscale>  0 0.25883371E+04</rscale>
<asrwt>0</asrwt>
<pdfrwt beam="2">  1        2 0.57638176E+00 0.25883371E+04</pdfrwt>
<pdfrwt beam="1">  1       -2 0.68777240E-01 0.25883371E+04</pdfrwt>
<totfact> 0.92336036E-01</totfact>
</mgrwt>
</event>
<event>
 4    1  0.2019612E-008  0.2378308E+04  0.7816531E-02  0.8447670E-01
         -1   -1    0    0    0  501 -0.00000000000E+00  0.00000000000E+00  0.77295378244E+03  0.77295378244E+03  0.00000000000E+00 0.  1.
          1   -1    0    0  501    0  0.00000000000E+00 -0.00000000000E+00 -0.18294589762E+04  0.18294589762E+04  0.00000000000E+00 0. -1.
    2000013    1    1    2    0    0 -0.68009964223E+03 -0.75775204385E+02 -0.75597267547E+03  0.13936542222E+04  0.95000000000E+03 0.  0.
   -2000013    1    1    2    0    0  0.68009964223E+03  0.75775204385E+02 -0.30053251833E+03  0.12087585365E+04  0.95000000000E+03 0.  0.
<mgrwt>
<rscale>  0 0.23783080E+04</rscale>
<asrwt>0</asrwt>
<pdfrwt beam="2">  1        1 0.28145522E+00 0.23783080E+04</pdfrwt>
<pdfrwt beam="1">  1       -1 0.11891597E+00 0.23783080E+04</pdfrwt>
<totfact> 0.22107161E+00</totfact>
</mgrwt>
</event>
<event>
 4    1  0.2019612E-008  0.4267966E+04  0.7816531E-02  0.7952568E-01
          2   -1    0    0  501    0  0.00000000000E+00  0.00000000000E+00  0.26442773852E+04  0.26442773852E+04  0.00000000000E+00 0.  1.
         -2   -1    0    0    0  501 -0.00000000000E+00 -0.00000000000E+00 -0.17221654254E+04  0.17221654254E+04  0.00000000000E+00 0. -1.
    2000013    1    1    2    0    0 -0.17644364178E+04 -0.70485834498E+03  0.25308768252E+03  0.21393023475E+04  0.95000000000E+03 0.  0.
   -2000013    1    1    2    0    0  0.17644364178E+04  0.70485834498E+03  0.66902427728E+03  0.22271404632E+04  0.95000000000E+03 0.  0.
<mgrwt>
<rscale>  0 0.42679658E+04</rscale>
<asrwt>0</asrwt>
<pdfrwt beam="1">  1        2 0.40681190E+00 0.42679658E+04</pdfrwt>
<pdfrwt beam="2">  1       -2 0.26494853E+00 0.42679658E+04</pdfrwt>
<totfact> 0.11511981E-01</totfact>
</mgrwt>
</event>
<event>
 4    1  0.2019612E-008  0.2673103E+04  0.7816531E-02  0.8343785E-01
         -2   -1    0    0    0  501 -0.00000000000E+00  0.00000000000E+00  0.66783051763E+03  0.66783051763E+03  0.00000000000E+00 0. -1.
          2   -1    0    0  501    0  0.00000000000E+00 -0.00000000000E+00 -0.26748854109E+04  0.26748854109E+04  0.00000000000E+00 0.  1.
    2000013    1    1    2    0    0 -0.12568648395E+03 -0.71667614889E+03 -0.25903514548E+03  0.12243451316E+04  0.95000000000E+03 0.  0.
   -2000013    1    1    2    0    0  0.12568648395E+03  0.71667614889E+03 -0.17480197477E+04  0.21183707969E+04  0.95000000000E+03 0.  0.
<mgrwt>
<rscale>  0 0.26731031E+04</rscale>
<asrwt>0</asrwt>
<pdfrwt beam="2">  1        2 0.41152083E+00 0.26731031E+04</pdfrwt>
<pdfrwt beam="1">  1       -2 0.10274316E+00 0.26731031E+04</pdfrwt>
<totfact> 0.18708242E+00</totfact>
</mgrwt>
</event>
<event>
 4    1  0.2019612E-008  0.2952708E+04  0.7816531E-02  0.8257366E-01
         -2   -1    0    0    0  501 -0.00000000000E+00  0.00000000000E+00  0.71914783198E+03  0.71914783198E+03  0.00000000000E+00 0. -1.
          2   -1    0    0  501    0  0.00000000000E+00 -0.00000000000E+00 -0.30308397637E+04  0.30308397637E+04  0.00000000000E+00 0.  1.
    2000013    1    1    2    0    0 -0.18606718144E+03 -0.11046648199E+04 -0.13451443610E+04  0.19916874032E+04  0.95000000000E+03 0.  0.
   -2000013    1    1    2    0    0  0.18606718144E+03  0.11046648199E+04 -0.96654757065E+03  0.17583001924E+04  0.95000000000E+03 0.  0.
<mgrwt>
<rscale>  0 0.29527085E+04</rscale>
<asrwt>0</asrwt>
<pdfrwt beam="2">  1        2 0.46628304E+00 0.29527085E+04</pdfrwt>
<pdfrwt beam="1">  1       -2 0.11063813E+00 0.29527085E+04</pdfrwt>
<totfact> 0.92646820E-01</totfact>
</mgrwt>
</event>
<event>
 4    1  0.2019612E-008  0.2409313E+04  0.7816531E-02  0.8436025E-01
          2   -1    0    0  501    0  0.00000000000E+00  0.00000000000E+00  0.27998547260E+04  0.27998547260E+04  0.00000000000E+00 0.  1.
         -2   -1    0    0    0  501 -0.00000000000E+00 -0.00000000000E+00 -0.51831182576E+03  0.51831182576E+03  0.00000000000E+00 0. -1.
    2000013    1    1    2    0    0  0.73382803727E+03 -0.27436126684E+02  0.10069502120E+04  0.15670689387E+04  0.95000000000E+03 0.  0.
   -2000013    1    1    2    0    0 -0.73382803727E+03  0.27436126684E+02  0.12745926882E+04  0.17510976130E+04  0.95000000000E+03 0.  0.
<mgrwt>
<rscale>  0 0.24093134E+04</rscale>
<asrwt>0</asrwt>
<pdfrwt beam="1">  1        2 0.43074687E+00 0.24093134E+04</pdfrwt>
<pdfrwt beam="2">  1       -2 0.79740282E-01 0.24093134E+04</pdfrwt>
<totfact> 0.28941724E+00</totfact>
</mgrwt>
</event>
<event>
 4    1  0.2019612E-008  0.2182687E+04  0.7816531E-02  0.8525669E-01
         -2   -1    0    0    0  501 -0.00000000000E+00  0.00000000000E+00  0.13196945826E+04  0.13196945826E+04  0.00000000000E+00 0. -1.
          2   -1    0    0  501    0  0.00000000000E+00 -0.00000000000E+00 -0.90250504141E+03  0.90250504141E+03  0.00000000000E+00 0.  1.
    2000013    1    1    2    0    0  0.53646046234E+03 -0.24793773223E+02  0.22004356298E+03  0.11132491763E+04  0.95000000000E+03 0.  0.
   -2000013    1    1    2    0    0 -0.53646046234E+03  0.24793773223E+02  0.19714597822E+03  0.11089504478E+04  0.95000000000E+03 0.  0.
<mgrwt>
<rscale>  0 0.21826873E+04</rscale>
<asrwt>0</asrwt>
<pdfrwt beam="2">  1        2 0.13884693E+00 0.21826873E+04</pdfrwt>
<pdfrwt beam="1">  1       -2 0.20302994E+00 0.21826873E+04</pdfrwt>
<totfact> 0.33956935E+00</totfact>
</mgrwt>
</event>
<event>
 4    1  0.2019612E-008  0.2910727E+04  0.7816531E-02  0.8269693E-01
         -2   -1    0    0    0  501 -0.00000000000E+00  0.00000000000E+00  0.22511996728E+04  0.22511996728E+04  0.00000000000E+00 0. -1.
          2   -1    0    0  501    0  0.00000000000E+00 -0.00000000000E+00 -0.94086855221E+03  0.94086855221E+03  0.00000000000E+00 0.  1.
    2000013    1    1    2    0    0 -0.37100456699E+03 -0.49366682261E+03  0.16568109985E+04  0.20072055215E+04  0.95000000000E+03 0.  0.
   -2000013    1    1    2    0    0  0.37100456699E+03  0.49366682261E+03 -0.34647987795E+03  0.11848627036E+04  0.95000000000E+03 0.  0.
<mgrwt>
<rscale>  0 0.29107270E+04</rscale>
<asrwt>0</asrwt>
<pdfrwt beam="2">  1        2 0.14474901E+00 0.29107270E+04</pdfrwt>
<pdfrwt beam="1">  1       -2 0.34633841E+00 0.29107270E+04</pdfrwt>
<totfact> 0.38942277E-01</totfact>
</mgrwt>
</event>
<event>
 4    1  0.2019612E-008  0.2563950E+04  0.7816531E-02  0.8380551E-01
          2   -1    0    0  501    0  0.00000000000E+00  0.00000000000E+00  0.95402501860E+03  0.95402501860E+03  0.00000000000E+00 0.  1.
         -2   -1    0    0    0  501 -0.00000000000E+00 -0.00000000000E+00 -0.17226591954E+04  0.17226591954E+04  0.00000000000E+00 0. -1.
    2000013    1    1    2    0    0  0.15727277996E+03 -0.69747072755E+03 -0.88472552755E+03  0.14820389341E+04  0.95000000000E+03 0.  0.
   -2000013    1    1    2    0    0 -0.15727277996E+03  0.69747072755E+03  0.11609135072E+03  0.11946452799E+04  0.95000000000E+03 0.  0.
<mgrwt>
<rscale>  0 0.25639501E+04</rscale>
<asrwt>0</asrwt>
<pdfrwt beam="1">  1        2 0.14677308E+00 0.25639501E+04</pdfrwt>
<pdfrwt beam="2">  1       -2 0.26502449E+00 0.25639501E+04</pdfrwt>
<totfact> 0.12444136E+00</totfact>
</mgrwt>
</event>
<event>
 4    1  0.2019612E-008  0.2072253E+04  0.7816531E-02  0.8573566E-01
         -2   -1    0    0    0  501 -0.00000000000E+00  0.00000000000E+00  0.43819354499E+03  0.43819354499E+03  0.00000000000E+00 0. -1.
          2   -1    0    0  501    0  0.00000000000E+00 -0.00000000000E+00 -0.24499627626E+04  0.24499627626E+04  0.00000000000E+00 0.  1.
    2000013    1    1    2    0    0 -0.19726581265E+03 -0.23890284437E+03 -0.62401972319E+03  0.11780870022E+04  0.95000000000E+03 0.  0.
   -2000013    1    1    2    0    0  0.19726581265E+03  0.23890284437E+03 -0.13877494944E+04  0.17100693054E+04  0.95000000000E+03 0.  0.
<mgrwt>
<rscale>  0 0.20722528E+04</rscale>
<asrwt>0</asrwt>
<pdfrwt beam="2">  1        2 0.37691736E+00 0.20722528E+04</pdfrwt>
<pdfrwt beam="1">  1       -2 0.67414390E-01 0.20722528E+04</pdfrwt>
<totfact> 0.69364375E+00</totfact>
</mgrwt>
</event>
<event>
 4    1  0.2019612E-008  0.2314126E+04  0.7816531E-02  0.8472372E-01
         -2   -1    0    0    0  501 -0.00000000000E+00  0.00000000000E+00  0.61582058871E+03  0.61582058871E+03  0.00000000000E+00 0. -1.
          2   -1    0    0  501    0  0.00000000000E+00 -0.00000000000E+00 -0.21740007163E+04  0.21740007163E+04  0.00000000000E+00 0.  1.
    2000013    1    1    2    0    0  0.60530561356E+03 -0.26407266183E+03 -0.79458256029E+03  0.14035635724E+04  0.95000000000E+03 0.  0.
   -2000013    1    1    2    0    0 -0.60530561356E+03  0.26407266183E+03 -0.76359756726E+03  0.13862577326E+04  0.95000000000E+03 0.  0.
<mgrwt>
<rscale>  0 0.23141257E+04</rscale>
<asrwt>0</asrwt>
<pdfrwt beam="2">  1        2 0.33446165E+00 0.23141257E+04</pdfrwt>
<pdfrwt beam="1">  1       -2 0.94741628E-01 0.23141257E+04</pdfrwt>
<totfact> 0.45357197E+00</totfact>
</mgrwt>
</event>
<event>
 4    1  0.2019612E-008  0.3690969E+04  0.7816531E-02  0.8069966E-01
          2   -1    0    0  501    0  0.00000000000E+00  0.00000000000E+00  0.22983017680E+04  0.22983017680E+04  0.00000000000E+00 0.  1.
         -2   -1    0    0    0  501 -0.00000000000E+00 -0.00000000000E+00 -0.14818825715E+04  0.14818825715E+04  0.00000000000E+00 0. -1.
    2000013    1    1    2    0    0  0.90585602887E+03  0.12273463958E+04  0.83831152984E+03  0.19829827385E+04  0.95000000000E+03 0.  0.
   -2000013    1    1    2    0    0 -0.90585602887E+03 -0.12273463958E+04 -0.21892333348E+02  0.17972016010E+04  0.95000000000E+03 0.  0.
<mgrwt>
<rscale>  0 0.36909692E+04</rscale>
<asrwt>0</asrwt>
<pdfrwt beam="1">  1        2 0.35358489E+00 0.36909692E+04</pdfrwt>
<pdfrwt beam="2">  1       -2 0.22798193E+00 0.36909692E+04</pdfrwt>
<totfact> 0.32357713E-01</totfact>
</mgrwt>
</event>
<event>
 4    1  0.2019612E-008  0.2043323E+04  0.7816531E-02  0.8586629E-01
         -1   -1    0    0    0  501 -0.00000000000E+00  0.00000000000E+00  0.90125164208E+03  0.90125164208E+03  0.00000000000E+00 0. -1.
          1   -1    0    0  501    0  0.00000000000E+00 -0.00000000000E+00 -0.11581589939E+04  0.11581589939E+04  0.00000000000E+00 0.  1.
    2000013    1    1    2    0    0  0.18871584820E+02 -0.36540164164E+03 -0.41646614158E+02  0.10188763109E+04  0.95000000000E+03 0.  0.
   -2000013    1    1    2    0    0 -0.18871584820E+02  0.36540164164E+03 -0.21526073762E+03  0.10405343250E+04  0.95000000000E+03 0.  0.
<mgrwt>
<rscale>  0 0.20433235E+04</rscale>
<asrwt>0</asrwt>
<pdfrwt beam="2">  1        1 0.17817831E+00 0.20433235E+04</pdfrwt>
<pdfrwt beam="1">  1       -1 0.13865410E+00 0.20433235E+04</pdfrwt>
<totfact> 0.45579122E+00</totfact>
</mgrwt>
</event>
<event>
 4    1  0.2019612E-008  0.3109508E+04  0.7816531E-02  0.8213133E-01
          2   -1    0    0  501    0  0.00000000000E+00  0.00000000000E+00  0.20797521136E+04  0.20797521136E+04  0.00000000000E+00 0.  1.
         -2   -1    0    0    0  501 -0.00000000000E+00 -0.00000000000E+00 -0.11622829926E+04  0.11622829926E+04  0.00000000000E+00 0. -1.
    2000013    1    1    2    0    0 -0.80960087580E+03  0.76936241641E+02  0.14218962292E+04  0.18935843392E+04  0.95000000000E+03 0.  0.
   -2000013    1    1    2    0    0  0.80960087580E+03 -0.76936241641E+02 -0.50442710821E+03  0.13484507669E+04  0.95000000000E+03 0.  0.
<mgrwt>
<rscale>  0 0.31095083E+04</rscale>
<asrwt>0</asrwt>
<pdfrwt beam="1">  1        2 0.31996186E+00 0.31095083E+04</pdfrwt>
<pdfrwt beam="2">  1       -2 0.17881277E+00 0.31095083E+04</pdfrwt>
<totfact> 0.94553613E-01</totfact>
</mgrwt>
</event>
<event>
 4    1  0.2019612E-008  0.3734589E+04  0.7816531E-02  0.8060339E-01
          2   -1    0    0  501    0  0.00000000000E+00  0.00000000000E+00  0.19534609427E+04  0.19534609427E+04  0.00000000000E+00 0.  1.
         -2   -1    0    0    0  501 -0.00000000000E+00 -0.00000000000E+00 -0.17849285865E+04  0.17849285865E+04  0.00000000000E+00 0. -1.
    2000013    1    1    2    0    0 -0.14210030992E+04 -0.74975185826E+03  0.13827126738E+03  0.18716293971E+04  0.95000000000E+03 0.  0.
   -2000013    1    1    2    0    0  0.14210030992E+04  0.74975185826E+03  0.30261088849E+02  0.18667601320E+04  0.95000000000E+03 0.  0.
<mgrwt>
<rscale>  0 0.37345887E+04</rscale>
<asrwt>0</asrwt>
<pdfrwt beam="1">  1        2 0.30053245E+00 0.37345887E+04</pdfrwt>
<pdfrwt beam="2">  1       -2 0.27460440E+00 0.37345887E+04</pdfrwt>
<totfact> 0.25971164E-01</totfact>
</mgrwt>
</event>
<event>
 4    1  0.2019612E-008  0.2239079E+04  0.7816531E-02  0.8502336E-01
         -2   -1    0    0    0  501 -0.00000000000E+00  0.00000000000E+00  0.81288649070E+03  0.81288649070E+03  0.00000000000E+00 0. -1.
          2   -1    0    0  501    0  0.00000000000E+00 -0.00000000000E+00 -0.15418743390E+04  0.15418743390E+04  0.00000000000E+00 0.  1.
    2000013    1    1    2    0    0  0.90145273453E+02 -0.43485626236E+03 -0.77671795218E+03  0.13049969029E+04  0.95000000000E+03 0.  0.
   -2000013    1    1    2    0    0 -0.90145273453E+02  0.43485626236E+03  0.47730103902E+02  0.10497639268E+04  0.95000000000E+03 0.  0.
<mgrwt>
<rscale>  0 0.22390791E+04</rscale>
<asrwt>0</asrwt>
<pdfrwt beam="2">  1        2 0.23721144E+00 0.22390791E+04</pdfrwt>
<pdfrwt beam="1">  1       -2 0.12505946E+00 0.22390791E+04</pdfrwt>
<totfact> 0.52466024E+00</totfact>
</mgrwt>
</event>
<event>
 4    1  0.2019612E-008  0.2451000E+04  0.7816531E-02  0.8420653E-01
          3   -1    0    0  501    0  0.00000000000E+00  0.00000000000E+00  0.14920035303E+04  0.14920035303E+04  0.00000000000E+00 0.  1.
         -3   -1    0    0    0  501 -0.00000000000E+00 -0.00000000000E+00 -0.10066000474E+04  0.10066000474E+04  0.00000000000E+00 0. -1.
    2000013    1    1    2    0    0  0.39407107970E+03 -0.66445806380E+03  0.29422330823E+03  0.12593108788E+04  0.95000000000E+03 0.  0.
   -2000013    1    1    2    0    0 -0.39407107970E+03  0.66445806380E+03  0.19118017465E+03  0.12392926989E+04  0.95000000000E+03 0.  0.
<mgrwt>
<rscale>  0 0.24510005E+04</rscale>
<asrwt>0</asrwt>
<pdfrwt beam="1">  1        3 0.22953901E+00 0.24510005E+04</pdfrwt>
<pdfrwt beam="2">  1       -3 0.15486155E+00 0.24510005E+04</pdfrwt>
<totfact> 0.67340432E-02</totfact>
</mgrwt>
</event>
<event>
 4    1  0.2019612E-008  0.2627562E+04  0.7816531E-02  0.8358899E-01
          2   -1    0    0  501    0  0.00000000000E+00  0.00000000000E+00  0.29272223898E+04  0.29272223898E+04  0.00000000000E+00 0.  1.
         -2   -1    0    0    0  501 -0.00000000000E+00 -0.00000000000E+00 -0.58964468271E+03  0.58964468271E+03  0.00000000000E+00 0. -1.
    2000013    1    1    2    0    0 -0.22815416578E+03  0.77690094659E+03  0.62036348514E+03  0.13939082674E+04  0.95000000000E+03 0.  0.
   -2000013    1    1    2    0    0  0.22815416578E+03 -0.77690094659E+03  0.17172142219E+04  0.21229588051E+04  0.95000000000E+03 0.  0.
<mgrwt>
<rscale>  0 0.26275625E+04</rscale>
<asrwt>0</asrwt>
<pdfrwt beam="1">  1        2 0.45034190E+00 0.26275625E+04</pdfrwt>
<pdfrwt beam="2">  1       -2 0.90714568E-01 0.26275625E+04</pdfrwt>
<totfact> 0.17696968E+00</totfact>
</mgrwt>
</event>
<event>
 4    1  0.2019612E-008  0.2223531E+04  0.7816531E-02  0.8508697E-01
         -2   -1    0    0    0  501 -0.00000000000E+00  0.00000000000E+00  0.75542875139E+03  0.75542875139E+03  0.00000000000E+00 0. -1.
          2   -1    0    0  501    0  0.00000000000E+00 -0.00000000000E+00 -0.16361871670E+04  0.16361871670E+04  0.00000000000E+00 0.  1.
    2000013    1    1    2    0    0  0.53672925707E+03 -0.21297578836E+03 -0.43041345188E+03  0.11921378785E+04  0.95000000000E+03 0.  0.
   -2000013    1    1    2    0    0 -0.53672925707E+03  0.21297578836E+03 -0.45034496375E+03  0.11994780399E+04  0.95000000000E+03 0.  0.
<mgrwt>
<rscale>  0 0.22235313E+04</rscale>
<asrwt>0</asrwt>
<pdfrwt beam="2">  1        2 0.25172110E+00 0.22235313E+04</pdfrwt>
<pdfrwt beam="1">  1       -2 0.11621981E+00 0.22235313E+04</pdfrwt>
<totfact> 0.55805325E+00</totfact>
</mgrwt>
</event>
<event>
 4    1  0.2019612E-008  0.2819676E+04  0.7816531E-02  0.8297186E-01
         -2   -1    0    0    0  501 -0.00000000000E+00  0.00000000000E+00  0.98828343083E+03  0.98828343083E+03  0.00000000000E+00 0. -1.
          2   -1    0    0  501    0  0.00000000000E+00 -0.00000000000E+00 -0.20112071309E+04  0.20112071309E+04  0.00000000000E+00 0.  1.
    2000013    1    1    2    0    0 -0.70085239410E+03  0.11162606064E+03  0.29972109338E+03  0.12231055513E+04  0.95000000000E+03 0.  0.
   -2000013    1    1    2    0    0  0.70085239410E+03 -0.11162606064E+03 -0.13226447934E+04  0.17763850105E+04  0.95000000000E+03 0.  0.
<mgrwt>
<rscale>  0 0.28196756E+04</rscale>
<asrwt>0</asrwt>
<pdfrwt beam="2">  1        2 0.30941648E+00 0.28196756E+04</pdfrwt>
<pdfrwt beam="1">  1       -2 0.15204360E+00 0.28196756E+04</pdfrwt>
<totfact> 0.16538008E+00</totfact>
</mgrwt>
</event>
<event>
 4    1  0.2019612E-008  0.2226861E+04  0.7816531E-02  0.8507330E-01
          2   -1    0    0  501    0  0.00000000000E+00  0.00000000000E+00  0.21654580448E+04  0.21654580448E+04  0.00000000000E+00 0.  1.
         -2   -1    0    0    0  501 -0.00000000000E+00 -0.00000000000E+00 -0.57250144052E+03  0.57250144052E+03  0.00000000000E+00 0. -1.
    2000013    1    1    2    0    0  0.20830904745E+03 -0.52921994070E+03  0.65224489422E+03  0.12850641256E+04  0.95000000000E+03 0.  0.
   -2000013    1    1    2    0    0 -0.20830904745E+03  0.52921994070E+03  0.94071171010E+03  0.14528953598E+04  0.95000000000E+03 0.  0.
<mgrwt>
<rscale>  0 0.22268613E+04</rscale>
<asrwt>0</asrwt>
<pdfrwt beam="1">  1        2 0.33314739E+00 0.22268613E+04</pdfrwt>
<pdfrwt beam="2">  1       -2 0.88077146E-01 0.22268613E+04</pdfrwt>
<totfact> 0.54695480E+00</totfact>
</mgrwt>
</event>
<event>
 4    1  0.2019612E-008  0.3250608E+04  0.7816531E-02  0.8175578E-01
          1   -1    0    0  501    0  0.00000000000E+00  0.00000000000E+00  0.25254135510E+04  0.25254135510E+04  0.00000000000E+00 0.  1.
         -1   -1    0    0    0  501 -0.00000000000E+00 -0.00000000000E+00 -0.10460122382E+04  0.10460122382E+04  0.00000000000E+00 0. -1.
    2000013    1    1    2    0    0 -0.50709188712E+03 -0.80333632334E+03  0.17446441713E+04  0.22019933503E+04  0.95000000000E+03 0.  0.
   -2000013    1    1    2    0    0  0.50709188712E+03  0.80333632334E+03 -0.26524285854E+03  0.13694324388E+04  0.95000000000E+03 0.  0.
<mgrwt>
<rscale>  0 0.32506082E+04</rscale>
<asrwt>0</asrwt>
<pdfrwt beam="1">  1        1 0.38852516E+00 0.32506082E+04</pdfrwt>
<pdfrwt beam="2">  1       -1 0.16092496E+00 0.32506082E+04</pdfrwt>
<totfact> 0.31150463E-01</totfact>
</mgrwt>
</event>
<event>
 4    1  0.2019612E-008  0.2592490E+04  0.7816531E-02  0.8370757E-01
          2   -1    0    0  501    0  0.00000000000E+00  0.00000000000E+00  0.14210937395E+04  0.14210937395E+04  0.00000000000E+00 0.  1.
         -2   -1    0    0    0  501 -0.00000000000E+00 -0.00000000000E+00 -0.11823643695E+04  0.11823643695E+04  0.00000000000E+00 0. -1.
    2000013    1    1    2    0    0  0.79143590827E+03  0.36162807860E+03 -0.24786838763E+02  0.12885107883E+04  0.95000000000E+03 0.  0.
   -2000013    1    1    2    0    0 -0.79143590827E+03 -0.36162807860E+03  0.26351620877E+03  0.13149473208E+04  0.95000000000E+03 0.  0.
<mgrwt>
<rscale>  0 0.25924896E+04</rscale>
<asrwt>0</asrwt>
<pdfrwt beam="1">  1        2 0.21862981E+00 0.25924896E+04</pdfrwt>
<pdfrwt beam="2">  1       -2 0.18190221E+00 0.25924896E+04</pdfrwt>
<totfact> 0.21918715E+00</totfact>
</mgrwt>
</event>
<event>
 4    1  0.2019612E-008  0.2102588E+04  0.7816531E-02  0.8560104E-01
         -2   -1    0    0    0  501 -0.00000000000E+00  0.00000000000E+00  0.83096760699E+03  0.83096760699E+03  0.00000000000E+00 0. -1.
          2   -1    0    0  501    0  0.00000000000E+00 -0.00000000000E+00 -0.13300385901E+04  0.13300385901E+04  0.00000000000E+00 0.  1.
    2000013    1    1    2    0    0 -0.12452966266E+03 -0.38060550127E+03 -0.38024638195E+02  0.10316559783E+04  0.95000000000E+03 0.  0.
   -2000013    1    1    2    0    0  0.12452966266E+03  0.38060550127E+03 -0.46104634489E+03  0.11293502188E+04  0.95000000000E+03 0.  0.
<mgrwt>
<rscale>  0 0.21025879E+04</rscale>
<asrwt>0</asrwt>
<pdfrwt beam="2">  1        2 0.20462132E+00 0.21025879E+04</pdfrwt>
<pdfrwt beam="1">  1       -2 0.12784117E+00 0.21025879E+04</pdfrwt>
<totfact> 0.66300640E+00</totfact>
</mgrwt>
</event>
<event>
 4    1  0.2019612E-008  0.2120804E+04  0.7816531E-02  0.8552134E-01
          2   -1    0    0  501    0  0.00000000000E+00  0.00000000000E+00  0.20339499475E+04  0.20339499475E+04  0.00000000000E+00 0.  1.
         -2   -1    0    0    0  501 -0.00000000000E+00 -0.00000000000E+00 -0.55284195843E+03  0.55284195843E+03  0.00000000000E+00 0. -1.
    2000013    1    1    2    0    0 -0.39930307893E+03 -0.23296050290E+03  0.62983892073E+03  0.12300043133E+04  0.95000000000E+03 0.  0.
   -2000013    1    1    2    0    0  0.39930307893E+03  0.23296050290E+03  0.85126906836E+03  0.13567875926E+04  0.95000000000E+03 0.  0.
<mgrwt>
<rscale>  0 0.21208044E+04</rscale>
<asrwt>0</asrwt>
<pdfrwt beam="1">  1        2 0.31291537E+00 0.21208044E+04</pdfrwt>
<pdfrwt beam="2">  1       -2 0.85052610E-01 0.21208044E+04</pdfrwt>
<totfact> 0.70799022E+00</totfact>
</mgrwt>
</event>
<event>
 4    1  0.2019612E-008  0.2503608E+04  0.7816531E-02  0.8401701E-01
         -4   -1    0    0    0  501 -0.00000000000E+00  0.00000000000E+00  0.75991468972E+03  0.75991468972E+03  0.00000000000E+00 0. -1.
          4   -1    0    0  501    0  0.00000000000E+00 -0.00000000000E+00 -0.20620916369E+04  0.20620916369E+04  0.00000000000E+00 0.  1.
    2000013    1    1    2    0    0 -0.34798833879E+01  0.80410082663E+03 -0.80199315881E+03  0.14806361051E+04  0.95000000000E+03 0.  0.
   -2000013    1    1    2    0    0  0.34798833879E+01 -0.80410082663E+03 -0.50018378835E+03  0.13413702215E+04  0.95000000000E+03 0.  0.
<mgrwt>
<rscale>  0 0.25036084E+04</rscale>
<asrwt>0</asrwt>
<pdfrwt beam="2">  1        4 0.31724486E+00 0.25036084E+04</pdfrwt>
<pdfrwt beam="1">  1       -4 0.11690995E+00 0.25036084E+04</pdfrwt>
<totfact> 0.24186508E-02</totfact>
</mgrwt>
</event>
<event>
 4    1  0.2019612E-008  0.2247002E+04  0.7816531E-02  0.8499116E-01
          2   -1    0    0  501    0  0.00000000000E+00  0.00000000000E+00  0.33240293084E+04  0.33240293084E+04  0.00000000000E+00 0.  1.
         -2   -1    0    0    0  501 -0.00000000000E+00 -0.00000000000E+00 -0.37973629888E+03  0.37973629888E+03  0.00000000000E+00 0. -1.
    2000013    1    1    2    0    0 -0.19451898037E+02 -0.56159806708E+03  0.11264567560E+04  0.15770781808E+04  0.95000000000E+03 0.  0.
   -2000013    1    1    2    0    0  0.19451898037E+02  0.56159806708E+03  0.18178362535E+04  0.21266874264E+04  0.95000000000E+03 0.  0.
<mgrwt>
<rscale>  0 0.22470021E+04</rscale>
<asrwt>0</asrwt>
<pdfrwt beam="1">  1        2 0.51138911E+00 0.22470021E+04</pdfrwt>
<pdfrwt beam="2">  1       -2 0.58420971E-01 0.22470021E+04</pdfrwt>
<totfact> 0.26838108E+00</totfact>
</mgrwt>
</event>
<event>
 4    1  0.2019612E-008  0.1963496E+04  0.7816531E-02  0.8623880E-01
          2   -1    0    0  501    0  0.00000000000E+00  0.00000000000E+00  0.17119132622E+04  0.17119132622E+04  0.00000000000E+00 0.  1.
         -2   -1    0    0    0  501 -0.00000000000E+00 -0.00000000000E+00 -0.56301304122E+03  0.56301304122E+03  0.00000000000E+00 0. -1.
    2000013    1    1    2    0    0  0.17913277391E+03 -0.16206111708E+03  0.63766749839E+03  0.11693896677E+04  0.95000000000E+03 0.  0.
   -2000013    1    1    2    0    0 -0.17913277391E+03  0.16206111708E+03  0.51123272261E+03  0.11055366358E+04  0.95000000000E+03 0.  0.
<mgrwt>
<rscale>  0 0.19634964E+04</rscale>
<asrwt>0</asrwt>
<pdfrwt beam="1">  1        2 0.26337127E+00 0.19634964E+04</pdfrwt>
<pdfrwt beam="2">  1       -2 0.86617391E-01 0.19634964E+04</pdfrwt>
<totfact> 0.10386407E+01</totfact>
</mgrwt>
</event>
<event>
 4    1  0.2019612E-008  0.2715865E+04  0.7816531E-02  0.8329876E-01
          2   -1    0    0  501    0  0.00000000000E+00  0.00000000000E+00  0.29109862960E+04  0.29109862960E+04  0.00000000000E+00 0.  1.
         -2   -1    0    0    0  501 -0.00000000000E+00 -0.00000000000E+00 -0.63345544395E+03  0.63345544395E+03  0.00000000000E+00 0. -1.
    2000013    1    1    2    0    0  0.88670484055E+03 -0.38742119362E+03  0.10452036375E+04  0.17121014279E+04  0.95000000000E+03 0.  0.
   -2000013    1    1    2    0    0 -0.88670484055E+03  0.38742119362E+03  0.12323272146E+04  0.18323403121E+04  0.95000000000E+03 0.  0.
<mgrwt>
<rscale>  0 0.27158646E+04</rscale>
<asrwt>0</asrwt>
<pdfrwt beam="1">  1        2 0.44784404E+00 0.27158646E+04</pdfrwt>
<pdfrwt beam="2">  1       -2 0.97454685E-01 0.27158646E+04</pdfrwt>
<totfact> 0.15208559E+00</totfact>
</mgrwt>
</event>
<event>
 4    1  0.2019612E-008  0.2200795E+04  0.7816531E-02  0.8518097E-01
          2   -1    0    0  501    0  0.00000000000E+00  0.00000000000E+00  0.92728616983E+03  0.92728616983E+03  0.00000000000E+00 0.  1.
         -2   -1    0    0    0  501 -0.00000000000E+00 -0.00000000000E+00 -0.13058265208E+04  0.13058265208E+04  0.00000000000E+00 0. -1.
    2000013    1    1    2    0    0 -0.47723690894E+03 -0.12099216966E+03  0.71368867101E+02  0.10723747888E+04  0.95000000000E+03 0.  0.
   -2000013    1    1    2    0    0  0.47723690894E+03  0.12099216966E+03 -0.44990921809E+03  0.11607379019E+04  0.95000000000E+03 0.  0.
<mgrwt>
<rscale>  0 0.22007952E+04</rscale>
<asrwt>0</asrwt>
<pdfrwt beam="1">  1        2 0.14265941E+00 0.22007952E+04</pdfrwt>
<pdfrwt beam="2">  1       -2 0.20089639E+00 0.22007952E+04</pdfrwt>
<totfact> 0.33697880E+00</totfact>
</mgrwt>
</event>
<event>
 4    1  0.2019612E-008  0.2989311E+04  0.7816531E-02  0.8246790E-01
         -2   -1    0    0    0  501 -0.00000000000E+00  0.00000000000E+00  0.15336538196E+04  0.15336538196E+04  0.00000000000E+00 0.  1.
          2   -1    0    0  501    0  0.00000000000E+00 -0.00000000000E+00 -0.14566490732E+04  0.14566490732E+04  0.00000000000E+00 0. -1.
    2000013    1    1    2    0    0  0.11064685749E+04 -0.19176494529E+03  0.30401256496E+03  0.15019887287E+04  0.95000000000E+03 0.  0.
   -2000013    1    1    2    0    0 -0.11064685749E+04  0.19176494529E+03 -0.22700781858E+03  0.14883141641E+04  0.95000000000E+03 0.  0.
<mgrwt>
<rscale>  0 0.29893112E+04</rscale>
<asrwt>0</asrwt>
<pdfrwt beam="2">  1        2 0.22409986E+00 0.29893112E+04</pdfrwt>
<pdfrwt beam="1">  1       -2 0.23594674E+00 0.29893112E+04</pdfrwt>
<totfact> 0.90340541E-01</totfact>
</mgrwt>
</event>
<event>
 4    1  0.2019612E-008  0.2136249E+04  0.7816531E-02  0.8545442E-01
         -2   -1    0    0    0  501 -0.00000000000E+00  0.00000000000E+00  0.44586211801E+03  0.44586211801E+03  0.00000000000E+00 0. -1.
          2   -1    0    0  501    0  0.00000000000E+00 -0.00000000000E+00 -0.25588393305E+04  0.25588393305E+04  0.00000000000E+00 0.  1.
    2000013    1    1    2    0    0 -0.73558712828E+02  0.41198142268E+03 -0.14102248961E+04  0.17511064600E+04  0.95000000000E+03 0.  0.
   -2000013    1    1    2    0    0  0.73558712828E+02 -0.41198142268E+03 -0.70275231641E+03  0.12535949885E+04  0.95000000000E+03 0.  0.
<mgrwt>
<rscale>  0 0.21362486E+04</rscale>
<asrwt>0</asrwt>
<pdfrwt beam="2">  1        2 0.39366759E+00 0.21362486E+04</pdfrwt>
<pdfrwt beam="1">  1       -2 0.68594171E-01 0.21362486E+04</pdfrwt>
<totfact> 0.57453846E+00</totfact>
</mgrwt>
</event>
<event>
 4    1  0.2019612E-008  0.2623004E+04  0.7816531E-02  0.8360429E-01
          2   -1    0    0  501    0  0.00000000000E+00  0.00000000000E+00  0.21744161233E+04  0.21744161233E+04  0.00000000000E+00 0.  1.
         -2   -1    0    0    0  501 -0.00000000000E+00 -0.00000000000E+00 -0.79103422258E+03  0.79103422258E+03  0.00000000000E+00 0. -1.
    2000013    1    1    2    0    0  0.44234527597E+03 -0.77379149870E+03  0.86357599419E+03  0.15629095061E+04  0.95000000000E+03 0.  0.
   -2000013    1    1    2    0    0 -0.44234527597E+03  0.77379149870E+03  0.51980590650E+03  0.14025408397E+04  0.95000000000E+03 0.  0.
<mgrwt>
<rscale>  0 0.26230041E+04</rscale>
<asrwt>0</asrwt>
<pdfrwt beam="1">  1        2 0.33452555E+00 0.26230041E+04</pdfrwt>
<pdfrwt beam="2">  1       -2 0.12169757E+00 0.26230041E+04</pdfrwt>
<totfact> 0.24161438E+00</totfact>
</mgrwt>
</event>
<event>
 4    1  0.2019612E-008  0.3146974E+04  0.7816531E-02  0.8202963E-01
          2   -1    0    0  501    0  0.00000000000E+00  0.00000000000E+00  0.28004774977E+04  0.28004774977E+04  0.00000000000E+00 0.  1.
         -2   -1    0    0    0  501 -0.00000000000E+00 -0.00000000000E+00 -0.88408549161E+03  0.88408549161E+03  0.00000000000E+00 0. -1.
    2000013    1    1    2    0    0  0.25422024559E+03 -0.64616079193E+03 -0.26486170113E+03  0.12061523216E+04  0.95000000000E+03 0.  0.
   -2000013    1    1    2    0    0 -0.25422024559E+03  0.64616079193E+03  0.21812537073E+04  0.24784106677E+04  0.95000000000E+03 0.  0.
<mgrwt>
<rscale>  0 0.31469741E+04</rscale>
<asrwt>0</asrwt>
<pdfrwt beam="1">  1        2 0.43084269E+00 0.31469741E+04</pdfrwt>
<pdfrwt beam="2">  1       -2 0.13601315E+00 0.31469741E+04</pdfrwt>
<totfact> 0.75606186E-01</totfact>
</mgrwt>
</event>
<event>
 4    1  0.2019612E-008  0.3405618E+04  0.7816531E-02  0.8136529E-01
         -2   -1    0    0    0  501 -0.00000000000E+00  0.00000000000E+00  0.10013652440E+04  0.10013652440E+04  0.00000000000E+00 0. -1.
          2   -1    0    0  501    0  0.00000000000E+00 -0.00000000000E+00 -0.28956059523E+04  0.28956059523E+04  0.00000000000E+00 0.  1.
    2000013    1    1    2    0    0  0.73559994569E+03  0.66000292447E+03 -0.21029807307E+04  0.25103264915E+04  0.95000000000E+03 0.  0.
   -2000013    1    1    2    0    0 -0.73559994569E+03 -0.66000292447E+03  0.20874002240E+03  0.13866447048E+04  0.95000000000E+03 0.  0.
<mgrwt>
<rscale>  0 0.34056184E+04</rscale>
<asrwt>0</asrwt>
<pdfrwt beam="2">  1        2 0.44547783E+00 0.34056184E+04</pdfrwt>
<pdfrwt beam="1">  1       -2 0.15405619E+00 0.34056184E+04</pdfrwt>
<totfact> 0.46687201E-01</totfact>
</mgrwt>
</event>
<event>
 4    1  0.2019612E-008  0.2271290E+04  0.7816531E-02  0.8489328E-01
         -2   -1    0    0    0  501 -0.00000000000E+00  0.00000000000E+00  0.55078329518E+03  0.55078329518E+03  0.00000000000E+00 0. -1.
          2   -1    0    0  501    0  0.00000000000E+00 -0.00000000000E+00 -0.23415543937E+04  0.23415543937E+04  0.00000000000E+00 0.  1.
    2000013    1    1    2    0    0  0.55253228228E+03 -0.11853940071E+03 -0.56369192566E+03  0.12408030059E+04  0.95000000000E+03 0.  0.
   -2000013    1    1    2    0    0 -0.55253228228E+03  0.11853940071E+03 -0.12270791728E+04  0.16515346829E+04  0.95000000000E+03 0.  0.
<mgrwt>
<rscale>  0 0.22712895E+04</rscale>
<asrwt>0</asrwt>
<pdfrwt beam="2">  1        2 0.36023913E+00 0.22712895E+04</pdfrwt>
<pdfrwt beam="1">  1       -2 0.84735892E-01 0.22712895E+04</pdfrwt>
<totfact> 0.47340513E+00</totfact>
</mgrwt>
</event>
<event>
 4    1  0.2019612E-008  0.2311474E+04  0.7816531E-02  0.8473411E-01
          2   -1    0    0  501    0  0.00000000000E+00  0.00000000000E+00  0.19938033024E+04  0.19938033024E+04  0.00000000000E+00 0.  1.
         -2   -1    0    0    0  501 -0.00000000000E+00 -0.00000000000E+00 -0.66993943482E+03  0.66993943482E+03  0.00000000000E+00 0. -1.
    2000013    1    1    2    0    0 -0.54134524567E+03  0.37163850429E+03  0.71420576420E+03  0.13578511430E+04  0.95000000000E+03 0.  0.
   -2000013    1    1    2    0    0  0.54134524567E+03 -0.37163850429E+03  0.60965810337E+03  0.13058915942E+04  0.95000000000E+03 0.  0.
<mgrwt>
<rscale>  0 0.23114735E+04</rscale>
<asrwt>0</asrwt>
<pdfrwt beam="1">  1        2 0.30673897E+00 0.23114735E+04</pdfrwt>
<pdfrwt beam="2">  1       -2 0.10306761E+00 0.23114735E+04</pdfrwt>
<totfact> 0.46879116E+00</totfact>
</mgrwt>
</event>
<event>
 4    1  0.2019612E-008  0.2948158E+04  0.7816531E-02  0.8258691E-01
         -2   -1    0    0    0  501 -0.00000000000E+00  0.00000000000E+00  0.11309388820E+04  0.11309388820E+04  0.00000000000E+00 0. -1.
          2   -1    0    0  501    0  0.00000000000E+00 -0.00000000000E+00 -0.19213323579E+04  0.19213323579E+04  0.00000000000E+00 0.  1.
    2000013    1    1    2    0    0 -0.69563351183E+03 -0.23625444091E+03  0.48979272460E+03  0.12969653259E+04  0.95000000000E+03 0.  0.
   -2000013    1    1    2    0    0  0.69563351183E+03  0.23625444091E+03 -0.12801862005E+04  0.17553059140E+04  0.95000000000E+03 0.  0.
<mgrwt>
<rscale>  0 0.29481584E+04</rscale>
<asrwt>0</asrwt>
<pdfrwt beam="2">  1        2 0.29558959E+00 0.29481584E+04</pdfrwt>
<pdfrwt beam="1">  1       -2 0.17399060E+00 0.29481584E+04</pdfrwt>
<totfact> 0.12687857E+00</totfact>
</mgrwt>
</event>
<event>
 4    1  0.2019612E-008  0.1947326E+04  0.7816531E-02  0.8631651E-01
         -2   -1    0    0    0  501 -0.00000000000E+00  0.00000000000E+00  0.44110925564E+03  0.44110925564E+03  0.00000000000E+00 0. -1.
          2   -1    0    0  501    0  0.00000000000E+00 -0.00000000000E+00 -0.21491716683E+04  0.21491716683E+04  0.00000000000E+00 0.  1.
    2000013    1    1    2    0    0 -0.14406050723E+03 -0.14732027659E+03 -0.78041574234E+03  0.12465975391E+04  0.95000000000E+03 0.  0.
   -2000013    1    1    2    0    0  0.14406050723E+03  0.14732027659E+03 -0.92764667028E+03  0.13436833848E+04  0.95000000000E+03 0.  0.
<mgrwt>
<rscale>  0 0.19473259E+04</rscale>
<asrwt>0</asrwt>
<pdfrwt beam="2">  1        2 0.33064180E+00 0.19473259E+04</pdfrwt>
<pdfrwt beam="1">  1       -2 0.67862961E-01 0.19473259E+04</pdfrwt>
<totfact> 0.10233846E+01</totfact>
</mgrwt>
</event>
<event>
 4    1  0.2019612E-008  0.3019209E+04  0.7816531E-02  0.8238267E-01
         -2   -1    0    0    0  501 -0.00000000000E+00  0.00000000000E+00  0.82086665712E+03  0.82086665712E+03  0.00000000000E+00 0. -1.
          2   -1    0    0  501    0  0.00000000000E+00 -0.00000000000E+00 -0.27762198985E+04  0.27762198985E+04  0.00000000000E+00 0.  1.
    2000013    1    1    2    0    0  0.11926264716E+03  0.11625248191E+04 -0.11010243079E+04  0.18655942915E+04  0.95000000000E+03 0.  0.
   -2000013    1    1    2    0    0 -0.11926264716E+03 -0.11625248191E+04 -0.85432893347E+03  0.17314922641E+04  0.95000000000E+03 0.  0.
<mgrwt>
<rscale>  0 0.30192094E+04</rscale>
<asrwt>0</asrwt>
<pdfrwt beam="2">  1        2 0.42711075E+00 0.30192094E+04</pdfrwt>
<pdfrwt beam="1">  1       -2 0.12628718E+00 0.30192094E+04</pdfrwt>
<totfact> 0.95417819E-01</totfact>
</mgrwt>
</event>
<event>
 4    1  0.2019612E-008  0.2458310E+04  0.7816531E-02  0.8417990E-01
          2   -1    0    0  501    0  0.00000000000E+00  0.00000000000E+00  0.21131768877E+04  0.21131768877E+04  0.00000000000E+00 0.  1.
         -2   -1    0    0    0  501 -0.00000000000E+00 -0.00000000000E+00 -0.71495271547E+03  0.71495271547E+03  0.00000000000E+00 0. -1.
    2000013    1    1    2    0    0 -0.64888425793E+03 -0.24468984733E+03  0.28848892794E+03  0.12110531628E+04  0.95000000000E+03 0.  0.
   -2000013    1    1    2    0    0  0.64888425793E+03  0.24468984733E+03  0.11097352443E+04  0.16170764404E+04  0.95000000000E+03 0.  0.
<mgrwt>
<rscale>  0 0.24583096E+04</rscale>
<asrwt>0</asrwt>
<pdfrwt beam="1">  1        2 0.32510413E+00 0.24583096E+04</pdfrwt>
<pdfrwt beam="2">  1       -2 0.10999273E+00 0.24583096E+04</pdfrwt>
<totfact> 0.33970798E+00</totfact>
</mgrwt>
</event>
<event>
 4    1  0.2019612E-008  0.2837129E+04  0.7816531E-02  0.8291833E-01
          1   -1    0    0  501    0  0.00000000000E+00  0.00000000000E+00  0.19454608591E+04  0.19454608591E+04  0.00000000000E+00 0.  1.
         -1   -1    0    0    0  501 -0.00000000000E+00 -0.00000000000E+00 -0.10343695559E+04  0.10343695559E+04  0.00000000000E+00 0. -1.
    2000013    1    1    2    0    0  0.68190555938E+03 -0.62179098198E+03 -0.78152660650E+02  0.13267354882E+04  0.95000000000E+03 0.  0.
   -2000013    1    1    2    0    0 -0.68190555938E+03  0.62179098198E+03  0.98924396386E+03  0.16530949269E+04  0.95000000000E+03 0.  0.
<mgrwt>
<rscale>  0 0.28371292E+04</rscale>
<asrwt>0</asrwt>
<pdfrwt beam="1">  1        1 0.29930167E+00 0.28371292E+04</pdfrwt>
<pdfrwt beam="2">  1       -1 0.15913378E+00 0.28371292E+04</pdfrwt>
<totfact> 0.83087196E-01</totfact>
</mgrwt>
</event>
<event>
 4    1  0.2019612E-008  0.2248274E+04  0.7816531E-02  0.8498600E-01
          2   -1    0    0  501    0  0.00000000000E+00  0.00000000000E+00  0.33957548069E+04  0.33957548069E+04  0.00000000000E+00 0.  1.
         -2   -1    0    0    0  501 -0.00000000000E+00 -0.00000000000E+00 -0.37213634861E+03  0.37213634861E+03  0.00000000000E+00 0. -1.
    2000013    1    1    2    0    0  0.45488368974E+03  0.36374851326E+03  0.17601126230E+04  0.20832015260E+04  0.95000000000E+03 0.  0.
   -2000013    1    1    2    0    0 -0.45488368974E+03 -0.36374851326E+03  0.12635058353E+04  0.16846896295E+04  0.95000000000E+03 0.  0.
<mgrwt>
<rscale>  0 0.22482738E+04</rscale>
<asrwt>0</asrwt>
<pdfrwt beam="1">  1        2 0.52242380E+00 0.22482738E+04</pdfrwt>
<pdfrwt beam="2">  1       -2 0.57251748E-01 0.22482738E+04</pdfrwt>
<totfact> 0.25045932E+00</totfact>
</mgrwt>
</event>
<event>
 4    1  0.2019612E-008  0.2286884E+04  0.7816531E-02  0.8483111E-01
          2   -1    0    0  501    0  0.00000000000E+00  0.00000000000E+00  0.14721232601E+04  0.14721232601E+04  0.00000000000E+00 0.  1.
         -2   -1    0    0    0  501 -0.00000000000E+00 -0.00000000000E+00 -0.88814530491E+03  0.88814530491E+03  0.00000000000E+00 0. -1.
    2000013    1    1    2    0    0  0.11119721326E+03  0.62652196635E+03  0.28368292602E+03  0.11780791981E+04  0.95000000000E+03 0.  0.
   -2000013    1    1    2    0    0 -0.11119721326E+03 -0.62652196635E+03  0.30029502914E+03  0.11821893668E+04  0.95000000000E+03 0.  0.
<mgrwt>
<rscale>  0 0.22868838E+04</rscale>
<asrwt>0</asrwt>
<pdfrwt beam="1">  1        2 0.22648050E+00 0.22868838E+04</pdfrwt>
<pdfrwt beam="2">  1       -2 0.13663774E+00 0.22868838E+04</pdfrwt>
<totfact> 0.45707482E+00</totfact>
</mgrwt>
</event>
<event>
 4    1  0.2019612E-008  0.2459965E+04  0.7816531E-02  0.8417388E-01
         -2   -1    0    0    0  501 -0.00000000000E+00  0.00000000000E+00  0.51043496802E+03  0.51043496802E+03  0.00000000000E+00 0. -1.
          2   -1    0    0  501    0  0.00000000000E+00 -0.00000000000E+00 -0.29638594663E+04  0.29638594663E+04  0.00000000000E+00 0.  1.
    2000013    1    1    2    0    0 -0.24213783267E+03 -0.67459621170E+03 -0.16657796576E+04  0.20472011740E+04  0.95000000000E+03 0.  0.
   -2000013    1    1    2    0    0  0.24213783267E+03  0.67459621170E+03 -0.78764484070E+03  0.14270932604E+04  0.95000000000E+03 0.  0.
<mgrwt>
<rscale>  0 0.24599655E+04</rscale>
<asrwt>0</asrwt>
<pdfrwt beam="2">  1        2 0.45597838E+00 0.24599655E+04</pdfrwt>
<pdfrwt beam="1">  1       -2 0.78528457E-01 0.24599655E+04</pdfrwt>
<totfact> 0.23658093E+00</totfact>
</mgrwt>
</event>
<event>
 4    1  0.2019612E-008  0.2478957E+04  0.7816531E-02  0.8410521E-01
          2   -1    0    0  501    0  0.00000000000E+00  0.00000000000E+00  0.28658107084E+04  0.28658107084E+04  0.00000000000E+00 0.  1.
         -2   -1    0    0    0  501 -0.00000000000E+00 -0.00000000000E+00 -0.53608089676E+03  0.53608089676E+03  0.00000000000E+00 0. -1.
    2000013    1    1    2    0    0 -0.77609441659E+03 -0.98032842104E+02  0.13678245237E+04  0.18399393765E+04  0.95000000000E+03 0.  0.
   -2000013    1    1    2    0    0  0.77609441659E+03  0.98032842104E+02  0.96190528792E+03  0.15619522286E+04  0.95000000000E+03 0.  0.
<mgrwt>
<rscale>  0 0.24789565E+04</rscale>
<asrwt>0</asrwt>
<pdfrwt beam="1">  1        2 0.44089395E+00 0.24789565E+04</pdfrwt>
<pdfrwt beam="2">  1       -2 0.82473986E-01 0.24789565E+04</pdfrwt>
<totfact> 0.24310711E+00</totfact>
</mgrwt>
</event>
<event>
 4    1  0.2019612E-008  0.2348871E+04  0.7816531E-02  0.8458898E-01
          2   -1    0    0  501    0  0.00000000000E+00  0.00000000000E+00  0.22047820189E+04  0.22047820189E+04  0.00000000000E+00 0.  1.
         -2   -1    0    0    0  501 -0.00000000000E+00 -0.00000000000E+00 -0.62559397786E+03  0.62559397786E+03  0.00000000000E+00 0. -1.
    2000013    1    1    2    0    0 -0.64350716836E+02 -0.17270711420E+03  0.15914628746E+04  0.18625849896E+04  0.95000000000E+03 0.  0.
   -2000013    1    1    2    0    0  0.64350716836E+02  0.17270711420E+03 -0.12274833589E+02  0.96779100719E+03  0.95000000000E+03 0.  0.
<mgrwt>
<rscale>  0 0.23488707E+04</rscale>
<asrwt>0</asrwt>
<pdfrwt beam="1">  1        2 0.33919723E+00 0.23488707E+04</pdfrwt>
<pdfrwt beam="2">  1       -2 0.96245228E-01 0.23488707E+04</pdfrwt>
<totfact> 0.41887062E+00</totfact>
</mgrwt>
</event>
<event>
 4    1  0.2019612E-008  0.3132565E+04  0.7816531E-02  0.8206857E-01
         -2   -1    0    0    0  501 -0.00000000000E+00  0.00000000000E+00  0.20927300337E+04  0.20927300337E+04  0.00000000000E+00 0. -1.
          2   -1    0    0  501    0  0.00000000000E+00 -0.00000000000E+00 -0.11722684309E+04  0.11722684309E+04  0.00000000000E+00 0.  1.
    2000013    1    1    2    0    0 -0.83700821585E+03  0.92054772713E+03  0.40556858703E+03  0.16170889741E+04  0.95000000000E+03 0.  0.
   -2000013    1    1    2    0    0  0.83700821585E+03 -0.92054772713E+03  0.51489301575E+03  0.16479094905E+04  0.95000000000E+03 0.  0.
<mgrwt>
<rscale>  0 0.31325653E+04</rscale>
<asrwt>0</asrwt>
<pdfrwt beam="2">  1        2 0.18034899E+00 0.31325653E+04</pdfrwt>
<pdfrwt beam="1">  1       -2 0.32195847E+00 0.31325653E+04</pdfrwt>
<totfact> 0.38799215E-01</totfact>
</mgrwt>
</event>
<event>
 4    1  0.2019612E-008  0.2176976E+04  0.7816531E-02  0.8528073E-01
          2   -1    0    0  501    0  0.00000000000E+00  0.00000000000E+00  0.24060158040E+04  0.24060158040E+04  0.00000000000E+00 0.  1.
         -2   -1    0    0    0  501 -0.00000000000E+00 -0.00000000000E+00 -0.49243470833E+03  0.49243470833E+03  0.00000000000E+00 0. -1.
    2000013    1    1    2    0    0 -0.38141583128E+02 -0.52798453642E+03  0.89602156850E+03  0.14091050714E+04  0.95000000000E+03 0.  0.
   -2000013    1    1    2    0    0  0.38141583128E+02  0.52798453642E+03  0.10175595272E+04  0.14893454409E+04  0.95000000000E+03 0.  0.
<mgrwt>
<rscale>  0 0.21769756E+04</rscale>
<asrwt>0</asrwt>
<pdfrwt beam="1">  1        2 0.37015627E+00 0.21769756E+04</pdfrwt>
<pdfrwt beam="2">  1       -2 0.75759188E-01 0.21769756E+04</pdfrwt>
<totfact> 0.56399150E+00</totfact>
</mgrwt>
</event>
<event>
 4    1  0.2019612E-008  0.2126480E+04  0.7816531E-02  0.8549667E-01
         -2   -1    0    0    0  501 -0.00000000000E+00  0.00000000000E+00  0.59655546821E+03  0.59655546821E+03  0.00000000000E+00 0. -1.
          2   -1    0    0  501    0  0.00000000000E+00 -0.00000000000E+00 -0.18950118208E+04  0.18950118208E+04  0.00000000000E+00 0.  1.
    2000013    1    1    2    0    0 -0.82265017551E+02 -0.36168839134E+03 -0.29695450817E+03  0.10621996072E+04  0.95000000000E+03 0.  0.
   -2000013    1    1    2    0    0  0.82265017551E+02  0.36168839134E+03 -0.10015018445E+04  0.14293676819E+04  0.95000000000E+03 0.  0.
<mgrwt>
<rscale>  0 0.21264803E+04</rscale>
<asrwt>0</asrwt>
<pdfrwt beam="2">  1        2 0.29154027E+00 0.21264803E+04</pdfrwt>
<pdfrwt beam="1">  1       -2 0.91777767E-01 0.21264803E+04</pdfrwt>
<totfact> 0.70973577E+00</totfact>
</mgrwt>
</event>
<event>
 4    1  0.2019612E-008  0.2781012E+04  0.7816531E-02  0.8309188E-01
         -2   -1    0    0    0  501 -0.00000000000E+00  0.00000000000E+00  0.69335941531E+03  0.69335941531E+03  0.00000000000E+00 0. -1.
          2   -1    0    0  501    0  0.00000000000E+00 -0.00000000000E+00 -0.27886066073E+04  0.27886066073E+04  0.00000000000E+00 0.  1.
    2000013    1    1    2    0    0  0.28204962772E+03 -0.94332101537E+03 -0.13583745456E+04  0.19279750871E+04  0.95000000000E+03 0.  0.
   -2000013    1    1    2    0    0 -0.28204962772E+03  0.94332101537E+03 -0.73687264640E+03  0.15539909355E+04  0.95000000000E+03 0.  0.
<mgrwt>
<rscale>  0 0.27810118E+04</rscale>
<asrwt>0</asrwt>
<pdfrwt beam="2">  1        2 0.42901639E+00 0.27810118E+04</pdfrwt>
<pdfrwt beam="1">  1       -2 0.10667068E+00 0.27810118E+04</pdfrwt>
<totfact> 0.14484732E+00</totfact>
</mgrwt>
</event>
<event>
 4    1  0.2019612E-008  0.3820143E+04  0.7816531E-02  0.8041846E-01
          2   -1    0    0  501    0  0.00000000000E+00  0.00000000000E+00  0.39335457272E+04  0.39335457272E+04  0.00000000000E+00 0.  1.
         -2   -1    0    0    0  501 -0.00000000000E+00 -0.00000000000E+00 -0.92750258361E+03  0.92750258361E+03  0.00000000000E+00 0. -1.
    2000013    1    1    2    0    0 -0.13350432154E+04 -0.71686519636E+03  0.23562820857E+04  0.29581753437E+04  0.95000000000E+03 0.  0.
   -2000013    1    1    2    0    0  0.13350432154E+04  0.71686519636E+03  0.64976105790E+03  0.19028729671E+04  0.95000000000E+03 0.  0.
<mgrwt>
<rscale>  0 0.38201434E+04</rscale>
<asrwt>0</asrwt>
<pdfrwt beam="1">  1        2 0.60516087E+00 0.38201434E+04</pdfrwt>
<pdfrwt beam="2">  1       -2 0.14269271E+00 0.38201434E+04</pdfrwt>
<totfact> 0.10547558E-01</totfact>
</mgrwt>
</event>
<event>
 4    1  0.2019612E-008  0.2420710E+04  0.7816531E-02  0.8431791E-01
         -2   -1    0    0    0  501 -0.00000000000E+00  0.00000000000E+00  0.14794473738E+04  0.14794473738E+04  0.00000000000E+00 0. -1.
          2   -1    0    0  501    0  0.00000000000E+00 -0.00000000000E+00 -0.99020665122E+03  0.99020665122E+03  0.00000000000E+00 0.  1.
    2000013    1    1    2    0    0  0.12554186363E+03  0.42674630293E+03 -0.37139723143E+03  0.11127933636E+04  0.95000000000E+03 0.  0.
   -2000013    1    1    2    0    0 -0.12554186363E+03 -0.42674630293E+03  0.86063795400E+03  0.13568606614E+04  0.95000000000E+03 0.  0.
<mgrwt>
<rscale>  0 0.24207095E+04</rscale>
<asrwt>0</asrwt>
<pdfrwt beam="2">  1        2 0.15233948E+00 0.24207095E+04</pdfrwt>
<pdfrwt beam="1">  1       -2 0.22760729E+00 0.24207095E+04</pdfrwt>
<totfact> 0.20301505E+00</totfact>
</mgrwt>
</event>
<event>
 4    1  0.2019612E-008  0.2770856E+04  0.7816531E-02  0.8312374E-01
          2   -1    0    0  501    0  0.00000000000E+00  0.00000000000E+00  0.26301160563E+04  0.26301160563E+04  0.00000000000E+00 0.  1.
         -2   -1    0    0    0  501 -0.00000000000E+00 -0.00000000000E+00 -0.72978179157E+03  0.72978179157E+03  0.00000000000E+00 0. -1.
    2000013    1    1    2    0    0 -0.67222285886E+03 -0.50284778888E+03  0.16276660755E+04  0.20631374952E+04  0.95000000000E+03 0.  0.
   -2000013    1    1    2    0    0  0.67222285886E+03  0.50284778888E+03  0.27266818919E+03  0.12967603526E+04  0.95000000000E+03 0.  0.
<mgrwt>
<rscale>  0 0.27708560E+04</rscale>
<asrwt>0</asrwt>
<pdfrwt beam="1">  1        2 0.40463323E+00 0.27708560E+04</pdfrwt>
<pdfrwt beam="2">  1       -2 0.11227412E+00 0.27708560E+04</pdfrwt>
<totfact> 0.15925643E+00</totfact>
</mgrwt>
</event>
<event>
 4    1  0.2019612E-008  0.2327577E+04  0.7816531E-02  0.8467127E-01
         -2   -1    0    0    0  501 -0.00000000000E+00  0.00000000000E+00  0.22741754109E+04  0.22741754109E+04  0.00000000000E+00 0. -1.
          2   -1    0    0  501    0  0.00000000000E+00 -0.00000000000E+00 -0.59555804087E+03  0.59555804087E+03  0.00000000000E+00 0.  1.
    2000013    1    1    2    0    0 -0.39293891731E+03 -0.29551574686E+03  0.14045395903E+04  0.17654920023E+04  0.95000000000E+03 0.  0.
   -2000013    1    1    2    0    0  0.39293891731E+03  0.29551574686E+03  0.27407777969E+03  0.11042414495E+04  0.95000000000E+03 0.  0.
<mgrwt>
<rscale>  0 0.23275768E+04</rscale>
<asrwt>0</asrwt>
<pdfrwt beam="2">  1        2 0.91624315E-01 0.23275768E+04</pdfrwt>
<pdfrwt beam="1">  1       -2 0.34987314E+00 0.23275768E+04</pdfrwt>
<totfact> 0.70628750E-01</totfact>
</mgrwt>
</event>
<event>
 4    1  0.2019612E-008  0.2575553E+04  0.7816531E-02  0.8376553E-01
          2   -1    0    0  501    0  0.00000000000E+00  0.00000000000E+00  0.14478806781E+04  0.14478806781E+04  0.00000000000E+00 0. -1.
         -2   -1    0    0    0  501 -0.00000000000E+00 -0.00000000000E+00 -0.11453760322E+04  0.11453760322E+04  0.00000000000E+00 0.  1.
    2000013    1    1    2    0    0  0.66396720622E+03 -0.29261779946E+03 -0.33098687885E+03  0.12403749197E+04  0.95000000000E+03 0.  0.
   -2000013    1    1    2    0    0 -0.66396720622E+03  0.29261779946E+03  0.63349152470E+03  0.13528817906E+04  0.95000000000E+03 0.  0.
<mgrwt>
<rscale>  0 0.25755526E+04</rscale>
<asrwt>0</asrwt>
<pdfrwt beam="1">  1        2 0.22275087E+00 0.25755526E+04</pdfrwt>
<pdfrwt beam="2">  1       -2 0.17621170E+00 0.25755526E+04</pdfrwt>
<totfact> 0.23207507E+00</totfact>
</mgrwt>
</event>
<event>
 4    1  0.2019612E-008  0.2118288E+04  0.7816531E-02  0.8553230E-01
         -1   -1    0    0    0  501 -0.00000000000E+00  0.00000000000E+00  0.79501874044E+03  0.79501874044E+03  0.00000000000E+00 0. -1.
          1   -1    0    0  501    0  0.00000000000E+00 -0.00000000000E+00 -0.14110181469E+04  0.14110181469E+04  0.00000000000E+00 0.  1.
    2000013    1    1    2    0    0  0.29747936218E+03  0.14077506784E+03 -0.65492738829E+03  0.11998922762E+04  0.95000000000E+03 0.  0.
   -2000013    1    1    2    0    0 -0.29747936218E+03 -0.14077506784E+03  0.38927981842E+02  0.10061446111E+04  0.95000000000E+03 0.  0.
<mgrwt>
<rscale>  0 0.21182879E+04</rscale>
<asrwt>0</asrwt>
<pdfrwt beam="2">  1        1 0.21707971E+00 0.21182879E+04</pdfrwt>
<pdfrwt beam="1">  1       -1 0.12231058E+00 0.21182879E+04</pdfrwt>
<totfact> 0.40934360E+00</totfact>
</mgrwt>
</event>
<event>
 4    1  0.2019612E-008  0.2064633E+04  0.7816531E-02  0.8576985E-01
         -2   -1    0    0    0  501 -0.00000000000E+00  0.00000000000E+00  0.56300292404E+03  0.56300292404E+03  0.00000000000E+00 0. -1.
          2   -1    0    0  501    0  0.00000000000E+00 -0.00000000000E+00 -0.18928445873E+04  0.18928445873E+04  0.00000000000E+00 0.  1.
    2000013    1    1    2    0    0 -0.35441098015E+03  0.19367448119E+03 -0.65570022703E+03  0.12229307974E+04  0.95000000000E+03 0.  0.
   -2000013    1    1    2    0    0  0.35441098015E+03 -0.19367448119E+03 -0.67414143627E+03  0.12329167140E+04  0.95000000000E+03 0.  0.
<mgrwt>
<rscale>  0 0.20646327E+04</rscale>
<asrwt>0</asrwt>
<pdfrwt beam="2">  1        2 0.29120686E+00 0.20646327E+04</pdfrwt>
<pdfrwt beam="1">  1       -2 0.86615835E-01 0.20646327E+04</pdfrwt>
<totfact> 0.81737628E+00</totfact>
</mgrwt>
</event>
<event>
 4    1  0.2019612E-008  0.2410927E+04  0.7816531E-02  0.8435424E-01
          4   -1    0    0  501    0  0.00000000000E+00  0.00000000000E+00  0.93297761066E+03  0.93297761066E+03  0.00000000000E+00 0.  1.
         -4   -1    0    0    0  501 -0.00000000000E+00 -0.00000000000E+00 -0.15575316373E+04  0.15575316373E+04  0.00000000000E+00 0. -1.
    2000013    1    1    2    0    0 -0.42097045219E+03 -0.53488299431E+03 -0.70124371347E+01  0.11687023203E+04  0.95000000000E+03 0.  0.
   -2000013    1    1    2    0    0  0.42097045219E+03  0.53488299431E+03 -0.61754158950E+03  0.13218069277E+04  0.95000000000E+03 0.  0.
<mgrwt>
<rscale>  0 0.24109269E+04</rscale>
<asrwt>0</asrwt>
<pdfrwt beam="1">  1        4 0.14353502E+00 0.24109269E+04</pdfrwt>
<pdfrwt beam="2">  1       -4 0.23962025E+00 0.24109269E+04</pdfrwt>
<totfact> 0.44010755E-02</totfact>
</mgrwt>
</event>
<event>
 4    1  0.2019612E-008  0.2724418E+04  0.7816531E-02  0.8327125E-01
         -2   -1    0    0    0  501 -0.00000000000E+00  0.00000000000E+00  0.59170578336E+03  0.59170578336E+03  0.00000000000E+00 0. -1.
          2   -1    0    0  501    0  0.00000000000E+00 -0.00000000000E+00 -0.31360408917E+04  0.31360408917E+04  0.00000000000E+00 0.  1.
    2000013    1    1    2    0    0  0.70835376678E+02 -0.86511220423E+03 -0.18835829728E+04  0.22811886357E+04  0.95000000000E+03 0.  0.
   -2000013    1    1    2    0    0 -0.70835376678E+02  0.86511220423E+03 -0.66075213559E+03  0.14465580393E+04  0.95000000000E+03 0.  0.
<mgrwt>
<rscale>  0 0.27244181E+04</rscale>
<asrwt>0</asrwt>
<pdfrwt beam="2">  1        2 0.48246783E+00 0.27244181E+04</pdfrwt>
<pdfrwt beam="1">  1       -2 0.91031660E-01 0.27244181E+04</pdfrwt>
<totfact> 0.12854923E+00</totfact>
</mgrwt>
</event>
<event>
 4    1  0.2019612E-008  0.2798795E+04  0.7816531E-02  0.8303642E-01
         -2   -1    0    0    0  501 -0.00000000000E+00  0.00000000000E+00  0.21407291291E+04  0.21407291291E+04  0.00000000000E+00 0. -1.
          2   -1    0    0  501    0  0.00000000000E+00 -0.00000000000E+00 -0.91478817995E+03  0.91478817995E+03  0.00000000000E+00 0.  1.
    2000013    1    1    2    0    0  0.10019705174E+04 -0.22026133727E+03  0.67619384334E+03  0.15531252648E+04  0.95000000000E+03 0.  0.
   -2000013    1    1    2    0    0 -0.10019705174E+04  0.22026133727E+03  0.54974710582E+03  0.15023920443E+04  0.95000000000E+03 0.  0.
<mgrwt>
<rscale>  0 0.27987952E+04</rscale>
<asrwt>0</asrwt>
<pdfrwt beam="2">  1        2 0.14073664E+00 0.27987952E+04</pdfrwt>
<pdfrwt beam="1">  1       -2 0.32934294E+00 0.27987952E+04</pdfrwt>
<totfact> 0.52254990E-01</totfact>
</mgrwt>
</event>
<event>
 4    1  0.2019612E-008  0.3146305E+04  0.7816531E-02  0.8203143E-01
          2   -1    0    0  501    0  0.00000000000E+00  0.00000000000E+00  0.22242990907E+04  0.22242990907E+04  0.00000000000E+00 0.  1.
         -2   -1    0    0    0  501 -0.00000000000E+00 -0.00000000000E+00 -0.11126244192E+04  0.11126244192E+04  0.00000000000E+00 0. -1.
    2000013    1    1    2    0    0  0.14477303841E+03  0.10934387695E+04  0.11884135905E+04  0.18792004783E+04  0.95000000000E+03 0.  0.
   -2000013    1    1    2    0    0 -0.14477303841E+03 -0.10934387695E+04 -0.76738919097E+02  0.14577230317E+04  0.95000000000E+03 0.  0.
<mgrwt>
<rscale>  0 0.31463054E+04</rscale>
<asrwt>0</asrwt>
<pdfrwt beam="1">  1        2 0.34219986E+00 0.31463054E+04</pdfrwt>
<pdfrwt beam="2">  1       -2 0.17117299E+00 0.31463054E+04</pdfrwt>
<totfact> 0.88481215E-01</totfact>
</mgrwt>
</event>
<event>
 4    1  0.2019612E-008  0.2304384E+04  0.7816531E-02  0.8476195E-01
         -2   -1    0    0    0  501 -0.00000000000E+00  0.00000000000E+00  0.10674083769E+04  0.10674083769E+04  0.00000000000E+00 0. -1.
          2   -1    0    0  501    0  0.00000000000E+00 -0.00000000000E+00 -0.12437096397E+04  0.12437096397E+04  0.00000000000E+00 0.  1.
    2000013    1    1    2    0    0 -0.48141144319E+03  0.42380225242E+03  0.29155969934E+02  0.11466103948E+04  0.95000000000E+03 0.  0.
   -2000013    1    1    2    0    0  0.48141144319E+03 -0.42380225242E+03 -0.20545723273E+03  0.11645076218E+04  0.95000000000E+03 0.  0.
<mgrwt>
<rscale>  0 0.23043837E+04</rscale>
<asrwt>0</asrwt>
<pdfrwt beam="2">  1        2 0.19133994E+00 0.23043837E+04</pdfrwt>
<pdfrwt beam="1">  1       -2 0.16421667E+00 0.23043837E+04</pdfrwt>
<totfact> 0.37928286E+00</totfact>
</mgrwt>
</event>
<event>
 4    1  0.2019612E-008  0.2258063E+04  0.7816531E-02  0.8494642E-01
          2   -1    0    0  501    0  0.00000000000E+00  0.00000000000E+00  0.14889061507E+04  0.14889061507E+04  0.00000000000E+00 0.  1.
         -2   -1    0    0    0  501 -0.00000000000E+00 -0.00000000000E+00 -0.85613997810E+03  0.85613997810E+03  0.00000000000E+00 0. -1.
    2000013    1    1    2    0    0 -0.48239766001E+03  0.28024792922E+03  0.57280671235E+03  0.12417141112E+04  0.95000000000E+03 0.  0.
   -2000013    1    1    2    0    0  0.48239766001E+03 -0.28024792922E+03  0.59959460244E+02  0.11033320176E+04  0.95000000000E+03 0.  0.
<mgrwt>
<rscale>  0 0.22580630E+04</rscale>
<asrwt>0</asrwt>
<pdfrwt beam="1">  1        2 0.22906249E+00 0.22580630E+04</pdfrwt>
<pdfrwt beam="2">  1       -2 0.13171384E+00 0.22580630E+04</pdfrwt>
<totfact> 0.49227018E+00</totfact>
</mgrwt>
</event>
<event>
 4    1  0.2019612E-008  0.3872978E+04  0.7816531E-02  0.8030673E-01
         -2   -1    0    0    0  501 -0.00000000000E+00  0.00000000000E+00  0.32625171202E+04  0.32625171202E+04  0.00000000000E+00 0. -1.
          2   -1    0    0  501    0  0.00000000000E+00 -0.00000000000E+00 -0.11494158356E+04  0.11494158356E+04  0.00000000000E+00 0.  1.
    2000013    1    1    2    0    0 -0.22206029086E+03  0.12588336721E+04 -0.19834221773E+03  0.16049338373E+04  0.95000000000E+03 0.  0.
   -2000013    1    1    2    0    0  0.22206029086E+03 -0.12588336721E+04  0.23114435023E+04  0.28069991185E+04  0.95000000000E+03 0.  0.
<mgrwt>
<rscale>  0 0.38729776E+04</rscale>
<asrwt>0</asrwt>
<pdfrwt beam="2">  1        2 0.17683321E+00 0.38729776E+04</pdfrwt>
<pdfrwt beam="1">  1       -2 0.50192571E+00 0.38729776E+04</pdfrwt>
<totfact> 0.26005711E-02</totfact>
</mgrwt>
</event>
<event>
 4    1  0.2019612E-008  0.2608814E+04  0.7816531E-02  0.8365213E-01
          2   -1    0    0  501    0  0.00000000000E+00  0.00000000000E+00  0.29077359225E+04  0.29077359225E+04  0.00000000000E+00 0.  1.
         -2   -1    0    0    0  501 -0.00000000000E+00 -0.00000000000E+00 -0.58515548382E+03  0.58515548382E+03  0.00000000000E+00 0. -1.
    2000013    1    1    2    0    0 -0.68691768892E+03 -0.16792222896E+03  0.18933090270E+04  0.22331978994E+04  0.95000000000E+03 0.  0.
   -2000013    1    1    2    0    0  0.68691768892E+03  0.16792222896E+03  0.42927141164E+03  0.12596935068E+04  0.95000000000E+03 0.  0.
<mgrwt>
<rscale>  0 0.26088140E+04</rscale>
<asrwt>0</asrwt>
<pdfrwt beam="1">  1        2 0.44734398E+00 0.26088140E+04</pdfrwt>
<pdfrwt beam="2">  1       -2 0.90023922E-01 0.26088140E+04</pdfrwt>
<totfact> 0.18547924E+00</totfact>
</mgrwt>
</event>
<event>
 4    1  0.2019612E-008  0.2484110E+04  0.7816531E-02  0.8408668E-01
         -2   -1    0    0    0  501 -0.00000000000E+00  0.00000000000E+00  0.53337500728E+03  0.53337500728E+03  0.00000000000E+00 0. -1.
          2   -1    0    0  501    0  0.00000000000E+00 -0.00000000000E+00 -0.28923377263E+04  0.28923377263E+04  0.00000000000E+00 0.  1.
    2000013    1    1    2    0    0  0.33375327803E+03 -0.72023535158E+03 -0.13178712654E+04  0.18081523399E+04  0.95000000000E+03 0.  0.
   -2000013    1    1    2    0    0 -0.33375327803E+03  0.72023535158E+03 -0.10410914536E+04  0.16175603936E+04  0.95000000000E+03 0.  0.
<mgrwt>
<rscale>  0 0.24841100E+04</rscale>
<asrwt>0</asrwt>
<pdfrwt beam="2">  1        2 0.44497504E+00 0.24841100E+04</pdfrwt>
<pdfrwt beam="1">  1       -2 0.82057693E-01 0.24841100E+04</pdfrwt>
<totfact> 0.23676563E+00</totfact>
</mgrwt>
</event>
<event>
 4    1  0.2019612E-008  0.2866904E+04  0.7816531E-02  0.8282793E-01
          2   -1    0    0  501    0  0.00000000000E+00  0.00000000000E+00  0.17580576624E+04  0.17580576624E+04  0.00000000000E+00 0.  1.
         -2   -1    0    0    0  501 -0.00000000000E+00 -0.00000000000E+00 -0.11687808580E+04  0.11687808580E+04  0.00000000000E+00 0. -1.
    2000013    1    1    2    0    0  0.67959501234E+03 -0.74903269750E+03  0.66185919191E+03  0.15373538801E+04  0.95000000000E+03 0.  0.
   -2000013    1    1    2    0    0 -0.67959501234E+03  0.74903269750E+03 -0.72582387472E+02  0.13894846403E+04  0.95000000000E+03 0.  0.
<mgrwt>
<rscale>  0 0.28669037E+04</rscale>
<asrwt>0</asrwt>
<pdfrwt beam="1">  1        2 0.27047041E+00 0.28669037E+04</pdfrwt>
<pdfrwt beam="2">  1       -2 0.17981244E+00 0.28669037E+04</pdfrwt>
<totfact> 0.14331353E+00</totfact>
</mgrwt>
</event>
<event>
 4    1  0.2019612E-008  0.2470798E+04  0.7816531E-02  0.8413463E-01
          2   -1    0    0  501    0  0.00000000000E+00  0.00000000000E+00  0.15897608490E+04  0.15897608490E+04  0.00000000000E+00 0.  1.
         -2   -1    0    0    0  501 -0.00000000000E+00 -0.00000000000E+00 -0.96002511452E+03  0.96002511452E+03  0.00000000000E+00 0. -1.
    2000013    1    1    2    0    0  0.75217862212E+03 -0.25556455917E+02  0.67874547014E+02  0.12138915792E+04  0.95000000000E+03 0.  0.
   -2000013    1    1    2    0    0 -0.75217862212E+03  0.25556455917E+02  0.56186118748E+03  0.13358943843E+04  0.95000000000E+03 0.  0.
<mgrwt>
<rscale>  0 0.24707977E+04</rscale>
<asrwt>0</asrwt>
<pdfrwt beam="1">  1        2 0.24457859E+00 0.24707977E+04</pdfrwt>
<pdfrwt beam="2">  1       -2 0.14769617E+00 0.24707977E+04</pdfrwt>
<totfact> 0.31540828E+00</totfact>
</mgrwt>
</event>
<event>
 4    1  0.2019612E-008  0.2072456E+04  0.7816531E-02  0.8573475E-01
         -2   -1    0    0    0  501 -0.00000000000E+00  0.00000000000E+00  0.34184567899E+03  0.34184567899E+03  0.00000000000E+00 0. -1.
          2   -1    0    0  501    0  0.00000000000E+00 -0.00000000000E+00 -0.31410925552E+04  0.31410925552E+04  0.00000000000E+00 0.  1.
    2000013    1    1    2    0    0 -0.40072033470E+03 -0.10307912237E+03 -0.14133616591E+04  0.17525105625E+04  0.95000000000E+03 0.  0.
   -2000013    1    1    2    0    0  0.40072033470E+03  0.10307912237E+03 -0.13858852171E+04  0.17304276717E+04  0.95000000000E+03 0.  0.
<mgrwt>
<rscale>  0 0.20724564E+04</rscale>
<asrwt>0</asrwt>
<pdfrwt beam="2">  1        2 0.48324502E+00 0.20724564E+04</pdfrwt>
<pdfrwt beam="1">  1       -2 0.52591642E-01 0.20724564E+04</pdfrwt>
<totfact> 0.44734866E+00</totfact>
</mgrwt>
</event>
<event>
 4    1  0.2019612E-008  0.3509002E+04  0.7816531E-02  0.8111660E-01
         -2   -1    0    0    0  501 -0.00000000000E+00  0.00000000000E+00  0.22695289115E+04  0.22695289115E+04  0.00000000000E+00 0.  1.
          2   -1    0    0  501    0  0.00000000000E+00 -0.00000000000E+00 -0.13563491390E+04  0.13563491390E+04  0.00000000000E+00 0. -1.
    2000013    1    1    2    0    0 -0.12997996431E+04 -0.62674407301E+03  0.14065057443E+03  0.17333695017E+04  0.95000000000E+03 0.  0.
   -2000013    1    1    2    0    0  0.12997996431E+04  0.62674407301E+03  0.77252919810E+03  0.18925085488E+04  0.95000000000E+03 0.  0.
<mgrwt>
<rscale>  0 0.35090019E+04</rscale>
<asrwt>0</asrwt>
<pdfrwt beam="2">  1        2 0.20866910E+00 0.35090019E+04</pdfrwt>
<pdfrwt beam="1">  1       -2 0.34915829E+00 0.35090019E+04</pdfrwt>
<totfact> 0.19818870E-01</totfact>
</mgrwt>
</event>
<event>
 4    1  0.2019612E-008  0.3231571E+04  0.7816531E-02  0.8180529E-01
          2   -1    0    0  501    0  0.00000000000E+00  0.00000000000E+00  0.20213039197E+04  0.20213039197E+04  0.00000000000E+00 0.  1.
         -2   -1    0    0    0  501 -0.00000000000E+00 -0.00000000000E+00 -0.12916228262E+04  0.12916228262E+04  0.00000000000E+00 0. -1.
    2000013    1    1    2    0    0  0.10329820268E+04  0.30325943104E+03 -0.39492725594E+03  0.14891224556E+04  0.95000000000E+03 0.  0.
   -2000013    1    1    2    0    0 -0.10329820268E+04 -0.30325943104E+03  0.11246083494E+04  0.18238042904E+04  0.95000000000E+03 0.  0.
<mgrwt>
<rscale>  0 0.32315707E+04</rscale>
<asrwt>0</asrwt>
<pdfrwt beam="1">  1        2 0.31096983E+00 0.32315707E+04</pdfrwt>
<pdfrwt beam="2">  1       -2 0.19871120E+00 0.32315707E+04</pdfrwt>
<totfact> 0.74058032E-01</totfact>
</mgrwt>
</event>
<event>
 4    1  0.2019612E-008  0.2126514E+04  0.7816531E-02  0.8549653E-01
         -2   -1    0    0    0  501 -0.00000000000E+00  0.00000000000E+00  0.52088070140E+03  0.52088070140E+03  0.00000000000E+00 0.  1.
          2   -1    0    0  501    0  0.00000000000E+00 -0.00000000000E+00 -0.21703930874E+04  0.21703930874E+04  0.00000000000E+00 0. -1.
    2000013    1    1    2    0    0  0.31568425725E+03  0.32703291471E+03 -0.63957977588E+03  0.12321401573E+04  0.95000000000E+03 0.  0.
   -2000013    1    1    2    0    0 -0.31568425725E+03 -0.32703291471E+03 -0.10099326101E+04  0.14591336315E+04  0.95000000000E+03 0.  0.
<mgrwt>
<rscale>  0 0.21265144E+04</rscale>
<asrwt>0</asrwt>
<pdfrwt beam="2">  1        2 0.33390663E+00 0.21265144E+04</pdfrwt>
<pdfrwt beam="1">  1       -2 0.80135493E-01 0.21265144E+04</pdfrwt>
<totfact> 0.67937457E+00</totfact>
</mgrwt>
</event>
<event>
 4    1  0.2019612E-008  0.2185860E+04  0.7816531E-02  0.8524337E-01
          2   -1    0    0  501    0  0.00000000000E+00  0.00000000000E+00  0.15523771126E+04  0.15523771126E+04  0.00000000000E+00 0.  1.
         -2   -1    0    0    0  501 -0.00000000000E+00 -0.00000000000E+00 -0.76946263849E+03  0.76946263849E+03  0.00000000000E+00 0. -1.
    2000013    1    1    2    0    0  0.17029271134E+03  0.49477162806E+03  0.24816682581E+03  0.11126029592E+04  0.95000000000E+03 0.  0.
   -2000013    1    1    2    0    0 -0.17029271134E+03 -0.49477162806E+03  0.53474764833E+03  0.12092367919E+04  0.95000000000E+03 0.  0.
<mgrwt>
<rscale>  0 0.21858602E+04</rscale>
<asrwt>0</asrwt>
<pdfrwt beam="1">  1        2 0.23882725E+00 0.21858602E+04</pdfrwt>
<pdfrwt beam="2">  1       -2 0.11837887E+00 0.21858602E+04</pdfrwt>
<totfact> 0.59617281E+00</totfact>
</mgrwt>
</event>
<event>
 4    1  0.2019612E-008  0.2753402E+04  0.7816531E-02  0.8317883E-01
         -1   -1    0    0    0  501 -0.00000000000E+00  0.00000000000E+00  0.11029382381E+04  0.11029382381E+04  0.00000000000E+00 0. -1.
          1   -1    0    0  501    0  0.00000000000E+00 -0.00000000000E+00 -0.17184147404E+04  0.17184147404E+04  0.00000000000E+00 0.  1.
    2000013    1    1    2    0    0 -0.70705472311E+03  0.49087998659E+03 -0.82203706889E+03  0.15228704756E+04  0.95000000000E+03 0.  0.
   -2000013    1    1    2    0    0  0.70705472311E+03 -0.49087998659E+03  0.20656056665E+03  0.12984825029E+04  0.95000000000E+03 0.  0.
<mgrwt>
<rscale>  0 0.27534018E+04</rscale>
<asrwt>0</asrwt>
<pdfrwt beam="2">  1        1 0.26437150E+00 0.27534018E+04</pdfrwt>
<pdfrwt beam="1">  1       -1 0.16968281E+00 0.27534018E+04</pdfrwt>
<totfact> 0.99560710E-01</totfact>
</mgrwt>
</event>
<event>
 4    1  0.2019612E-008  0.3223144E+04  0.7816531E-02  0.8182731E-01
          2   -1    0    0  501    0  0.00000000000E+00  0.00000000000E+00  0.46213023104E+04  0.46213023104E+04  0.00000000000E+00 0.  1.
         -2   -1    0    0    0  501 -0.00000000000E+00 -0.00000000000E+00 -0.56199841972E+03  0.56199841972E+03  0.00000000000E+00 0. -1.
    2000013    1    1    2    0    0  0.70321333599E+03 -0.99857529110E+03  0.27542178419E+04  0.31590944159E+04  0.95000000000E+03 0.  0.
   -2000013    1    1    2    0    0 -0.70321333599E+03  0.99857529110E+03  0.13050860489E+04  0.20242063143E+04  0.95000000000E+03 0.  0.
<mgrwt>
<rscale>  0 0.32231442E+04</rscale>
<asrwt>0</asrwt>
<pdfrwt beam="1">  1        2 0.71096956E+00 0.32231442E+04</pdfrwt>
<pdfrwt beam="2">  1       -2 0.86461299E-01 0.32231442E+04</pdfrwt>
<totfact> 0.90200753E-02</totfact>
</mgrwt>
</event>
<event>
 4    1  0.2019612E-008  0.3402169E+04  0.7816531E-02  0.8137374E-01
         -2   -1    0    0    0  501 -0.00000000000E+00  0.00000000000E+00  0.22364744517E+04  0.22364744517E+04  0.00000000000E+00 0. -1.
          2   -1    0    0  501    0  0.00000000000E+00 -0.00000000000E+00 -0.12938619070E+04  0.12938619070E+04  0.00000000000E+00 0.  1.
    2000013    1    1    2    0    0  0.13408257474E+04 -0.34317982647E+03  0.75662463970E+03  0.18413492128E+04  0.95000000000E+03 0.  0.
   -2000013    1    1    2    0    0 -0.13408257474E+04  0.34317982647E+03  0.18598790499E+03  0.16889871459E+04  0.95000000000E+03 0.  0.
<mgrwt>
<rscale>  0 0.34021694E+04</rscale>
<asrwt>0</asrwt>
<pdfrwt beam="2">  1        2 0.19905568E+00 0.34021694E+04</pdfrwt>
<pdfrwt beam="1">  1       -2 0.34407299E+00 0.34021694E+04</pdfrwt>
<totfact> 0.23397899E-01</totfact>
</mgrwt>
</event>
<event>
 4    1  0.2019612E-008  0.2513925E+04  0.7816531E-02  0.8398041E-01
         -2   -1    0    0    0  501 -0.00000000000E+00  0.00000000000E+00  0.11372937465E+04  0.11372937465E+04  0.00000000000E+00 0. -1.
          2   -1    0    0  501    0  0.00000000000E+00 -0.00000000000E+00 -0.13892235972E+04  0.13892235972E+04  0.00000000000E+00 0.  1.
    2000013    1    1    2    0    0 -0.61055887817E+03  0.55045449638E+03 -0.84857565896E+02  0.12591596812E+04  0.95000000000E+03 0.  0.
   -2000013    1    1    2    0    0  0.61055887817E+03 -0.55045449638E+03 -0.16707228486E+03  0.12673576625E+04  0.95000000000E+03 0.  0.
<mgrwt>
<rscale>  0 0.25139255E+04</rscale>
<asrwt>0</asrwt>
<pdfrwt beam="2">  1        2 0.21372671E+00 0.25139255E+04</pdfrwt>
<pdfrwt beam="1">  1       -2 0.17496827E+00 0.25139255E+04</pdfrwt>
<totfact> 0.25707847E+00</totfact>
</mgrwt>
</event>
<event>
 4    1  0.2019612E-008  0.2097663E+04  0.7816531E-02  0.8562274E-01
         -1   -1    0    0    0  501 -0.00000000000E+00  0.00000000000E+00  0.22680386952E+04  0.22680386952E+04  0.00000000000E+00 0.  1.
          1   -1    0    0  501    0  0.00000000000E+00 -0.00000000000E+00 -0.48502133735E+03  0.48502133735E+03  0.00000000000E+00 0. -1.
    2000013    1    1    2    0    0 -0.22389685762E+03  0.27459582727E+03  0.12437091869E+04  0.16046324230E+04  0.95000000000E+03 0.  0.
   -2000013    1    1    2    0    0  0.22389685762E+03 -0.27459582727E+03  0.53930817091E+03  0.11484276096E+04  0.95000000000E+03 0.  0.
<mgrwt>
<rscale>  0 0.20976627E+04</rscale>
<asrwt>0</asrwt>
<pdfrwt beam="2">  1        1 0.74618669E-01 0.20976627E+04</pdfrwt>
<pdfrwt beam="1">  1       -1 0.34892902E+00 0.20976627E+04</pdfrwt>
<totfact> 0.67232765E-01</totfact>
</mgrwt>
</event>
<event>
 4    1  0.2019612E-008  0.2541024E+04  0.7816531E-02  0.8388515E-01
          2   -1    0    0  501    0  0.00000000000E+00  0.00000000000E+00  0.23062710037E+04  0.23062710037E+04  0.00000000000E+00 0.  1.
         -2   -1    0    0    0  501 -0.00000000000E+00 -0.00000000000E+00 -0.69991782670E+03  0.69991782670E+03  0.00000000000E+00 0. -1.
    2000013    1    1    2    0    0  0.67285152082E+03  0.19705816928E+03  0.13582573242E+04  0.17997011001E+04  0.95000000000E+03 0.  0.
   -2000013    1    1    2    0    0 -0.67285152082E+03 -0.19705816928E+03  0.24809585286E+03  0.12064877303E+04  0.95000000000E+03 0.  0.
<mgrwt>
<rscale>  0 0.25410236E+04</rscale>
<asrwt>0</asrwt>
<pdfrwt beam="1">  1        2 0.35481092E+00 0.25410236E+04</pdfrwt>
<pdfrwt beam="2">  1       -2 0.10767967E+00 0.25410236E+04</pdfrwt>
<totfact> 0.27645762E+00</totfact>
</mgrwt>
</event>
<event>
 4    1  0.2019612E-008  0.2959700E+04  0.7816531E-02  0.8255333E-01
          2   -1    0    0  501    0  0.00000000000E+00  0.00000000000E+00  0.12476274810E+04  0.12476274810E+04  0.00000000000E+00 0.  1.
         -2   -1    0    0    0  501 -0.00000000000E+00 -0.00000000000E+00 -0.17552966842E+04  0.17552966842E+04  0.00000000000E+00 0. -1.
    2000013    1    1    2    0    0  0.39585494973E+02  0.97023720703E+03  0.34170358113E+03  0.14007814200E+04  0.95000000000E+03 0.  0.
   -2000013    1    1    2    0    0 -0.39585494973E+02 -0.97023720703E+03 -0.84937278431E+03  0.16021427452E+04  0.95000000000E+03 0.  0.
<mgrwt>
<rscale>  0 0.29597002E+04</rscale>
<asrwt>0</asrwt>
<pdfrwt beam="1">  1        2 0.19194269E+00 0.29597002E+04</pdfrwt>
<pdfrwt beam="2">  1       -2 0.27004564E+00 0.29597002E+04</pdfrwt>
<totfact> 0.73815640E-01</totfact>
</mgrwt>
</event>
<event>
 4    1  0.2019612E-008  0.2827935E+04  0.7816531E-02  0.8294648E-01
         -2   -1    0    0    0  501 -0.00000000000E+00  0.00000000000E+00  0.15090875771E+04  0.15090875771E+04  0.00000000000E+00 0. -1.
          2   -1    0    0  501    0  0.00000000000E+00 -0.00000000000E+00 -0.13248432282E+04  0.13248432282E+04  0.00000000000E+00 0.  1.
    2000013    1    1    2    0    0  0.82699204112E+02 -0.92402605291E+03 -0.39485165069E+03  0.13853054287E+04  0.95000000000E+03 0.  0.
   -2000013    1    1    2    0    0 -0.82699204112E+02  0.92402605291E+03  0.57909599963E+03  0.14486253766E+04  0.95000000000E+03 0.  0.
<mgrwt>
<rscale>  0 0.28279353E+04</rscale>
<asrwt>0</asrwt>
<pdfrwt beam="2">  1        2 0.20382203E+00 0.28279353E+04</pdfrwt>
<pdfrwt beam="1">  1       -2 0.23216732E+00 0.28279353E+04</pdfrwt>
<totfact> 0.11504230E+00</totfact>
</mgrwt>
</event>
<event>
 4    1  0.2019612E-008  0.3153914E+04  0.7816531E-02  0.8201096E-01
          2   -1    0    0  501    0  0.00000000000E+00  0.00000000000E+00  0.78596799795E+03  0.78596799795E+03  0.00000000000E+00 0.  1.
         -2   -1    0    0    0  501 -0.00000000000E+00 -0.00000000000E+00 -0.31639878884E+04  0.31639878884E+04  0.00000000000E+00 0. -1.
    2000013    1    1    2    0    0 -0.25393478927E+03  0.90865497560E+03 -0.22324586500E+04  0.26031727499E+04  0.95000000000E+03 0.  0.
   -2000013    1    1    2    0    0  0.25393478927E+03 -0.90865497560E+03 -0.14556124044E+03  0.13467831364E+04  0.95000000000E+03 0.  0.
<mgrwt>
<rscale>  0 0.31539139E+04</rscale>
<asrwt>0</asrwt>
<pdfrwt beam="1">  1        2 0.12091815E+00 0.31539139E+04</pdfrwt>
<pdfrwt beam="2">  1       -2 0.48676736E+00 0.31539139E+04</pdfrwt>
<totfact> 0.59432572E-02</totfact>
</mgrwt>
</event>
<event>
 4    1  0.2019612E-008  0.2760034E+04  0.7816531E-02  0.8315785E-01
          2   -1    0    0  501    0  0.00000000000E+00  0.00000000000E+00  0.13221875495E+04  0.13221875495E+04  0.00000000000E+00 0.  1.
         -2   -1    0    0    0  501 -0.00000000000E+00 -0.00000000000E+00 -0.14403759719E+04  0.14403759719E+04  0.00000000000E+00 0. -1.
    2000013    1    1    2    0    0 -0.99684434301E+03 -0.90538226304E+02 -0.66267512801E+02  0.13815886500E+04  0.95000000000E+03 0.  0.
   -2000013    1    1    2    0    0  0.99684434301E+03  0.90538226304E+02 -0.51920909529E+02  0.13809748714E+04  0.95000000000E+03 0.  0.
<mgrwt>
<rscale>  0 0.27600342E+04</rscale>
<asrwt>0</asrwt>
<pdfrwt beam="1">  1        2 0.20341347E+00 0.27600342E+04</pdfrwt>
<pdfrwt beam="2">  1       -2 0.22159630E+00 0.27600342E+04</pdfrwt>
<totfact> 0.13527515E+00</totfact>
</mgrwt>
</event>
<event>
 4    1  0.2019612E-008  0.3118584E+04  0.7816531E-02  0.8210656E-01
         -2   -1    0    0    0  501 -0.00000000000E+00  0.00000000000E+00  0.15089580590E+04  0.15089580590E+04  0.00000000000E+00 0. -1.
          2   -1    0    0  501    0  0.00000000000E+00 -0.00000000000E+00 -0.16113044636E+04  0.16113044636E+04  0.00000000000E+00 0.  1.
    2000013    1    1    2    0    0 -0.18623476221E+03  0.11121246687E+04 -0.55877876254E+03  0.15767810155E+04  0.95000000000E+03 0.  0.
   -2000013    1    1    2    0    0  0.18623476221E+03 -0.11121246687E+04  0.45643235792E+03  0.15434815071E+04  0.95000000000E+03 0.  0.
<mgrwt>
<rscale>  0 0.31185836E+04</rscale>
<asrwt>0</asrwt>
<pdfrwt beam="2">  1        2 0.24789299E+00 0.31185836E+04</pdfrwt>
<pdfrwt beam="1">  1       -2 0.23214739E+00 0.31185836E+04</pdfrwt>
<totfact> 0.77237570E-01</totfact>
</mgrwt>
</event>
<event>
 4    1  0.2019612E-008  0.2236709E+04  0.7816531E-02  0.8503302E-01
         -2   -1    0    0    0  501 -0.00000000000E+00  0.00000000000E+00  0.26899220562E+04  0.26899220562E+04  0.00000000000E+00 0. -1.
          2   -1    0    0  501    0  0.00000000000E+00 -0.00000000000E+00 -0.46496415820E+03  0.46496415820E+03  0.00000000000E+00 0.  1.
    2000013    1    1    2    0    0  0.22928906037E+03  0.53661146689E+03  0.12361858404E+04  0.16646863884E+04  0.95000000000E+03 0.  0.
   -2000013    1    1    2    0    0 -0.22928906037E+03 -0.53661146689E+03  0.98877205762E+03  0.14901998260E+04  0.95000000000E+03 0.  0.
<mgrwt>
<rscale>  0 0.22367095E+04</rscale>
<asrwt>0</asrwt>
<pdfrwt beam="2">  1        2 0.71532949E-01 0.22367095E+04</pdfrwt>
<pdfrwt beam="1">  1       -2 0.41383415E+00 0.22367095E+04</pdfrwt>
<totfact> 0.36800785E-01</totfact>
</mgrwt>
</event>
<event>
 4    1  0.2019612E-008  0.2021065E+04  0.7816531E-02  0.8596835E-01
         -2   -1    0    0    0  501 -0.00000000000E+00  0.00000000000E+00  0.49932124082E+03  0.49932124082E+03  0.00000000000E+00 0. -1.
          2   -1    0    0  501    0  0.00000000000E+00 -0.00000000000E+00 -0.20451274135E+04  0.20451274135E+04  0.00000000000E+00 0.  1.
    2000013    1    1    2    0    0 -0.34063304513E+03 -0.49891844720E+02 -0.75720434255E+03  0.12626870095E+04  0.95000000000E+03 0.  0.
   -2000013    1    1    2    0    0  0.34063304513E+03  0.49891844720E+02 -0.78860183009E+03  0.12817616448E+04  0.95000000000E+03 0.  0.
<mgrwt>
<rscale>  0 0.20210646E+04</rscale>
<asrwt>0</asrwt>
<pdfrwt beam="2">  1        2 0.31463499E+00 0.20210646E+04</pdfrwt>
<pdfrwt beam="1">  1       -2 0.76818652E-01 0.20210646E+04</pdfrwt>
<totfact> 0.88528150E+00</totfact>
</mgrwt>
</event>
<event>
 4    1  0.2019612E-008  0.2046840E+04  0.7816531E-02  0.8585029E-01
          2   -1    0    0  501    0  0.00000000000E+00  0.00000000000E+00  0.17505234647E+04  0.17505234647E+04  0.00000000000E+00 0.  1.
         -2   -1    0    0    0  501 -0.00000000000E+00 -0.00000000000E+00 -0.59832863646E+03  0.59832863646E+03  0.00000000000E+00 0. -1.
    2000013    1    1    2    0    0  0.24419968502E+03 -0.28991811875E+03  0.61588807196E+03  0.11939447721E+04  0.95000000000E+03 0.  0.
   -2000013    1    1    2    0    0 -0.24419968502E+03  0.28991811875E+03  0.53630675626E+03  0.11549073290E+04  0.95000000000E+03 0.  0.
<mgrwt>
<rscale>  0 0.20468398E+04</rscale>
<asrwt>0</asrwt>
<pdfrwt beam="1">  1        2 0.26931130E+00 0.20468398E+04</pdfrwt>
<pdfrwt beam="2">  1       -2 0.92050560E-01 0.20468398E+04</pdfrwt>
<totfact> 0.85342091E+00</totfact>
</mgrwt>
</event>
<event>
 4    1  0.2019612E-008  0.2609742E+04  0.7816531E-02  0.8364900E-01
          2   -1    0    0  501    0  0.00000000000E+00  0.00000000000E+00  0.12930650204E+04  0.12930650204E+04  0.00000000000E+00 0.  1.
         -2   -1    0    0    0  501 -0.00000000000E+00 -0.00000000000E+00 -0.13167848325E+04  0.13167848325E+04  0.00000000000E+00 0. -1.
    2000013    1    1    2    0    0 -0.26775899573E+03  0.85319793664E+03 -0.35244784793E+02  0.13051374616E+04  0.95000000000E+03 0.  0.
   -2000013    1    1    2    0    0  0.26775899573E+03 -0.85319793664E+03  0.11524972678E+02  0.13047123912E+04  0.95000000000E+03 0.  0.
<mgrwt>
<rscale>  0 0.26097421E+04</rscale>
<asrwt>0</asrwt>
<pdfrwt beam="1">  1        2 0.19893308E+00 0.26097421E+04</pdfrwt>
<pdfrwt beam="2">  1       -2 0.20258228E+00 0.26097421E+04</pdfrwt>
<totfact> 0.18866219E+00</totfact>
</mgrwt>
</event>
<event>
 4    1  0.2019612E-008  0.2213044E+04  0.7816531E-02  0.8513018E-01
          2   -1    0    0  501    0  0.00000000000E+00  0.00000000000E+00  0.18424746559E+04  0.18424746559E+04  0.00000000000E+00 0.  1.
         -2   -1    0    0    0  501 -0.00000000000E+00 -0.00000000000E+00 -0.66453633543E+03  0.66453633543E+03  0.00000000000E+00 0. -1.
    2000013    1    1    2    0    0  0.56103043870E+03 -0.81306473872E+02  0.56300131069E+03  0.12413043026E+04  0.95000000000E+03 0.  0.
   -2000013    1    1    2    0    0 -0.56103043870E+03  0.81306473872E+02  0.61493700978E+03  0.12657066887E+04  0.95000000000E+03 0.  0.
<mgrwt>
<rscale>  0 0.22130444E+04</rscale>
<asrwt>0</asrwt>
<pdfrwt beam="1">  1        2 0.28345764E+00 0.22130444E+04</pdfrwt>
<pdfrwt beam="2">  1       -2 0.10223636E+00 0.22130444E+04</pdfrwt>
<totfact> 0.58474171E+00</totfact>
</mgrwt>
</event>
<event>
 4    1  0.2019612E-008  0.3160131E+04  0.7816531E-02  0.8199427E-01
          1   -1    0    0  501    0  0.00000000000E+00  0.00000000000E+00  0.26833201102E+04  0.26833201102E+04  0.00000000000E+00 0.  1.
         -1   -1    0    0    0  501 -0.00000000000E+00 -0.00000000000E+00 -0.93041685090E+03  0.93041685090E+03  0.00000000000E+00 0. -1.
    2000013    1    1    2    0    0 -0.77919016575E+03  0.47390754671E+03  0.18749271579E+04  0.22911956540E+04  0.95000000000E+03 0.  0.
   -2000013    1    1    2    0    0  0.77919016575E+03 -0.47390754671E+03 -0.12202389863E+03  0.13225413071E+04  0.95000000000E+03 0.  0.
<mgrwt>
<rscale>  0 0.31601305E+04</rscale>
<asrwt>0</asrwt>
<pdfrwt beam="1">  1        1 0.41281847E+00 0.31601305E+04</pdfrwt>
<pdfrwt beam="2">  1       -1 0.14314106E+00 0.31601305E+04</pdfrwt>
<totfact> 0.33452281E-01</totfact>
</mgrwt>
</event>
<event>
 4    1  0.2019612E-008  0.2625045E+04  0.7816531E-02  0.8359743E-01
          2   -1    0    0  501    0  0.00000000000E+00  0.00000000000E+00  0.10271541624E+04  0.10271541624E+04  0.00000000000E+00 0.  1.
         -2   -1    0    0    0  501 -0.00000000000E+00 -0.00000000000E+00 -0.16771730481E+04  0.16771730481E+04  0.00000000000E+00 0. -1.
    2000013    1    1    2    0    0  0.12548860632E+03  0.59802712651E+03  0.36363389914E+03  0.11866395607E+04  0.95000000000E+03 0.  0.
   -2000013    1    1    2    0    0 -0.12548860632E+03 -0.59802712651E+03 -0.10136527848E+04  0.15176876498E+04  0.95000000000E+03 0.  0.
<mgrwt>
<rscale>  0 0.26250450E+04</rscale>
<asrwt>0</asrwt>
<pdfrwt beam="1">  1        2 0.15802372E+00 0.26250450E+04</pdfrwt>
<pdfrwt beam="2">  1       -2 0.25802662E+00 0.26250450E+04</pdfrwt>
<totfact> 0.12254438E+00</totfact>
</mgrwt>
</event>
<event>
 4    1  0.2019612E-008  0.3063245E+04  0.7816531E-02  0.8225898E-01
         -2   -1    0    0    0  501 -0.00000000000E+00  0.00000000000E+00  0.12424288793E+04  0.12424288793E+04  0.00000000000E+00 0. -1.
          2   -1    0    0  501    0  0.00000000000E+00 -0.00000000000E+00 -0.18881305643E+04  0.18881305643E+04  0.00000000000E+00 0.  1.
    2000013    1    1    2    0    0 -0.88542650581E+03 -0.68225279103E+03 -0.77289002794E+03  0.16581037251E+04  0.95000000000E+03 0.  0.
   -2000013    1    1    2    0    0  0.88542650581E+03  0.68225279103E+03  0.12718834296E+03  0.14724557184E+04  0.95000000000E+03 0.  0.
<mgrwt>
<rscale>  0 0.30632453E+04</rscale>
<asrwt>0</asrwt>
<pdfrwt beam="2">  1        2 0.29048162E+00 0.30632453E+04</pdfrwt>
<pdfrwt beam="1">  1       -2 0.19114291E+00 0.30632453E+04</pdfrwt>
<totfact> 0.99993612E-01</totfact>
</mgrwt>
</event>
<event>
 4    1  0.2019612E-008  0.2328508E+04  0.7816531E-02  0.8466765E-01
         -2   -1    0    0    0  501 -0.00000000000E+00  0.00000000000E+00  0.11524064183E+04  0.11524064183E+04  0.00000000000E+00 0. -1.
          2   -1    0    0  501    0  0.00000000000E+00 -0.00000000000E+00 -0.11762233980E+04  0.11762233980E+04  0.00000000000E+00 0.  1.
    2000013    1    1    2    0    0 -0.40609009402E+03 -0.40133942224E+03  0.34448761595E+03  0.11606697264E+04  0.95000000000E+03 0.  0.
   -2000013    1    1    2    0    0  0.40609009402E+03  0.40133942224E+03 -0.36830459564E+03  0.11679600898E+04  0.95000000000E+03 0.  0.
<mgrwt>
<rscale>  0 0.23285080E+04</rscale>
<asrwt>0</asrwt>
<pdfrwt beam="2">  1        2 0.18095745E+00 0.23285080E+04</pdfrwt>
<pdfrwt beam="1">  1       -2 0.17729330E+00 0.23285080E+04</pdfrwt>
<totfact> 0.33523372E+00</totfact>
</mgrwt>
</event>
<event>
 4    1  0.2019612E-008  0.2749825E+04  0.7816531E-02  0.8319017E-01
         -2   -1    0    0    0  501 -0.00000000000E+00  0.00000000000E+00  0.73257808315E+03  0.73257808315E+03  0.00000000000E+00 0. -1.
          2   -1    0    0  501    0  0.00000000000E+00 -0.00000000000E+00 -0.25804541184E+04  0.25804541184E+04  0.00000000000E+00 0.  1.
    2000013    1    1    2    0    0  0.58863079356E+03  0.79674038703E+03 -0.82603848186E+03  0.16019116795E+04  0.95000000000E+03 0.  0.
   -2000013    1    1    2    0    0 -0.58863079356E+03 -0.79674038703E+03 -0.10218375534E+04  0.17111205220E+04  0.95000000000E+03 0.  0.
<mgrwt>
<rscale>  0 0.27498248E+04</rscale>
<asrwt>0</asrwt>
<pdfrwt beam="2">  1        2 0.39699293E+00 0.27498248E+04</pdfrwt>
<pdfrwt beam="1">  1       -2 0.11270432E+00 0.27498248E+04</pdfrwt>
<totfact> 0.16905182E+00</totfact>
</mgrwt>
</event>
<event>
 4    1  0.2019612E-008  0.2624622E+04  0.7816531E-02  0.8359886E-01
          2   -1    0    0  501    0  0.00000000000E+00  0.00000000000E+00  0.11422023558E+04  0.11422023558E+04  0.00000000000E+00 0.  1.
         -2   -1    0    0    0  501 -0.00000000000E+00 -0.00000000000E+00 -0.15077538810E+04  0.15077538810E+04  0.00000000000E+00 0. -1.
    2000013    1    1    2    0    0  0.86327573219E+03 -0.54937533479E+02 -0.45255695429E+03  0.13621934221E+04  0.95000000000E+03 0.  0.
   -2000013    1    1    2    0    0 -0.86327573219E+03  0.54937533479E+02  0.87005429111E+02  0.12877628148E+04  0.95000000000E+03 0.  0.
<mgrwt>
<rscale>  0 0.26246219E+04</rscale>
<asrwt>0</asrwt>
<pdfrwt beam="1">  1        2 0.17572344E+00 0.26246219E+04</pdfrwt>
<pdfrwt beam="2">  1       -2 0.23196214E+00 0.26246219E+04</pdfrwt>
<totfact> 0.15058923E+00</totfact>
</mgrwt>
</event>
<event>
 4    1  0.2019612E-008  0.2593540E+04  0.7816531E-02  0.8370399E-01
          2   -1    0    0  501    0  0.00000000000E+00  0.00000000000E+00  0.24197382877E+04  0.24197382877E+04  0.00000000000E+00 0.  1.
         -2   -1    0    0    0  501 -0.00000000000E+00 -0.00000000000E+00 -0.69495643400E+03  0.69495643400E+03  0.00000000000E+00 0. -1.
    2000013    1    1    2    0    0 -0.72277959781E+03 -0.50656280678E+03  0.85059552088E+03  0.15508155804E+04  0.95000000000E+03 0.  0.
   -2000013    1    1    2    0    0  0.72277959781E+03  0.50656280678E+03  0.87418633285E+03  0.15638791414E+04  0.95000000000E+03 0.  0.
<mgrwt>
<rscale>  0 0.25935402E+04</rscale>
<asrwt>0</asrwt>
<pdfrwt beam="1">  1        2 0.37226743E+00 0.25935402E+04</pdfrwt>
<pdfrwt beam="2">  1       -2 0.10691638E+00 0.25935402E+04</pdfrwt>
<totfact> 0.24119180E+00</totfact>
</mgrwt>
</event>
<event>
 4    1  0.2019612E-008  0.2292271E+04  0.7816531E-02  0.8480975E-01
         -2   -1    0    0    0  501 -0.00000000000E+00  0.00000000000E+00  0.66386386819E+03  0.66386386819E+03  0.00000000000E+00 0. -1.
          2   -1    0    0  501    0  0.00000000000E+00 -0.00000000000E+00 -0.19787583773E+04  0.19787583773E+04  0.00000000000E+00 0.  1.
    2000013    1    1    2    0    0  0.53696934595E+03 -0.34373543660E+03 -0.57895192896E+03  0.12822540563E+04  0.95000000000E+03 0.  0.
   -2000013    1    1    2    0    0 -0.53696934595E+03  0.34373543660E+03 -0.73594258013E+03  0.13603681892E+04  0.95000000000E+03 0.  0.
<mgrwt>
<rscale>  0 0.22922707E+04</rscale>
<asrwt>0</asrwt>
<pdfrwt beam="2">  1        2 0.30442436E+00 0.22922707E+04</pdfrwt>
<pdfrwt beam="1">  1       -2 0.10213290E+00 0.22922707E+04</pdfrwt>
<totfact> 0.48920669E+00</totfact>
</mgrwt>
</event>
<event>
 4    1  0.2019612E-008  0.2890276E+04  0.7816531E-02  0.8275777E-01
          2   -1    0    0  501    0  0.00000000000E+00  0.00000000000E+00  0.22918703617E+04  0.22918703617E+04  0.00000000000E+00 0.  1.
         -2   -1    0    0    0  501 -0.00000000000E+00 -0.00000000000E+00 -0.91123126788E+03  0.91123126788E+03  0.00000000000E+00 0. -1.
    2000013    1    1    2    0    0  0.92565051979E+03 -0.37104874773E+03  0.11751865612E+04  0.18105439822E+04  0.95000000000E+03 0.  0.
   -2000013    1    1    2    0    0 -0.92565051979E+03  0.37104874773E+03  0.20545253262E+03  0.13925576473E+04  0.95000000000E+03 0.  0.
<mgrwt>
<rscale>  0 0.28902761E+04</rscale>
<asrwt>0</asrwt>
<pdfrwt beam="1">  1        2 0.35259544E+00 0.28902761E+04</pdfrwt>
<pdfrwt beam="2">  1       -2 0.14018943E+00 0.28902761E+04</pdfrwt>
<totfact> 0.14163438E+00</totfact>
</mgrwt>
</event>
<event>
 4    1  0.2019612E-008  0.2494509E+04  0.7816531E-02  0.8404944E-01
          2   -1    0    0  501    0  0.00000000000E+00  0.00000000000E+00  0.13204940619E+04  0.13204940619E+04  0.00000000000E+00 0.  1.
         -2   -1    0    0    0  501 -0.00000000000E+00 -0.00000000000E+00 -0.11780769918E+04  0.11780769918E+04  0.00000000000E+00 0. -1.
    2000013    1    1    2    0    0 -0.67811210494E+03  0.33502962359E+03 -0.21397039561E+03  0.12330304967E+04  0.95000000000E+03 0.  0.
   -2000013    1    1    2    0    0  0.67811210494E+03 -0.33502962359E+03  0.35638746570E+03  0.12655405569E+04  0.95000000000E+03 0.  0.
<mgrwt>
<rscale>  0 0.24945089E+04</rscale>
<asrwt>0</asrwt>
<pdfrwt beam="1">  1        2 0.20315293E+00 0.24945089E+04</pdfrwt>
<pdfrwt beam="2">  1       -2 0.18124261E+00 0.24945089E+04</pdfrwt>
<totfact> 0.25514728E+00</totfact>
</mgrwt>
</event>
<event>
 4    1  0.2019612E-008  0.3647088E+04  0.7816531E-02  0.8079790E-01
         -2   -1    0    0    0  501 -0.00000000000E+00  0.00000000000E+00  0.81331662793E+03  0.81331662793E+03  0.00000000000E+00 0. -1.
          2   -1    0    0  501    0  0.00000000000E+00 -0.00000000000E+00 -0.40885824684E+04  0.40885824684E+04  0.00000000000E+00 0.  1.
    2000013    1    1    2    0    0 -0.68714921363E+03 -0.11485284442E+04 -0.27057328425E+04  0.31646140119E+04  0.95000000000E+03 0.  0.
   -2000013    1    1    2    0    0  0.68714921363E+03  0.11485284442E+04 -0.56953299790E+03  0.17372850844E+04  0.95000000000E+03 0.  0.
<mgrwt>
<rscale>  0 0.36470877E+04</rscale>
<asrwt>0</asrwt>
<pdfrwt beam="2">  1        2 0.62901270E+00 0.36470877E+04</pdfrwt>
<pdfrwt beam="1">  1       -2 0.12512563E+00 0.36470877E+04</pdfrwt>
<totfact> 0.11195518E-01</totfact>
</mgrwt>
</event>
<event>
 4    1  0.2019612E-008  0.2387203E+04  0.7816531E-02  0.8444310E-01
          1   -1    0    0  501    0  0.00000000000E+00  0.00000000000E+00  0.19878562190E+04  0.19878562190E+04  0.00000000000E+00 0.  1.
         -1   -1    0    0    0  501 -0.00000000000E+00 -0.00000000000E+00 -0.71669386693E+03  0.71669386693E+03  0.00000000000E+00 0. -1.
    2000013    1    1    2    0    0  0.29087571660E+03  0.38926428460E+03  0.12415160065E+04  0.16370697481E+04  0.95000000000E+03 0.  0.
   -2000013    1    1    2    0    0 -0.29087571660E+03 -0.38926428460E+03  0.29646345537E+02  0.10674803378E+04  0.95000000000E+03 0.  0.
<mgrwt>
<rscale>  0 0.23872028E+04</rscale>
<asrwt>0</asrwt>
<pdfrwt beam="1">  1        1 0.30582403E+00 0.23872028E+04</pdfrwt>
<pdfrwt beam="2">  1       -1 0.11026060E+00 0.23872028E+04</pdfrwt>
<totfact> 0.20673670E+00</totfact>
</mgrwt>
</event>
<event>
 4    1  0.2019612E-008  0.3088435E+04  0.7816531E-02  0.8218919E-01
          2   -1    0    0  501    0  0.00000000000E+00  0.00000000000E+00  0.97504754282E+03  0.97504754282E+03  0.00000000000E+00 0. -1.
         -2   -1    0    0    0  501 -0.00000000000E+00 -0.00000000000E+00 -0.24456328823E+04  0.24456328823E+04  0.00000000000E+00 0.  1.
    2000013    1    1    2    0    0 -0.64370229556E+03 -0.61834408380E+03 -0.16522476596E+04  0.21045484979E+04  0.95000000000E+03 0.  0.
   -2000013    1    1    2    0    0  0.64370229556E+03  0.61834408380E+03  0.18166232014E+03  0.13161319272E+04  0.95000000000E+03 0.  0.
<mgrwt>
<rscale>  0 0.30884354E+04</rscale>
<asrwt>0</asrwt>
<pdfrwt beam="1">  1        2 0.15000732E+00 0.30884354E+04</pdfrwt>
<pdfrwt beam="2">  1       -2 0.37625121E+00 0.30884354E+04</pdfrwt>
<totfact> 0.23504072E-01</totfact>
</mgrwt>
</event>
<event>
 4    1  0.2019612E-008  0.3479016E+04  0.7816531E-02  0.8118781E-01
          2   -1    0    0  501    0  0.00000000000E+00  0.00000000000E+00  0.26392038723E+04  0.26392038723E+04  0.00000000000E+00 0.  1.
         -2   -1    0    0    0  501 -0.00000000000E+00 -0.00000000000E+00 -0.11465154858E+04  0.11465154858E+04  0.00000000000E+00 0. -1.
    2000013    1    1    2    0    0  0.26814354665E+02  0.11890575012E+04 -0.16978626465E+03  0.15316344624E+04  0.95000000000E+03 0.  0.
   -2000013    1    1    2    0    0 -0.26814354665E+02 -0.11890575012E+04  0.16624746512E+04  0.22540848956E+04  0.95000000000E+03 0.  0.
<mgrwt>
<rscale>  0 0.34790160E+04</rscale>
<asrwt>0</asrwt>
<pdfrwt beam="1">  1        2 0.40603136E+00 0.34790160E+04</pdfrwt>
<pdfrwt beam="2">  1       -2 0.17638700E+00 0.34790160E+04</pdfrwt>
<totfact> 0.45622688E-01</totfact>
</mgrwt>
</event>
<event>
 4    1  0.2019612E-008  0.2259357E+04  0.7816531E-02  0.8494121E-01
         -2   -1    0    0    0  501 -0.00000000000E+00  0.00000000000E+00  0.20671459829E+04  0.20671459829E+04  0.00000000000E+00 0. -1.
          2   -1    0    0  501    0  0.00000000000E+00 -0.00000000000E+00 -0.61736001135E+03  0.61736001135E+03  0.00000000000E+00 0.  1.
    2000013    1    1    2    0    0 -0.11292716985E+02 -0.60471859709E+03  0.61954581217E+03  0.12853595297E+04  0.95000000000E+03 0.  0.
   -2000013    1    1    2    0    0  0.11292716985E+02  0.60471859709E+03  0.83024015937E+03  0.13991464646E+04  0.95000000000E+03 0.  0.
<mgrwt>
<rscale>  0 0.22593568E+04</rscale>
<asrwt>0</asrwt>
<pdfrwt beam="2">  1        2 0.94978464E-01 0.22593568E+04</pdfrwt>
<pdfrwt beam="1">  1       -2 0.31802246E+00 0.22593568E+04</pdfrwt>
<totfact> 0.10739226E+00</totfact>
</mgrwt>
</event>
<event>
 4    1  0.2019612E-008  0.1997843E+04  0.7816531E-02  0.8607630E-01
          1   -1    0    0  501    0  0.00000000000E+00  0.00000000000E+00  0.11240643364E+04  0.11240643364E+04  0.00000000000E+00 0.  1.
         -1   -1    0    0    0  501 -0.00000000000E+00 -0.00000000000E+00 -0.88771065003E+03  0.88771065003E+03  0.00000000000E+00 0. -1.
    2000013    1    1    2    0    0 -0.23599696315E+03 -0.49360266137E+02 -0.76074822524E+02  0.98306580711E+03  0.95000000000E+03 0.  0.
   -2000013    1    1    2    0    0  0.23599696315E+03  0.49360266137E+02  0.31242850892E+03  0.10287091793E+04  0.95000000000E+03 0.  0.
<mgrwt>
<rscale>  0 0.19978427E+04</rscale>
<asrwt>0</asrwt>
<pdfrwt beam="1">  1        1 0.17293298E+00 0.19978427E+04</pdfrwt>
<pdfrwt beam="2">  1       -1 0.13657087E+00 0.19978427E+04</pdfrwt>
<totfact> 0.50459103E+00</totfact>
</mgrwt>
</event>
<event>
 4    1  0.2019612E-008  0.2208619E+04  0.7816531E-02  0.8514849E-01
         -1   -1    0    0    0  501 -0.00000000000E+00  0.00000000000E+00  0.13575832787E+04  0.13575832787E+04  0.00000000000E+00 0. -1.
          1   -1    0    0  501    0  0.00000000000E+00 -0.00000000000E+00 -0.89828728637E+03  0.89828728637E+03  0.00000000000E+00 0.  1.
    2000013    1    1    2    0    0 -0.68707298478E+02 -0.52519124656E+03  0.34635918912E+02  0.10882307592E+04  0.95000000000E+03 0.  0.
   -2000013    1    1    2    0    0  0.68707298478E+02  0.52519124656E+03  0.42466007338E+03  0.11676398059E+04  0.95000000000E+03 0.  0.
<mgrwt>
<rscale>  0 0.22086193E+04</rscale>
<asrwt>0</asrwt>
<pdfrwt beam="2">  1        1 0.13819804E+00 0.22086193E+04</pdfrwt>
<pdfrwt beam="1">  1       -1 0.20885897E+00 0.22086193E+04</pdfrwt>
<totfact> 0.21765159E+00</totfact>
</mgrwt>
</event>
<event>
 4    1  0.2019612E-008  0.2471227E+04  0.7816531E-02  0.8413308E-01
         -2   -1    0    0    0  501 -0.00000000000E+00  0.00000000000E+00  0.31739319681E+04  0.31739319681E+04  0.00000000000E+00 0. -1.
          2   -1    0    0  501    0  0.00000000000E+00 -0.00000000000E+00 -0.48102498471E+03  0.48102498471E+03  0.00000000000E+00 0.  1.
    2000013    1    1    2    0    0  0.67024442701E+03 -0.13097669707E+03  0.19340822848E+04  0.22604328726E+04  0.95000000000E+03 0.  0.
   -2000013    1    1    2    0    0 -0.67024442701E+03  0.13097669707E+03  0.75882469858E+03  0.13945240802E+04  0.95000000000E+03 0.  0.
<mgrwt>
<rscale>  0 0.24712269E+04</rscale>
<asrwt>0</asrwt>
<pdfrwt beam="2">  1        2 0.74003846E-01 0.24712269E+04</pdfrwt>
<pdfrwt beam="1">  1       -2 0.48829721E+00 0.24712269E+04</pdfrwt>
<totfact> 0.11216760E-01</totfact>
</mgrwt>
</event>
<event>
 4    1  0.2019612E-008  0.2962750E+04  0.7816531E-02  0.8254449E-01
          2   -1    0    0  501    0  0.00000000000E+00  0.00000000000E+00  0.14657026710E+04  0.14657026710E+04  0.00000000000E+00 0.  1.
         -2   -1    0    0    0  501 -0.00000000000E+00 -0.00000000000E+00 -0.14972147217E+04  0.14972147217E+04  0.00000000000E+00 0. -1.
    2000013    1    1    2    0    0  0.94278412899E+03 -0.53315247375E+03 -0.36056262452E+03  0.14851258803E+04  0.95000000000E+03 0.  0.
   -2000013    1    1    2    0    0 -0.94278412899E+03  0.53315247375E+03  0.32905057382E+03  0.14777915124E+04  0.95000000000E+03 0.  0.
<mgrwt>
<rscale>  0 0.29627498E+04</rscale>
<asrwt>0</asrwt>
<pdfrwt beam="1">  1        2 0.22549272E+00 0.29627498E+04</pdfrwt>
<pdfrwt beam="2">  1       -2 0.23034072E+00 0.29627498E+04</pdfrwt>
<totfact> 0.96978969E-01</totfact>
</mgrwt>
</event>
<event>
 4    1  0.2019612E-008  0.2242553E+04  0.7816531E-02  0.8500923E-01
          2   -1    0    0  501    0  0.00000000000E+00  0.00000000000E+00  0.13922189247E+04  0.13922189247E+04  0.00000000000E+00 0.  1.
         -2   -1    0    0    0  501 -0.00000000000E+00 -0.00000000000E+00 -0.90306239537E+03  0.90306239537E+03  0.00000000000E+00 0. -1.
    2000013    1    1    2    0    0 -0.14227867486E+02 -0.57243667996E+03  0.76789666553E+02  0.11118825647E+04  0.95000000000E+03 0.  0.
   -2000013    1    1    2    0    0  0.14227867486E+02  0.57243667996E+03  0.41236686281E+03  0.11833987554E+04  0.95000000000E+03 0.  0.
<mgrwt>
<rscale>  0 0.22425526E+04</rscale>
<asrwt>0</asrwt>
<pdfrwt beam="1">  1        2 0.21418753E+00 0.22425526E+04</pdfrwt>
<pdfrwt beam="2">  1       -2 0.13893268E+00 0.22425526E+04</pdfrwt>
<totfact> 0.48798304E+00</totfact>
</mgrwt>
</event>
<event>
 4    1  0.2019612E-008  0.2375882E+04  0.7816531E-02  0.8448588E-01
          2   -1    0    0  501    0  0.00000000000E+00  0.00000000000E+00  0.76214521962E+03  0.76214521962E+03  0.00000000000E+00 0.  1.
         -2   -1    0    0    0  501 -0.00000000000E+00 -0.00000000000E+00 -0.18516209167E+04  0.18516209167E+04  0.00000000000E+00 0. -1.
    2000013    1    1    2    0    0 -0.45293560644E+03  0.34635008964E+03 -0.73356677663E+02  0.11104009412E+04  0.95000000000E+03 0.  0.
   -2000013    1    1    2    0    0  0.45293560644E+03 -0.34635008964E+03 -0.10161190194E+04  0.15033651951E+04  0.95000000000E+03 0.  0.
<mgrwt>
<rscale>  0 0.23758822E+04</rscale>
<asrwt>0</asrwt>
<pdfrwt beam="1">  1        2 0.11725311E+00 0.23758822E+04</pdfrwt>
<pdfrwt beam="2">  1       -2 0.28486475E+00 0.23758822E+04</pdfrwt>
<totfact> 0.13015212E+00</totfact>
</mgrwt>
</event>
<event>
 4    1  0.2019612E-008  0.2244366E+04  0.7816531E-02  0.8500185E-01
          2   -1    0    0  501    0  0.00000000000E+00  0.00000000000E+00  0.10829356780E+04  0.10829356780E+04  0.00000000000E+00 0.  1.
         -2   -1    0    0    0  501 -0.00000000000E+00 -0.00000000000E+00 -0.11628531859E+04  0.11628531859E+04  0.00000000000E+00 0. -1.
    2000013    1    1    2    0    0  0.52233831808E+03 -0.28154903641E+03 -0.10847129969E+03  0.11253324848E+04  0.95000000000E+03 0.  0.
   -2000013    1    1    2    0    0 -0.52233831808E+03  0.28154903641E+03  0.28553791737E+02  0.11204563791E+04  0.95000000000E+03 0.  0.
<mgrwt>
<rscale>  0 0.22443665E+04</rscale>
<asrwt>0</asrwt>
<pdfrwt beam="1">  1        2 0.16660549E+00 0.22443665E+04</pdfrwt>
<pdfrwt beam="2">  1       -2 0.17890049E+00 0.22443665E+04</pdfrwt>
<totfact> 0.37513326E+00</totfact>
</mgrwt>
</event>
<event>
 4    1  0.2019612E-008  0.2886206E+04  0.7816531E-02  0.8276993E-01
         -2   -1    0    0    0  501 -0.00000000000E+00  0.00000000000E+00  0.64019412043E+03  0.64019412043E+03  0.00000000000E+00 0. -1.
          2   -1    0    0  501    0  0.00000000000E+00 -0.00000000000E+00 -0.32529916233E+04  0.32529916233E+04  0.00000000000E+00 0.  1.
    2000013    1    1    2    0    0 -0.91121417234E+02 -0.10107385281E+04 -0.18290853795E+04  0.22973786824E+04  0.95000000000E+03 0.  0.
   -2000013    1    1    2    0    0  0.91121417234E+02  0.10107385281E+04 -0.78371212342E+03  0.15958070614E+04  0.95000000000E+03 0.  0.
<mgrwt>
<rscale>  0 0.28862059E+04</rscale>
<asrwt>0</asrwt>
<pdfrwt beam="2">  1        2 0.50046024E+00 0.28862059E+04</pdfrwt>
<pdfrwt beam="1">  1       -2 0.98491405E-01 0.28862059E+04</pdfrwt>
<totfact> 0.88500892E-01</totfact>
</mgrwt>
</event>
<event>
 4    1  0.2019612E-008  0.4040530E+04  0.7816531E-02  0.7996420E-01
          2   -1    0    0  501    0  0.00000000000E+00  0.00000000000E+00  0.20436105493E+04  0.20436105493E+04  0.00000000000E+00 0.  1.
         -2   -1    0    0    0  501 -0.00000000000E+00 -0.00000000000E+00 -0.19971859131E+04  0.19971859131E+04  0.00000000000E+00 0. -1.
    2000013    1    1    2    0    0 -0.14652182758E+04 -0.95632610606E+03  0.36608474614E+03  0.20243374863E+04  0.95000000000E+03 0.  0.
   -2000013    1    1    2    0    0  0.14652182758E+04  0.95632610606E+03 -0.31966010992E+03  0.20164589762E+04  0.95000000000E+03 0.  0.
<mgrwt>
<rscale>  0 0.40405298E+04</rscale>
<asrwt>0</asrwt>
<pdfrwt beam="1">  1        2 0.31440162E+00 0.40405298E+04</pdfrwt>
<pdfrwt beam="2">  1       -2 0.30725937E+00 0.40405298E+04</pdfrwt>
<totfact> 0.14250610E-01</totfact>
</mgrwt>
</event>
<event>
 4    1  0.2019612E-008  0.2169486E+04  0.7816531E-02  0.8531237E-01
         -2   -1    0    0    0  501 -0.00000000000E+00  0.00000000000E+00  0.11888900623E+04  0.11888900623E+04  0.00000000000E+00 0. -1.
          2   -1    0    0  501    0  0.00000000000E+00 -0.00000000000E+00 -0.98971898057E+03  0.98971898057E+03  0.00000000000E+00 0.  1.
    2000013    1    1    2    0    0 -0.41317413001E+03  0.82784285574E+02  0.41169952779E+03  0.11178383608E+04  0.95000000000E+03 0.  0.
   -2000013    1    1    2    0    0  0.41317413001E+03 -0.82784285574E+02 -0.21252844603E+03  0.10607706821E+04  0.95000000000E+03 0.  0.
<mgrwt>
<rscale>  0 0.21694857E+04</rscale>
<asrwt>0</asrwt>
<pdfrwt beam="2">  1        2 0.15226446E+00 0.21694857E+04</pdfrwt>
<pdfrwt beam="1">  1       -2 0.18290616E+00 0.21694857E+04</pdfrwt>
<totfact> 0.40573690E+00</totfact>
</mgrwt>
</event>
<event>
 4    1  0.2019612E-008  0.2377845E+04  0.7816531E-02  0.8447845E-01
         -2   -1    0    0    0  501 -0.00000000000E+00  0.00000000000E+00  0.90364430485E+03  0.90364430485E+03  0.00000000000E+00 0. -1.
          2   -1    0    0  501    0  0.00000000000E+00 -0.00000000000E+00 -0.15642626106E+04  0.15642626106E+04  0.00000000000E+00 0.  1.
    2000013    1    1    2    0    0  0.47580845323E+03 -0.68237287110E+02 -0.87948839465E+03  0.13809597561E+04  0.95000000000E+03 0.  0.
   -2000013    1    1    2    0    0 -0.47580845323E+03  0.68237287110E+02  0.21887008890E+03  0.10869471594E+04  0.95000000000E+03 0.  0.
<mgrwt>
<rscale>  0 0.23778452E+04</rscale>
<asrwt>0</asrwt>
<pdfrwt beam="2">  1        2 0.24065578E+00 0.23778452E+04</pdfrwt>
<pdfrwt beam="1">  1       -2 0.13902220E+00 0.23778452E+04</pdfrwt>
<totfact> 0.38487667E+00</totfact>
</mgrwt>
</event>
<event>
 4    1  0.2019612E-008  0.2759012E+04  0.7816531E-02  0.8316108E-01
         -2   -1    0    0    0  501 -0.00000000000E+00  0.00000000000E+00  0.11020132824E+04  0.11020132824E+04  0.00000000000E+00 0. -1.
          2   -1    0    0  501    0  0.00000000000E+00 -0.00000000000E+00 -0.17268724153E+04  0.17268724153E+04  0.00000000000E+00 0.  1.
    2000013    1    1    2    0    0  0.80830731759E+03 -0.55631423191E+03 -0.51148565970E+03  0.14584114044E+04  0.95000000000E+03 0.  0.
   -2000013    1    1    2    0    0 -0.80830731759E+03  0.55631423191E+03 -0.11337347311E+03  0.13704742933E+04  0.95000000000E+03 0.  0.
<mgrwt>
<rscale>  0 0.27590117E+04</rscale>
<asrwt>0</asrwt>
<pdfrwt beam="2">  1        2 0.26567268E+00 0.27590117E+04</pdfrwt>
<pdfrwt beam="1">  1       -2 0.16954051E+00 0.27590117E+04</pdfrwt>
<totfact> 0.17767482E+00</totfact>
</mgrwt>
</event>
<event>
 4    1  0.2019612E-008  0.2719695E+04  0.7816531E-02  0.8328643E-01
          2   -1    0    0  501    0  0.00000000000E+00  0.00000000000E+00  0.14671141569E+04  0.14671141569E+04  0.00000000000E+00 0.  1.
         -2   -1    0    0    0  501 -0.00000000000E+00 -0.00000000000E+00 -0.12604239243E+04  0.12604239243E+04  0.00000000000E+00 0. -1.
    2000013    1    1    2    0    0 -0.92891913094E+03  0.13238536290E+03 -0.15482516278E+03  0.13442051433E+04  0.95000000000E+03 0.  0.
   -2000013    1    1    2    0    0  0.92891913094E+03 -0.13238536290E+03  0.36151539536E+03  0.13833329380E+04  0.95000000000E+03 0.  0.
<mgrwt>
<rscale>  0 0.27196954E+04</rscale>
<asrwt>0</asrwt>
<pdfrwt beam="1">  1        2 0.22570987E+00 0.27196954E+04</pdfrwt>
<pdfrwt beam="2">  1       -2 0.19391137E+00 0.27196954E+04</pdfrwt>
<totfact> 0.16938399E+00</totfact>
</mgrwt>
</event>
<event>
 4    1  0.2019612E-008  0.3916312E+04  0.7816531E-02  0.8021645E-01
         -2   -1    0    0    0  501 -0.00000000000E+00  0.00000000000E+00  0.14395700661E+04  0.14395700661E+04  0.00000000000E+00 0. -1.
          2   -1    0    0  501    0  0.00000000000E+00 -0.00000000000E+00 -0.26635549285E+04  0.26635549285E+04  0.00000000000E+00 0.  1.
    2000013    1    1    2    0    0 -0.78079402176E+03 -0.11516729953E+04 -0.16575354009E+04  0.23634537435E+04  0.95000000000E+03 0.  0.
   -2000013    1    1    2    0    0  0.78079402176E+03  0.11516729953E+04  0.43355053846E+03  0.17396712511E+04  0.95000000000E+03 0.  0.
<mgrwt>
<rscale>  0 0.39163115E+04</rscale>
<asrwt>0</asrwt>
<pdfrwt beam="2">  1        2 0.40977768E+00 0.39163115E+04</pdfrwt>
<pdfrwt beam="1">  1       -2 0.22147232E+00 0.39163115E+04</pdfrwt>
<totfact> 0.21443068E-01</totfact>
</mgrwt>
</event>
<event>
 4    1  0.2019612E-008  0.3192765E+04  0.7816531E-02  0.8190731E-01
         -2   -1    0    0    0  501 -0.00000000000E+00  0.00000000000E+00  0.85467435499E+03  0.85467435499E+03  0.00000000000E+00 0. -1.
          2   -1    0    0  501    0  0.00000000000E+00 -0.00000000000E+00 -0.29817638868E+04  0.29817638868E+04  0.00000000000E+00 0.  1.
    2000013    1    1    2    0    0 -0.44106829608E+03  0.11911883804E+04 -0.12800540364E+04  0.20382613512E+04  0.95000000000E+03 0.  0.
   -2000013    1    1    2    0    0  0.44106829608E+03 -0.11911883804E+04 -0.84703549536E+03  0.17981768906E+04  0.95000000000E+03 0.  0.
<mgrwt>
<rscale>  0 0.31927650E+04</rscale>
<asrwt>0</asrwt>
<pdfrwt beam="2">  1        2 0.45873291E+00 0.31927650E+04</pdfrwt>
<pdfrwt beam="1">  1       -2 0.13148836E+00 0.31927650E+04</pdfrwt>
<totfact> 0.63504386E-01</totfact>
</mgrwt>
</event>
<event>
 4    1  0.2019612E-008  0.2289715E+04  0.7816531E-02  0.8481988E-01
         -2   -1    0    0    0  501 -0.00000000000E+00  0.00000000000E+00  0.88937701925E+03  0.88937701925E+03  0.00000000000E+00 0. -1.
          2   -1    0    0  501    0  0.00000000000E+00 -0.00000000000E+00 -0.14737262915E+04  0.14737262915E+04  0.00000000000E+00 0.  1.
    2000013    1    1    2    0    0 -0.58343993216E+03 -0.30850728379E+01 -0.23471120387E+02  0.11151065266E+04  0.95000000000E+03 0.  0.
   -2000013    1    1    2    0    0  0.58343993216E+03  0.30850728379E+01 -0.56087815188E+03  0.12479967842E+04  0.95000000000E+03 0.  0.
<mgrwt>
<rscale>  0 0.22897147E+04</rscale>
<asrwt>0</asrwt>
<pdfrwt beam="2">  1        2 0.22672712E+00 0.22897147E+04</pdfrwt>
<pdfrwt beam="1">  1       -2 0.13682723E+00 0.22897147E+04</pdfrwt>
<totfact> 0.45438949E+00</totfact>
</mgrwt>
</event>
<event>
 4    1  0.2019612E-008  0.3512369E+04  0.7816531E-02  0.8110865E-01
         -2   -1    0    0    0  501 -0.00000000000E+00  0.00000000000E+00  0.22946480482E+04  0.22946480482E+04  0.00000000000E+00 0. -1.
          2   -1    0    0  501    0  0.00000000000E+00 -0.00000000000E+00 -0.13440774207E+04  0.13440774207E+04  0.00000000000E+00 0.  1.
    2000013    1    1    2    0    0  0.13562604318E+04  0.47666014915E+03  0.82665847775E+03  0.19111544928E+04  0.95000000000E+03 0.  0.
   -2000013    1    1    2    0    0 -0.13562604318E+04 -0.47666014915E+03  0.12391214984E+03  0.17275709761E+04  0.95000000000E+03 0.  0.
<mgrwt>
<rscale>  0 0.35123694E+04</rscale>
<asrwt>0</asrwt>
<pdfrwt beam="2">  1        2 0.20678114E+00 0.35123694E+04</pdfrwt>
<pdfrwt beam="1">  1       -2 0.35302278E+00 0.35123694E+04</pdfrwt>
<totfact> 0.19039066E-01</totfact>
</mgrwt>
</event>
<event>
 4    1  0.2019612E-008  0.2898538E+04  0.7816531E-02  0.8273313E-01
          2   -1    0    0  501    0  0.00000000000E+00  0.00000000000E+00  0.28267986997E+04  0.28267986997E+04  0.00000000000E+00 0.  1.
         -2   -1    0    0    0  501 -0.00000000000E+00 -0.00000000000E+00 -0.74302422983E+03  0.74302422983E+03  0.00000000000E+00 0. -1.
    2000013    1    1    2    0    0 -0.10557047370E+04  0.28864974426E+03  0.10332871913E+04  0.17798914535E+04  0.95000000000E+03 0.  0.
   -2000013    1    1    2    0    0  0.10557047370E+04 -0.28864974426E+03  0.10504872786E+04  0.17899314761E+04  0.95000000000E+03 0.  0.
<mgrwt>
<rscale>  0 0.28985375E+04</rscale>
<asrwt>0</asrwt>
<pdfrwt beam="1">  1        2 0.43489210E+00 0.28985375E+04</pdfrwt>
<pdfrwt beam="2">  1       -2 0.11431142E+00 0.28985375E+04</pdfrwt>
<totfact> 0.11499260E+00</totfact>
</mgrwt>
</event>
<event>
 4    1  0.2019612E-008  0.3075271E+04  0.7816531E-02  0.8222558E-01
          2   -1    0    0  501    0  0.00000000000E+00  0.00000000000E+00  0.30350168187E+04  0.30350168187E+04  0.00000000000E+00 0.  1.
         -2   -1    0    0    0  501 -0.00000000000E+00 -0.00000000000E+00 -0.77901466876E+03  0.77901466876E+03  0.00000000000E+00 0. -1.
    2000013    1    1    2    0    0 -0.10349268869E+04  0.82832837715E+01  0.19031973773E+04  0.23655448698E+04  0.95000000000E+03 0.  0.
   -2000013    1    1    2    0    0  0.10349268869E+04 -0.82832837715E+01  0.35280477263E+03  0.14484866177E+04  0.95000000000E+03 0.  0.
<mgrwt>
<rscale>  0 0.30752708E+04</rscale>
<asrwt>0</asrwt>
<pdfrwt beam="1">  1        2 0.46692566E+00 0.30752708E+04</pdfrwt>
<pdfrwt beam="2">  1       -2 0.11984841E+00 0.30752708E+04</pdfrwt>
<totfact> 0.74948545E-01</totfact>
</mgrwt>
</event>
<event>
 4    1  0.2019612E-008  0.3134634E+04  0.7816531E-02  0.8206297E-01
         -2   -1    0    0    0  501 -0.00000000000E+00  0.00000000000E+00  0.66661867803E+03  0.66661867803E+03  0.00000000000E+00 0. -1.
          2   -1    0    0  501    0  0.00000000000E+00 -0.00000000000E+00 -0.36849889947E+04  0.36849889947E+04  0.00000000000E+00 0.  1.
    2000013    1    1    2    0    0 -0.11737525016E+04 -0.41404802688E+03 -0.14124879706E+04  0.21087325508E+04  0.95000000000E+03 0.  0.
   -2000013    1    1    2    0    0  0.11737525016E+04  0.41404802688E+03 -0.16058823461E+04  0.22428751220E+04  0.95000000000E+03 0.  0.
<mgrwt>
<rscale>  0 0.31346339E+04</rscale>
<asrwt>0</asrwt>
<pdfrwt beam="2">  1        2 0.56692138E+00 0.31346339E+04</pdfrwt>
<pdfrwt beam="1">  1       -2 0.10255672E+00 0.31346339E+04</pdfrwt>
<totfact> 0.39377589E-01</totfact>
</mgrwt>
</event>
<event>
 4    1  0.2019612E-008  0.2114277E+04  0.7816531E-02  0.8554980E-01
         -2   -1    0    0    0  501 -0.00000000000E+00  0.00000000000E+00  0.73600153092E+03  0.73600153092E+03  0.00000000000E+00 0. -1.
          2   -1    0    0  501    0  0.00000000000E+00 -0.00000000000E+00 -0.15183963076E+04  0.15183963076E+04  0.00000000000E+00 0.  1.
    2000013    1    1    2    0    0  0.36577820173E+03  0.29504452293E+02 -0.69349637857E+03  0.12321125893E+04  0.95000000000E+03 0.  0.
   -2000013    1    1    2    0    0 -0.36577820173E+03 -0.29504452293E+02 -0.88898398065E+02  0.10222852492E+04  0.95000000000E+03 0.  0.
<mgrwt>
<rscale>  0 0.21142772E+04</rscale>
<asrwt>0</asrwt>
<pdfrwt beam="2">  1        2 0.23359943E+00 0.21142772E+04</pdfrwt>
<pdfrwt beam="1">  1       -2 0.11323101E+00 0.21142772E+04</pdfrwt>
<totfact> 0.69872086E+00</totfact>
</mgrwt>
</event>
<event>
 4    1  0.2019612E-008  0.2377956E+04  0.7816531E-02  0.8447803E-01
         -1   -1    0    0    0  501 -0.00000000000E+00  0.00000000000E+00  0.14038815251E+04  0.14038815251E+04  0.00000000000E+00 0. -1.
          1   -1    0    0  501    0  0.00000000000E+00 -0.00000000000E+00 -0.10069715691E+04  0.10069715691E+04  0.00000000000E+00 0.  1.
    2000013    1    1    2    0    0 -0.51535510058E+03  0.28034535868E+03  0.61274535436E+03  0.12736330983E+04  0.95000000000E+03 0.  0.
   -2000013    1    1    2    0    0  0.51535510058E+03 -0.28034535868E+03 -0.21583539829E+03  0.11372199959E+04  0.95000000000E+03 0.  0.
<mgrwt>
<rscale>  0 0.23779561E+04</rscale>
<asrwt>0</asrwt>
<pdfrwt beam="2">  1        1 0.15491870E+00 0.23779561E+04</pdfrwt>
<pdfrwt beam="1">  1       -1 0.21598177E+00 0.23779561E+04</pdfrwt>
<totfact> 0.15710920E+00</totfact>
</mgrwt>
</event>
<event>
 4    1  0.2019612E-008  0.2353979E+04  0.7816531E-02  0.8456937E-01
         -2   -1    0    0    0  501 -0.00000000000E+00  0.00000000000E+00  0.65163323830E+03  0.65163323830E+03  0.00000000000E+00 0. -1.
          2   -1    0    0  501    0  0.00000000000E+00 -0.00000000000E+00 -0.21258949989E+04  0.21258949989E+04  0.00000000000E+00 0.  1.
    2000013    1    1    2    0    0 -0.48454998347E+03  0.48914696495E+03 -0.62675606593E+03  0.13301791631E+04  0.95000000000E+03 0.  0.
   -2000013    1    1    2    0    0  0.48454998347E+03 -0.48914696495E+03 -0.84750569472E+03  0.14473490741E+04  0.95000000000E+03 0.  0.
<mgrwt>
<rscale>  0 0.23539786E+04</rscale>
<asrwt>0</asrwt>
<pdfrwt beam="2">  1        2 0.32706077E+00 0.23539786E+04</pdfrwt>
<pdfrwt beam="1">  1       -2 0.10025127E+00 0.23539786E+04</pdfrwt>
<totfact> 0.42115270E+00</totfact>
</mgrwt>
</event>
<event>
 4    1  0.2019612E-008  0.3410565E+04  0.7816531E-02  0.8135318E-01
          2   -1    0    0  501    0  0.00000000000E+00  0.00000000000E+00  0.15877025624E+04  0.15877025624E+04  0.00000000000E+00 0.  1.
         -2   -1    0    0    0  501 -0.00000000000E+00 -0.00000000000E+00 -0.18315701152E+04  0.18315701152E+04  0.00000000000E+00 0. -1.
    2000013    1    1    2    0    0  0.18625602112E+03 -0.12254106937E+04  0.56477185475E+03  0.16606594839E+04  0.95000000000E+03 0.  0.
   -2000013    1    1    2    0    0 -0.18625602112E+03  0.12254106937E+04 -0.80863940757E+03  0.17586131937E+04  0.95000000000E+03 0.  0.
<mgrwt>
<rscale>  0 0.34105651E+04</rscale>
<asrwt>0</asrwt>
<pdfrwt beam="1">  1        2 0.24426193E+00 0.34105651E+04</pdfrwt>
<pdfrwt beam="2">  1       -2 0.28178002E+00 0.34105651E+04</pdfrwt>
<totfact> 0.38517862E-01</totfact>
</mgrwt>
</event>
<event>
 4    1  0.2019612E-008  0.2176441E+04  0.7816531E-02  0.8528298E-01
          2   -1    0    0  501    0  0.00000000000E+00  0.00000000000E+00  0.16573977028E+04  0.16573977028E+04  0.00000000000E+00 0.  1.
         -2   -1    0    0    0  501 -0.00000000000E+00 -0.00000000000E+00 -0.71450769597E+03  0.71450769597E+03  0.00000000000E+00 0. -1.
    2000013    1    1    2    0    0  0.13588866123E+03 -0.49458370575E+03  0.62025345244E+03  0.12451076723E+04  0.95000000000E+03 0.  0.
   -2000013    1    1    2    0    0 -0.13588866123E+03  0.49458370575E+03  0.32263655440E+03  0.11267977265E+04  0.95000000000E+03 0.  0.
<mgrwt>
<rscale>  0 0.21764406E+04</rscale>
<asrwt>0</asrwt>
<pdfrwt beam="1">  1        2 0.25498426E+00 0.21764406E+04</pdfrwt>
<pdfrwt beam="2">  1       -2 0.10992426E+00 0.21764406E+04</pdfrwt>
<totfact> 0.62434060E+00</totfact>
</mgrwt>
</event>
<event>
 4    1  0.2019612E-008  0.2381396E+04  0.7816531E-02  0.8446502E-01
          2   -1    0    0  501    0  0.00000000000E+00  0.00000000000E+00  0.12791759624E+04  0.12791759624E+04  0.00000000000E+00 0.  1.
         -2   -1    0    0    0  501 -0.00000000000E+00 -0.00000000000E+00 -0.11083394499E+04  0.11083394499E+04  0.00000000000E+00 0. -1.
    2000013    1    1    2    0    0  0.21663736246E+03 -0.68030013007E+03  0.10922736353E+02  0.11884272464E+04  0.95000000000E+03 0.  0.
   -2000013    1    1    2    0    0 -0.21663736246E+03  0.68030013007E+03  0.15991377608E+03  0.11990881659E+04  0.95000000000E+03 0.  0.
<mgrwt>
<rscale>  0 0.23813955E+04</rscale>
<asrwt>0</asrwt>
<pdfrwt beam="1">  1        2 0.19679630E+00 0.23813955E+04</pdfrwt>
<pdfrwt beam="2">  1       -2 0.17051376E+00 0.23813955E+04</pdfrwt>
<totfact> 0.32363771E+00</totfact>
</mgrwt>
</event>
<event>
 4    1  0.2019612E-008  0.2271506E+04  0.7816531E-02  0.8489242E-01
          1   -1    0    0  501    0  0.00000000000E+00  0.00000000000E+00  0.17482743611E+04  0.17482743611E+04  0.00000000000E+00 0.  1.
         -1   -1    0    0    0  501 -0.00000000000E+00 -0.00000000000E+00 -0.73783289019E+03  0.73783289019E+03  0.00000000000E+00 0. -1.
    2000013    1    1    2    0    0  0.60498906884E+03 -0.31293436069E+02  0.34873265273E+03  0.11794513621E+04  0.95000000000E+03 0.  0.
   -2000013    1    1    2    0    0 -0.60498906884E+03  0.31293436069E+02  0.66170881813E+03  0.13066558891E+04  0.95000000000E+03 0.  0.
<mgrwt>
<rscale>  0 0.22715055E+04</rscale>
<asrwt>0</asrwt>
<pdfrwt beam="1">  1        1 0.26896528E+00 0.22715055E+04</pdfrwt>
<pdfrwt beam="2">  1       -1 0.11351275E+00 0.22715055E+04</pdfrwt>
<totfact> 0.28346435E+00</totfact>
</mgrwt>
</event>
<event>
 4    1  0.2019612E-008  0.2967587E+04  0.7816531E-02  0.8253048E-01
         -1   -1    0    0    0  501 -0.00000000000E+00  0.00000000000E+00  0.11348718580E+04  0.11348718580E+04  0.00000000000E+00 0. -1.
          1   -1    0    0  501    0  0.00000000000E+00 -0.00000000000E+00 -0.19399931524E+04  0.19399931524E+04  0.00000000000E+00 0.  1.
    2000013    1    1    2    0    0 -0.99026078747E+03  0.44083614622E+03 -0.76770709612E+03  0.16330422899E+04  0.95000000000E+03 0.  0.
   -2000013    1    1    2    0    0  0.99026078747E+03 -0.44083614622E+03 -0.37414198283E+02  0.14418227205E+04  0.95000000000E+03 0.  0.
<mgrwt>
<rscale>  0 0.29675873E+04</rscale>
<asrwt>0</asrwt>
<pdfrwt beam="2">  1        1 0.29846048E+00 0.29675873E+04</pdfrwt>
<pdfrwt beam="1">  1       -1 0.17459567E+00 0.29675873E+04</pdfrwt>
<totfact> 0.63609448E-01</totfact>
</mgrwt>
</event>
<event>
 4    1  0.2019612E-008  0.2639749E+04  0.7816531E-02  0.8354823E-01
          2   -1    0    0  501    0  0.00000000000E+00  0.00000000000E+00  0.11775828195E+04  0.11775828195E+04  0.00000000000E+00 0.  1.
         -2   -1    0    0    0  501 -0.00000000000E+00 -0.00000000000E+00 -0.14793600288E+04  0.14793600288E+04  0.00000000000E+00 0. -1.
    2000013    1    1    2    0    0  0.67352937542E+03  0.42446274280E+03  0.30567202038E+03  0.12766149864E+04  0.95000000000E+03 0.  0.
   -2000013    1    1    2    0    0 -0.67352937542E+03 -0.42446274280E+03 -0.60744922973E+03  0.13803278619E+04  0.95000000000E+03 0.  0.
<mgrwt>
<rscale>  0 0.26397492E+04</rscale>
<asrwt>0</asrwt>
<pdfrwt beam="1">  1        2 0.18116659E+00 0.26397492E+04</pdfrwt>
<pdfrwt beam="2">  1       -2 0.22759385E+00 0.26397492E+04</pdfrwt>
<totfact> 0.15247068E+00</totfact>
</mgrwt>
</event>
<event>
 4    1  0.2019612E-008  0.2133581E+04  0.7816531E-02  0.8546593E-01
          2   -1    0    0  501    0  0.00000000000E+00  0.00000000000E+00  0.19584021075E+04  0.19584021075E+04  0.00000000000E+00 0.  1.
         -2   -1    0    0    0  501 -0.00000000000E+00 -0.00000000000E+00 -0.58110714447E+03  0.58110714447E+03  0.00000000000E+00 0. -1.
    2000013    1    1    2    0    0 -0.81697567445E+02  0.47587305479E+03  0.63019386644E+03  0.12380524892E+04  0.95000000000E+03 0.  0.
   -2000013    1    1    2    0    0  0.81697567445E+02 -0.47587305479E+03  0.74710109664E+03  0.13014567628E+04  0.95000000000E+03 0.  0.
<mgrwt>
<rscale>  0 0.21335805E+04</rscale>
<asrwt>0</asrwt>
<pdfrwt beam="1">  1        2 0.30129263E+00 0.21335805E+04</pdfrwt>
<pdfrwt beam="2">  1       -2 0.89401100E-01 0.21335805E+04</pdfrwt>
<totfact> 0.69498705E+00</totfact>
</mgrwt>
</event>
<event>
 4    1  0.2019612E-008  0.1950927E+04  0.7816531E-02  0.8629914E-01
         -2   -1    0    0    0  501 -0.00000000000E+00  0.00000000000E+00  0.24160090090E+03  0.24160090090E+03  0.00000000000E+00 0. -1.
          2   -1    0    0  501    0  0.00000000000E+00 -0.00000000000E+00 -0.39384321639E+04  0.39384321639E+04  0.00000000000E+00 0.  1.
    2000013    1    1    2    0    0 -0.19802367792E+03  0.17764381704E+02 -0.16395840436E+04  0.19053253754E+04  0.95000000000E+03 0.  0.
   -2000013    1    1    2    0    0  0.19802367792E+03 -0.17764381704E+02 -0.20572472194E+04  0.22747076893E+04  0.95000000000E+03 0.  0.
<mgrwt>
<rscale>  0 0.19509267E+04</rscale>
<asrwt>0</asrwt>
<pdfrwt beam="2">  1        2 0.60591260E+00 0.19509267E+04</pdfrwt>
<pdfrwt beam="1">  1       -2 0.37169372E-01 0.19509267E+04</pdfrwt>
<totfact> 0.24659444E+00</totfact>
</mgrwt>
</event>
<event>
 4    1  0.2019612E-008  0.2881085E+04  0.7816531E-02  0.8278528E-01
          2   -1    0    0  501    0  0.00000000000E+00  0.00000000000E+00  0.19813219148E+04  0.19813219148E+04  0.00000000000E+00 0.  1.
         -2   -1    0    0    0  501 -0.00000000000E+00 -0.00000000000E+00 -0.10473626919E+04  0.10473626919E+04  0.00000000000E+00 0. -1.
    2000013    1    1    2    0    0  0.29831858581E+03  0.10391454701E+04  0.53216750018E+03  0.15344443734E+04  0.95000000000E+03 0.  0.
   -2000013    1    1    2    0    0 -0.29831858581E+03 -0.10391454701E+04  0.40179172273E+03  0.14942402334E+04  0.95000000000E+03 0.  0.
<mgrwt>
<rscale>  0 0.28810850E+04</rscale>
<asrwt>0</asrwt>
<pdfrwt beam="1">  1        2 0.30481876E+00 0.28810850E+04</pdfrwt>
<pdfrwt beam="2">  1       -2 0.16113272E+00 0.28810850E+04</pdfrwt>
<totfact> 0.14616873E+00</totfact>
</mgrwt>
</event>
<event>
 4    1  0.2019612E-008  0.2099947E+04  0.7816531E-02  0.8561267E-01
          2   -1    0    0  501    0  0.00000000000E+00  0.00000000000E+00  0.22944807785E+04  0.22944807785E+04  0.00000000000E+00 0.  1.
         -2   -1    0    0    0  501 -0.00000000000E+00 -0.00000000000E+00 -0.48047667329E+03  0.48047667329E+03  0.00000000000E+00 0. -1.
    2000013    1    1    2    0    0  0.19504245384E+03  0.31151426181E+03  0.57045758461E+03  0.11674778584E+04  0.95000000000E+03 0.  0.
   -2000013    1    1    2    0    0 -0.19504245384E+03 -0.31151426181E+03  0.12435465206E+04  0.16074795933E+04  0.95000000000E+03 0.  0.
<mgrwt>
<rscale>  0 0.20999471E+04</rscale>
<asrwt>0</asrwt>
<pdfrwt beam="1">  1        2 0.35299704E+00 0.20999471E+04</pdfrwt>
<pdfrwt beam="2">  1       -2 0.73919490E-01 0.20999471E+04</pdfrwt>
<totfact> 0.69394039E+00</totfact>
</mgrwt>
</event>
<event>
 4    1  0.2019612E-008  0.2338207E+04  0.7816531E-02  0.8463007E-01
          2   -1    0    0  501    0  0.00000000000E+00  0.00000000000E+00  0.30248359975E+04  0.30248359975E+04  0.00000000000E+00 0.  1.
         -2   -1    0    0    0  501 -0.00000000000E+00 -0.00000000000E+00 -0.45186031925E+03  0.45186031925E+03  0.00000000000E+00 0. -1.
    2000013    1    1    2    0    0  0.67072375728E+03 -0.10883834235E+03  0.13621188845E+04  0.17943199266E+04  0.95000000000E+03 0.  0.
   -2000013    1    1    2    0    0 -0.67072375728E+03  0.10883834235E+03  0.12108567938E+04  0.16823763902E+04  0.95000000000E+03 0.  0.
<mgrwt>
<rscale>  0 0.23382073E+04</rscale>
<asrwt>0</asrwt>
<pdfrwt beam="1">  1        2 0.46535937E+00 0.23382073E+04</pdfrwt>
<pdfrwt beam="2">  1       -2 0.69516974E-01 0.23382073E+04</pdfrwt>
<totfact> 0.28670552E+00</totfact>
</mgrwt>
</event>
<event>
 4    1  0.2019612E-008  0.3407974E+04  0.7816531E-02  0.8135952E-01
          2   -1    0    0  501    0  0.00000000000E+00  0.00000000000E+00  0.16728010026E+04  0.16728010026E+04  0.00000000000E+00 0.  1.
         -2   -1    0    0    0  501 -0.00000000000E+00 -0.00000000000E+00 -0.17357545228E+04  0.17357545228E+04  0.00000000000E+00 0. -1.
    2000013    1    1    2    0    0  0.47441327024E+02 -0.14058219749E+04 -0.18145500577E+03  0.17070477509E+04  0.95000000000E+03 0.  0.
   -2000013    1    1    2    0    0 -0.47441327024E+02  0.14058219749E+04  0.11850148562E+03  0.17015077745E+04  0.95000000000E+03 0.  0.
<mgrwt>
<rscale>  0 0.34079741E+04</rscale>
<asrwt>0</asrwt>
<pdfrwt beam="1">  1        2 0.25735400E+00 0.34079741E+04</pdfrwt>
<pdfrwt beam="2">  1       -2 0.26703916E+00 0.34079741E+04</pdfrwt>
<totfact> 0.42481927E-01</totfact>
</mgrwt>
</event>
<event>
 4    1  0.2019612E-008  0.2035767E+04  0.7816531E-02  0.8590079E-01
         -2   -1    0    0    0  501 -0.00000000000E+00  0.00000000000E+00  0.21907323635E+04  0.21907323635E+04  0.00000000000E+00 0. -1.
          2   -1    0    0  501    0  0.00000000000E+00 -0.00000000000E+00 -0.47294068239E+03  0.47294068239E+03  0.00000000000E+00 0.  1.
    2000013    1    1    2    0    0 -0.27692769372E+03  0.21193668191E+03  0.10021105912E+04  0.14241951206E+04  0.95000000000E+03 0.  0.
   -2000013    1    1    2    0    0  0.27692769372E+03 -0.21193668191E+03  0.71568108994E+03  0.12394779252E+04  0.95000000000E+03 0.  0.
<mgrwt>
<rscale>  0 0.20357666E+04</rscale>
<asrwt>0</asrwt>
<pdfrwt beam="2">  1        2 0.72760106E-01 0.20357666E+04</pdfrwt>
<pdfrwt beam="1">  1       -2 0.33703574E+00 0.20357666E+04</pdfrwt>
<totfact> 0.11439802E+00</totfact>
</mgrwt>
</event>
<event>
 4    1  0.2019612E-008  0.2418843E+04  0.7816531E-02  0.8432483E-01
         -2   -1    0    0    0  501 -0.00000000000E+00  0.00000000000E+00  0.12537246150E+04  0.12537246150E+04  0.00000000000E+00 0. -1.
          2   -1    0    0  501    0  0.00000000000E+00 -0.00000000000E+00 -0.11666835767E+04  0.11666835767E+04  0.00000000000E+00 0.  1.
    2000013    1    1    2    0    0 -0.59481482133E+03 -0.43213453900E+03  0.18380750233E+03  0.12152489989E+04  0.95000000000E+03 0.  0.
   -2000013    1    1    2    0    0  0.59481482133E+03  0.43213453900E+03 -0.96766463977E+02  0.12051591928E+04  0.95000000000E+03 0.  0.
<mgrwt>
<rscale>  0 0.24188426E+04</rscale>
<asrwt>0</asrwt>
<pdfrwt beam="2">  1        2 0.17948978E+00 0.24188426E+04</pdfrwt>
<pdfrwt beam="1">  1       -2 0.19288071E+00 0.24188426E+04</pdfrwt>
<totfact> 0.26403105E+00</totfact>
</mgrwt>
</event>
<event>
 4    1  0.2019612E-008  0.2182868E+04  0.7816531E-02  0.8525593E-01
         -2   -1    0    0    0  501 -0.00000000000E+00  0.00000000000E+00  0.50795876345E+03  0.50795876345E+03  0.00000000000E+00 0. -1.
          2   -1    0    0  501    0  0.00000000000E+00 -0.00000000000E+00 -0.23451273931E+04  0.23451273931E+04  0.00000000000E+00 0.  1.
    2000013    1    1    2    0    0  0.43997715561E+03  0.30621688548E+03 -0.87004184164E+03  0.13952854492E+04  0.95000000000E+03 0.  0.
   -2000013    1    1    2    0    0 -0.43997715561E+03 -0.30621688548E+03 -0.96712678799E+03  0.14578007074E+04  0.95000000000E+03 0.  0.
<mgrwt>
<rscale>  0 0.21828678E+04</rscale>
<asrwt>0</asrwt>
<pdfrwt beam="2">  1        2 0.36078884E+00 0.21828678E+04</pdfrwt>
<pdfrwt beam="1">  1       -2 0.78147500E-01 0.21828678E+04</pdfrwt>
<totfact> 0.56987159E+00</totfact>
</mgrwt>
</event>
<event>
 4    1  0.2019612E-008  0.2634639E+04  0.7816531E-02  0.8356529E-01
         -2   -1    0    0    0  501 -0.00000000000E+00  0.00000000000E+00  0.49784563116E+03  0.49784563116E+03  0.00000000000E+00 0. -1.
          2   -1    0    0  501    0  0.00000000000E+00 -0.00000000000E+00 -0.34856811368E+04  0.34856811368E+04  0.00000000000E+00 0.  1.
    2000013    1    1    2    0    0  0.30429789558E+03  0.77771296659E+03 -0.93756503061E+03  0.15744722463E+04  0.95000000000E+03 0.  0.
   -2000013    1    1    2    0    0 -0.30429789558E+03 -0.77771296659E+03 -0.20502704750E+04  0.24090545217E+04  0.95000000000E+03 0.  0.
<mgrwt>
<rscale>  0 0.26346393E+04</rscale>
<asrwt>0</asrwt>
<pdfrwt beam="2">  1        2 0.53625864E+00 0.26346393E+04</pdfrwt>
<pdfrwt beam="1">  1       -2 0.76591636E-01 0.26346393E+04</pdfrwt>
<totfact> 0.11188170E+00</totfact>
</mgrwt>
</event>
<event>
 4    1  0.2019612E-008  0.3520037E+04  0.7816531E-02  0.8109058E-01
         -2   -1    0    0    0  501 -0.00000000000E+00  0.00000000000E+00  0.10364308473E+04  0.10364308473E+04  0.00000000000E+00 0. -1.
          2   -1    0    0  501    0  0.00000000000E+00 -0.00000000000E+00 -0.29887817914E+04  0.29887817914E+04  0.00000000000E+00 0.  1.
    2000013    1    1    2    0    0 -0.10278816731E+04  0.99438611915E+03 -0.14187925179E+04  0.22272890914E+04  0.95000000000E+03 0.  0.
   -2000013    1    1    2    0    0  0.10278816731E+04 -0.99438611915E+03 -0.53355842617E+03  0.17979235473E+04  0.95000000000E+03 0.  0.
<mgrwt>
<rscale>  0 0.35200373E+04</rscale>
<asrwt>0</asrwt>
<pdfrwt beam="2">  1        2 0.45981257E+00 0.35200373E+04</pdfrwt>
<pdfrwt beam="1">  1       -2 0.15945091E+00 0.35200373E+04</pdfrwt>
<totfact> 0.36885678E-01</totfact>
</mgrwt>
</event>
<event>
 4    1  0.2019612E-008  0.2015506E+04  0.7816531E-02  0.8599405E-01
         -2   -1    0    0    0  501 -0.00000000000E+00  0.00000000000E+00  0.26356959632E+03  0.26356959632E+03  0.00000000000E+00 0. -1.
          2   -1    0    0  501    0  0.00000000000E+00 -0.00000000000E+00 -0.38531212229E+04  0.38531212229E+04  0.00000000000E+00 0.  1.
    2000013    1    1    2    0    0 -0.29148604862E+02 -0.32561827831E+03 -0.16340950032E+04  0.19182396576E+04  0.95000000000E+03 0.  0.
   -2000013    1    1    2    0    0  0.29148604862E+02  0.32561827831E+03 -0.19554566234E+04  0.21984511617E+04  0.95000000000E+03 0.  0.
<mgrwt>
<rscale>  0 0.20155055E+04</rscale>
<asrwt>0</asrwt>
<pdfrwt beam="2">  1        2 0.59278781E+00 0.20155055E+04</pdfrwt>
<pdfrwt beam="1">  1       -2 0.40549174E-01 0.20155055E+04</pdfrwt>
<totfact> 0.24098220E+00</totfact>
</mgrwt>
</event>
<event>
 4    1  0.2019612E-008  0.2275518E+04  0.7816531E-02  0.8487637E-01
          2   -1    0    0  501    0  0.00000000000E+00  0.00000000000E+00  0.27258828104E+04  0.27258828104E+04  0.00000000000E+00 0.  1.
         -2   -1    0    0    0  501 -0.00000000000E+00 -0.00000000000E+00 -0.47489044116E+03  0.47489044116E+03  0.00000000000E+00 0. -1.
    2000013    1    1    2    0    0 -0.47008144120E+03 -0.40716824927E+03  0.12272512473E+04  0.16719474180E+04  0.95000000000E+03 0.  0.
   -2000013    1    1    2    0    0  0.47008144120E+03  0.40716824927E+03  0.10237411220E+04  0.15288258336E+04  0.95000000000E+03 0.  0.
<mgrwt>
<rscale>  0 0.22755181E+04</rscale>
<asrwt>0</asrwt>
<pdfrwt beam="1">  1        2 0.41936658E+00 0.22755181E+04</pdfrwt>
<pdfrwt beam="2">  1       -2 0.73060069E-01 0.22755181E+04</pdfrwt>
<totfact> 0.39404290E+00</totfact>
</mgrwt>
</event>
<event>
 4    1  0.2019612E-008  0.2581654E+04  0.7816531E-02  0.8374460E-01
          2   -1    0    0  501    0  0.00000000000E+00  0.00000000000E+00  0.30415293802E+04  0.30415293802E+04  0.00000000000E+00 0.  1.
         -2   -1    0    0    0  501 -0.00000000000E+00 -0.00000000000E+00 -0.54782773730E+03  0.54782773730E+03  0.00000000000E+00 0. -1.
    2000013    1    1    2    0    0  0.32221166877E+03 -0.80060284475E+03  0.14382369571E+04  0.19276438518E+04  0.95000000000E+03 0.  0.
   -2000013    1    1    2    0    0 -0.32221166877E+03  0.80060284475E+03  0.10554646858E+04  0.16617132657E+04  0.95000000000E+03 0.  0.
<mgrwt>
<rscale>  0 0.25816539E+04</rscale>
<asrwt>0</asrwt>
<pdfrwt beam="1">  1        2 0.46792759E+00 0.25816539E+04</pdfrwt>
<pdfrwt beam="2">  1       -2 0.84281192E-01 0.25816539E+04</pdfrwt>
<totfact> 0.17841030E+00</totfact>
</mgrwt>
</event>
<event>
 4    1  0.2019612E-008  0.2214137E+04  0.7816531E-02  0.8512567E-01
         -2   -1    0    0    0  501 -0.00000000000E+00  0.00000000000E+00  0.45648704701E+03  0.45648704701E+03  0.00000000000E+00 0. -1.
          2   -1    0    0  501    0  0.00000000000E+00 -0.00000000000E+00 -0.26848539853E+04  0.26848539853E+04  0.00000000000E+00 0.  1.
    2000013    1    1    2    0    0  0.21633942816E+03  0.52470558238E+03 -0.11586515419E+04  0.16022147459E+04  0.95000000000E+03 0.  0.
   -2000013    1    1    2    0    0 -0.21633942816E+03 -0.52470558238E+03 -0.10697153964E+04  0.15391262865E+04  0.95000000000E+03 0.  0.
<mgrwt>
<rscale>  0 0.22141374E+04</rscale>
<asrwt>0</asrwt>
<pdfrwt beam="2">  1        2 0.41305446E+00 0.22141374E+04</pdfrwt>
<pdfrwt beam="1">  1       -2 0.70228776E-01 0.22141374E+04</pdfrwt>
<totfact> 0.45703054E+00</totfact>
</mgrwt>
</event>
<event>
 4    1  0.2019612E-008  0.2824771E+04  0.7816531E-02  0.8295619E-01
         -2   -1    0    0    0  501 -0.00000000000E+00  0.00000000000E+00  0.37193367772E+03  0.37193367772E+03  0.00000000000E+00 0. -1.
          2   -1    0    0  501    0  0.00000000000E+00 -0.00000000000E+00 -0.53634116881E+04  0.53634116881E+04  0.00000000000E+00 0.  1.
    2000013    1    1    2    0    0 -0.73377169124E+03  0.26855209143E+03 -0.39050479019E+04  0.40941959207E+04  0.95000000000E+03 0.  0.
   -2000013    1    1    2    0    0  0.73377169124E+03 -0.26855209143E+03 -0.10864301084E+04  0.16411494451E+04  0.95000000000E+03 0.  0.
<mgrwt>
<rscale>  0 0.28247714E+04</rscale>
<asrwt>0</asrwt>
<pdfrwt beam="2">  1        2 0.82514019E+00 0.28247714E+04</pdfrwt>
<pdfrwt beam="1">  1       -2 0.57220570E-01 0.28247714E+04</pdfrwt>
<totfact> 0.25792097E-02</totfact>
</mgrwt>
</event>
<event>
 4    1  0.2019612E-008  0.2306700E+04  0.7816531E-02  0.8475284E-01
          2   -1    0    0  501    0  0.00000000000E+00  0.00000000000E+00  0.27689554075E+04  0.27689554075E+04  0.00000000000E+00 0.  1.
         -2   -1    0    0    0  501 -0.00000000000E+00 -0.00000000000E+00 -0.48040343670E+03  0.48040343670E+03  0.00000000000E+00 0. -1.
    2000013    1    1    2    0    0  0.15607256426E+03 -0.20294395428E+03  0.29653464476E+03  0.10276077508E+04  0.95000000000E+03 0.  0.
   -2000013    1    1    2    0    0 -0.15607256426E+03  0.20294395428E+03  0.19920173260E+04  0.22217510934E+04  0.95000000000E+03 0.  0.
<mgrwt>
<rscale>  0 0.23066995E+04</rscale>
<asrwt>0</asrwt>
<pdfrwt beam="1">  1        2 0.42599313E+00 0.23066995E+04</pdfrwt>
<pdfrwt beam="2">  1       -2 0.73908222E-01 0.23066995E+04</pdfrwt>
<totfact> 0.36099159E+00</totfact>
</mgrwt>
</event>
<event>
 4    1  0.2019612E-008  0.2076344E+04  0.7816531E-02  0.8571736E-01
         -2   -1    0    0    0  501 -0.00000000000E+00  0.00000000000E+00  0.62642954372E+03  0.62642954372E+03  0.00000000000E+00 0. -1.
          2   -1    0    0  501    0  0.00000000000E+00 -0.00000000000E+00 -0.17205459850E+04  0.17205459850E+04  0.00000000000E+00 0.  1.
    2000013    1    1    2    0    0  0.18083026647E+03 -0.26081169653E+03 -0.85574367022E+03  0.13173911930E+04  0.95000000000E+03 0.  0.
   -2000013    1    1    2    0    0 -0.18083026647E+03  0.26081169653E+03 -0.23837277105E+03  0.10295843357E+04  0.95000000000E+03 0.  0.
<mgrwt>
<rscale>  0 0.20763437E+04</rscale>
<asrwt>0</asrwt>
<pdfrwt beam="2">  1        2 0.26469938E+00 0.20763437E+04</pdfrwt>
<pdfrwt beam="1">  1       -2 0.96373776E-01 0.20763437E+04</pdfrwt>
<totfact> 0.79482439E+00</totfact>
</mgrwt>
</event>
<event>
 4    1  0.2019612E-008  0.3693524E+04  0.7816531E-02  0.8069398E-01
          2   -1    0    0  501    0  0.00000000000E+00  0.00000000000E+00  0.13305230321E+04  0.13305230321E+04  0.00000000000E+00 0.  1.
         -2   -1    0    0    0  501 -0.00000000000E+00 -0.00000000000E+00 -0.25633003237E+04  0.25633003237E+04  0.00000000000E+00 0. -1.
    2000013    1    1    2    0    0  0.21085627192E+03 -0.14782246484E+04 -0.60117159198E+02  0.17707971514E+04  0.95000000000E+03 0.  0.
   -2000013    1    1    2    0    0 -0.21085627192E+03  0.14782246484E+04 -0.11726601324E+04  0.21230262044E+04  0.95000000000E+03 0.  0.
<mgrwt>
<rscale>  0 0.36935241E+04</rscale>
<asrwt>0</asrwt>
<pdfrwt beam="1">  1        2 0.20469585E+00 0.36935241E+04</pdfrwt>
<pdfrwt beam="2">  1       -2 0.39435390E+00 0.36935241E+04</pdfrwt>
<totfact> 0.10363539E-01</totfact>
</mgrwt>
</event>
<event>
 4    1  0.2019612E-008  0.2075803E+04  0.7816531E-02  0.8571978E-01
         -2   -1    0    0    0  501 -0.00000000000E+00  0.00000000000E+00  0.23769989498E+03  0.23769989498E+03  0.00000000000E+00 0. -1.
          2   -1    0    0  501    0  0.00000000000E+00 -0.00000000000E+00 -0.45319307934E+04  0.45319307934E+04  0.00000000000E+00 0.  1.
    2000013    1    1    2    0    0  0.26025734938E+03 -0.10553114528E+03 -0.14356772338E+04  0.17442877716E+04  0.95000000000E+03 0.  0.
   -2000013    1    1    2    0    0 -0.26025734938E+03  0.10553114528E+03 -0.28585536646E+04  0.30253429168E+04  0.95000000000E+03 0.  0.
<mgrwt>
<rscale>  0 0.20758030E+04</rscale>
<asrwt>0</asrwt>
<pdfrwt beam="2">  1        2 0.69722008E+00 0.20758030E+04</pdfrwt>
<pdfrwt beam="1">  1       -2 0.36569217E-01 0.20758030E+04</pdfrwt>
<totfact> 0.75552052E-01</totfact>
</mgrwt>
</event>
<event>
 4    1  0.2019612E-008  0.2738455E+04  0.7816531E-02  0.8322635E-01
          2   -1    0    0  501    0  0.00000000000E+00  0.00000000000E+00  0.11602057044E+04  0.11602057044E+04  0.00000000000E+00 0.  1.
         -2   -1    0    0    0  501 -0.00000000000E+00 -0.00000000000E+00 -0.16159062005E+04  0.16159062005E+04  0.00000000000E+00 0. -1.
    2000013    1    1    2    0    0  0.19298113525E+03  0.74739889610E+03 -0.84983167471E+03  0.14901545906E+04  0.95000000000E+03 0.  0.
   -2000013    1    1    2    0    0 -0.19298113525E+03 -0.74739889610E+03  0.39413117864E+03  0.12859573144E+04  0.95000000000E+03 0.  0.
<mgrwt>
<rscale>  0 0.27384547E+04</rscale>
<asrwt>0</asrwt>
<pdfrwt beam="1">  1        2 0.17849319E+00 0.27384547E+04</pdfrwt>
<pdfrwt beam="2">  1       -2 0.24860095E+00 0.27384547E+04</pdfrwt>
<totfact> 0.11473419E+00</totfact>
</mgrwt>
</event>
<event>
 4    1  0.2019612E-008  0.3672226E+04  0.7816531E-02  0.8074145E-01
         -2   -1    0    0    0  501 -0.00000000000E+00  0.00000000000E+00  0.18999757342E+04  0.18999757342E+04  0.00000000000E+00 0. -1.
          2   -1    0    0  501    0  0.00000000000E+00 -0.00000000000E+00 -0.17743967021E+04  0.17743967021E+04  0.00000000000E+00 0.  1.
    2000013    1    1    2    0    0 -0.13305890059E+04  0.83433416906E+03  0.11004072119E+03  0.18388011227E+04  0.95000000000E+03 0.  0.
   -2000013    1    1    2    0    0  0.13305890059E+04 -0.83433416906E+03  0.15538310929E+02  0.18355713137E+04  0.95000000000E+03 0.  0.
<mgrwt>
<rscale>  0 0.36722259E+04</rscale>
<asrwt>0</asrwt>
<pdfrwt beam="2">  1        2 0.27298411E+00 0.36722259E+04</pdfrwt>
<pdfrwt beam="1">  1       -2 0.29230396E+00 0.36722259E+04</pdfrwt>
<totfact> 0.25588847E-01</totfact>
</mgrwt>
</event>
<event>
 4    1  0.2019612E-008  0.2363639E+04  0.7816531E-02  0.8453243E-01
         -2   -1    0    0    0  501 -0.00000000000E+00  0.00000000000E+00  0.86759164236E+03  0.86759164236E+03  0.00000000000E+00 0. -1.
          2   -1    0    0  501    0  0.00000000000E+00 -0.00000000000E+00 -0.16098562283E+04  0.16098562283E+04  0.00000000000E+00 0.  1.
    2000013    1    1    2    0    0 -0.43157127360E+00 -0.59749712515E+03  0.17100433562E+02  0.11224060877E+04  0.95000000000E+03 0.  0.
   -2000013    1    1    2    0    0  0.43157127360E+00  0.59749712515E+03 -0.75936501953E+03  0.13550417830E+04  0.95000000000E+03 0.  0.
<mgrwt>
<rscale>  0 0.23636394E+04</rscale>
<asrwt>0</asrwt>
<pdfrwt beam="2">  1        2 0.24767019E+00 0.23636394E+04</pdfrwt>
<pdfrwt beam="1">  1       -2 0.13347564E+00 0.23636394E+04</pdfrwt>
<totfact> 0.40338971E+00</totfact>
</mgrwt>
</event>
<event>
 4    1  0.2019612E-008  0.2436843E+04  0.7816531E-02  0.8425838E-01
         -2   -1    0    0    0  501 -0.00000000000E+00  0.00000000000E+00  0.61056949155E+03  0.61056949155E+03  0.00000000000E+00 0. -1.
          2   -1    0    0  501    0  0.00000000000E+00 -0.00000000000E+00 -0.24314200543E+04  0.24314200543E+04  0.00000000000E+00 0.  1.
    2000013    1    1    2    0    0  0.31149088341E+03  0.64193153095E+03 -0.12475864882E+04  0.17228101191E+04  0.95000000000E+03 0.  0.
   -2000013    1    1    2    0    0 -0.31149088341E+03 -0.64193153095E+03 -0.57326407461E+03  0.13191794268E+04  0.95000000000E+03 0.  0.
<mgrwt>
<rscale>  0 0.24368430E+04</rscale>
<asrwt>0</asrwt>
<pdfrwt beam="2">  1        2 0.37406463E+00 0.24368430E+04</pdfrwt>
<pdfrwt beam="1">  1       -2 0.93933767E-01 0.24368430E+04</pdfrwt>
<totfact> 0.32711870E+00</totfact>
</mgrwt>
</event>
<event>
 4    1  0.2019612E-008  0.2842486E+04  0.7816531E-02  0.8290198E-01
         -2   -1    0    0    0  501 -0.00000000000E+00  0.00000000000E+00  0.14901629674E+04  0.14901629674E+04  0.00000000000E+00 0. -1.
          2   -1    0    0  501    0  0.00000000000E+00 -0.00000000000E+00 -0.13555105945E+04  0.13555105945E+04  0.00000000000E+00 0.  1.
    2000013    1    1    2    0    0 -0.63896234416E+03  0.81724418075E+03  0.27070606511E+03  0.14324603666E+04  0.95000000000E+03 0.  0.
   -2000013    1    1    2    0    0  0.63896234416E+03 -0.81724418075E+03 -0.13605369220E+03  0.14132131953E+04  0.95000000000E+03 0.  0.
<mgrwt>
<rscale>  0 0.28424860E+04</rscale>
<asrwt>0</asrwt>
<pdfrwt beam="2">  1        2 0.20854009E+00 0.28424860E+04</pdfrwt>
<pdfrwt beam="1">  1       -2 0.22925584E+00 0.28424860E+04</pdfrwt>
<totfact> 0.11502813E+00</totfact>
</mgrwt>
</event>
<event>
 4    1  0.2019612E-008  0.2845372E+04  0.7816531E-02  0.8289319E-01
         -2   -1    0    0    0  501 -0.00000000000E+00  0.00000000000E+00  0.12312362612E+04  0.12312362612E+04  0.00000000000E+00 0. -1.
          2   -1    0    0  501    0  0.00000000000E+00 -0.00000000000E+00 -0.16439048874E+04  0.16439048874E+04  0.00000000000E+00 0.  1.
    2000013    1    1    2    0    0  0.56968993958E+03 -0.85792954603E+03  0.43120115822E+02  0.14017664134E+04  0.95000000000E+03 0.  0.
   -2000013    1    1    2    0    0 -0.56968993958E+03  0.85792954603E+03 -0.45578874194E+03  0.14733747353E+04  0.95000000000E+03 0.  0.
<mgrwt>
<rscale>  0 0.28453719E+04</rscale>
<asrwt>0</asrwt>
<pdfrwt beam="2">  1        2 0.25290844E+00 0.28453719E+04</pdfrwt>
<pdfrwt beam="1">  1       -2 0.18942096E+00 0.28453719E+04</pdfrwt>
<totfact> 0.14291327E+00</totfact>
</mgrwt>
</event>
<event>
 4    1  0.2019612E-008  0.2655399E+04  0.7816531E-02  0.8349623E-01
         -2   -1    0    0    0  501 -0.00000000000E+00  0.00000000000E+00  0.13763835378E+04  0.13763835378E+04  0.00000000000E+00 0. -1.
          2   -1    0    0  501    0  0.00000000000E+00 -0.00000000000E+00 -0.12807372146E+04  0.12807372146E+04  0.00000000000E+00 0.  1.
    2000013    1    1    2    0    0 -0.79757928619E+03 -0.41151271350E+03 -0.18644441734E+03  0.13201276271E+04  0.95000000000E+03 0.  0.
   -2000013    1    1    2    0    0  0.79757928619E+03  0.41151271350E+03  0.28209074049E+03  0.13369931253E+04  0.95000000000E+03 0.  0.
<mgrwt>
<rscale>  0 0.26553987E+04</rscale>
<asrwt>0</asrwt>
<pdfrwt beam="2">  1        2 0.19703649E+00 0.26553987E+04</pdfrwt>
<pdfrwt beam="1">  1       -2 0.21175131E+00 0.26553987E+04</pdfrwt>
<totfact> 0.16668577E+00</totfact>
</mgrwt>
</event>
<event>
 4    1  0.2019612E-008  0.4051693E+04  0.7816531E-02  0.7994199E-01
          2   -1    0    0  501    0  0.00000000000E+00  0.00000000000E+00  0.20937505752E+04  0.20937505752E+04  0.00000000000E+00 0.  1.
         -2   -1    0    0    0  501 -0.00000000000E+00 -0.00000000000E+00 -0.19601449129E+04  0.19601449129E+04  0.00000000000E+00 0. -1.
    2000013    1    1    2    0    0 -0.83709811213E+03 -0.14002911358E+04  0.80205327137E+03  0.20511796520E+04  0.95000000000E+03 0.  0.
   -2000013    1    1    2    0    0  0.83709811213E+03  0.14002911358E+04 -0.66844760905E+03  0.20027158362E+04  0.95000000000E+03 0.  0.
<mgrwt>
<rscale>  0 0.40516932E+04</rscale>
<asrwt>0</asrwt>
<pdfrwt beam="1">  1        2 0.32211547E+00 0.40516932E+04</pdfrwt>
<pdfrwt beam="2">  1       -2 0.30156076E+00 0.40516932E+04</pdfrwt>
<totfact> 0.14468577E-01</totfact>
</mgrwt>
</event>
<event>
 4    1  0.2019612E-008  0.3147989E+04  0.7816531E-02  0.8202690E-01
          2   -1    0    0  501    0  0.00000000000E+00  0.00000000000E+00  0.27235153298E+04  0.27235153298E+04  0.00000000000E+00 0.  1.
         -2   -1    0    0    0  501 -0.00000000000E+00 -0.00000000000E+00 -0.90965495363E+03  0.90965495363E+03  0.00000000000E+00 0. -1.
    2000013    1    1    2    0    0 -0.47967388475E+03  0.11568772045E+04  0.10000309456E+04  0.18630656978E+04  0.95000000000E+03 0.  0.
   -2000013    1    1    2    0    0  0.47967388475E+03 -0.11568772045E+04  0.81382943062E+03  0.17701045857E+04  0.95000000000E+03 0.  0.
<mgrwt>
<rscale>  0 0.31479893E+04</rscale>
<asrwt>0</asrwt>
<pdfrwt beam="1">  1        2 0.41900236E+00 0.31479893E+04</pdfrwt>
<pdfrwt beam="2">  1       -2 0.13994692E+00 0.31479893E+04</pdfrwt>
<totfact> 0.78135743E-01</totfact>
</mgrwt>
</event>
<event>
 4    1  0.2019612E-008  0.2564871E+04  0.7816531E-02  0.8380233E-01
         -2   -1    0    0    0  501 -0.00000000000E+00  0.00000000000E+00  0.71927059992E+03  0.71927059992E+03  0.00000000000E+00 0. -1.
          2   -1    0    0  501    0  0.00000000000E+00 -0.00000000000E+00 -0.22865390373E+04  0.22865390373E+04  0.00000000000E+00 0.  1.
    2000013    1    1    2    0    0 -0.29334158009E+01  0.77014366540E+03 -0.33125322183E+03  0.12670274532E+04  0.95000000000E+03 0.  0.
   -2000013    1    1    2    0    0  0.29334158009E+01 -0.77014366540E+03 -0.12360152156E+04  0.17387821840E+04  0.95000000000E+03 0.  0.
<mgrwt>
<rscale>  0 0.25648706E+04</rscale>
<asrwt>0</asrwt>
<pdfrwt beam="2">  1        2 0.35177525E+00 0.25648706E+04</pdfrwt>
<pdfrwt beam="1">  1       -2 0.11065701E+00 0.25648706E+04</pdfrwt>
<totfact> 0.26503764E+00</totfact>
</mgrwt>
</event>
<event>
 4    1  0.2019612E-008  0.3921864E+04  0.7816531E-02  0.8020497E-01
         -2   -1    0    0    0  501 -0.00000000000E+00  0.00000000000E+00  0.12436476546E+04  0.12436476546E+04  0.00000000000E+00 0. -1.
          2   -1    0    0  501    0  0.00000000000E+00 -0.00000000000E+00 -0.30919156718E+04  0.30919156718E+04  0.00000000000E+00 0.  1.
    2000013    1    1    2    0    0 -0.55990185089E+03 -0.11501153937E+04 -0.21877276846E+04  0.27064567101E+04  0.95000000000E+03 0.  0.
   -2000013    1    1    2    0    0  0.55990185089E+03  0.11501153937E+04  0.33945966738E+03  0.16291066163E+04  0.95000000000E+03 0.  0.
<mgrwt>
<rscale>  0 0.39218637E+04</rscale>
<asrwt>0</asrwt>
<pdfrwt beam="2">  1        2 0.47567933E+00 0.39218637E+04</pdfrwt>
<pdfrwt beam="1">  1       -2 0.19133041E+00 0.39218637E+04</pdfrwt>
<totfact> 0.18343354E-01</totfact>
</mgrwt>
</event>
<event>
 4    1  0.2019612E-008  0.2693770E+04  0.7816531E-02  0.8337029E-01
          2   -1    0    0  501    0  0.00000000000E+00  0.00000000000E+00  0.11802840531E+04  0.11802840531E+04  0.00000000000E+00 0.  1.
         -2   -1    0    0    0  501 -0.00000000000E+00 -0.00000000000E+00 -0.15370016663E+04  0.15370016663E+04  0.00000000000E+00 0. -1.
    2000013    1    1    2    0    0  0.43363036032E+03  0.43710799154E+03 -0.91445509033E+03  0.14552755058E+04  0.95000000000E+03 0.  0.
   -2000013    1    1    2    0    0 -0.43363036032E+03 -0.43710799154E+03  0.55773747712E+03  0.12620102135E+04  0.95000000000E+03 0.  0.
<mgrwt>
<rscale>  0 0.26937695E+04</rscale>
<asrwt>0</asrwt>
<pdfrwt beam="1">  1        2 0.18158216E+00 0.26937695E+04</pdfrwt>
<pdfrwt beam="2">  1       -2 0.23646179E+00 0.26937695E+04</pdfrwt>
<totfact> 0.13311363E+00</totfact>
</mgrwt>
</event>
<event>
 4    1  0.2019612E-008  0.2360678E+04  0.7816531E-02  0.8454373E-01
          1   -1    0    0  501    0  0.00000000000E+00  0.00000000000E+00  0.11132570918E+04  0.11132570918E+04  0.00000000000E+00 0.  1.
         -1   -1    0    0    0  501 -0.00000000000E+00 -0.00000000000E+00 -0.12514634054E+04  0.12514634054E+04  0.00000000000E+00 0. -1.
    2000013    1    1    2    0    0 -0.61444480636E+03  0.32052362604E+03  0.33163262230E+02  0.11763832780E+04  0.95000000000E+03 0.  0.
   -2000013    1    1    2    0    0  0.61444480636E+03 -0.32052362604E+03 -0.17136957584E+03  0.11883372192E+04  0.95000000000E+03 0.  0.
<mgrwt>
<rscale>  0 0.23606783E+04</rscale>
<asrwt>0</asrwt>
<pdfrwt beam="1">  1        1 0.17127032E+00 0.23606783E+04</pdfrwt>
<pdfrwt beam="2">  1       -1 0.19253283E+00 0.23606783E+04</pdfrwt>
<totfact> 0.18898310E+00</totfact>
</mgrwt>
</event>
<event>
 4    1  0.2019612E-008  0.2952110E+04  0.7816531E-02  0.8257540E-01
          2   -1    0    0  501    0  0.00000000000E+00  0.00000000000E+00  0.11550344078E+04  0.11550344078E+04  0.00000000000E+00 0.  1.
         -2   -1    0    0    0  501 -0.00000000000E+00 -0.00000000000E+00 -0.18862967583E+04  0.18862967583E+04  0.00000000000E+00 0. -1.
    2000013    1    1    2    0    0 -0.18034119984E+03  0.87526431078E+03 -0.10776241777E+04  0.16918582773E+04  0.95000000000E+03 0.  0.
   -2000013    1    1    2    0    0  0.18034119984E+03 -0.87526431078E+03  0.34636182732E+03  0.13494728888E+04  0.95000000000E+03 0.  0.
<mgrwt>
<rscale>  0 0.29521095E+04</rscale>
<asrwt>0</asrwt>
<pdfrwt beam="1">  1        2 0.17769760E+00 0.29521095E+04</pdfrwt>
<pdfrwt beam="2">  1       -2 0.29019950E+00 0.29521095E+04</pdfrwt>
<totfact> 0.63212080E-01</totfact>
</mgrwt>
</event>
<event>
 4    1  0.2019612E-008  0.2136970E+04  0.7816531E-02  0.8545130E-01
          2   -1    0    0  501    0  0.00000000000E+00  0.00000000000E+00  0.12085592924E+04  0.12085592924E+04  0.00000000000E+00 0.  1.
         -2   -1    0    0    0  501 -0.00000000000E+00 -0.00000000000E+00 -0.94464583073E+03  0.94464583073E+03  0.00000000000E+00 0. -1.
    2000013    1    1    2    0    0  0.34356342896E+02 -0.48122724262E+03  0.21256752044E+03  0.10864828430E+04  0.95000000000E+03 0.  0.
   -2000013    1    1    2    0    0 -0.34356342896E+02  0.48122724262E+03  0.51345941244E+02  0.10667222802E+04  0.95000000000E+03 0.  0.
<mgrwt>
<rscale>  0 0.21369703E+04</rscale>
<asrwt>0</asrwt>
<pdfrwt beam="1">  1        2 0.18593220E+00 0.21369703E+04</pdfrwt>
<pdfrwt beam="2">  1       -2 0.14533013E+00 0.21369703E+04</pdfrwt>
<totfact> 0.56025269E+00</totfact>
</mgrwt>
</event>
<event>
 4    1  0.2019612E-008  0.2635435E+04  0.7816531E-02  0.8356264E-01
          1   -1    0    0  501    0  0.00000000000E+00  0.00000000000E+00  0.86795686355E+03  0.86795686355E+03  0.00000000000E+00 0. -1.
         -1   -1    0    0    0  501 -0.00000000000E+00 -0.00000000000E+00 -0.20005359631E+04  0.20005359631E+04  0.00000000000E+00 0.  1.
    2000013    1    1    2    0    0 -0.85247975939E+03 -0.31546752956E+03 -0.66141019544E+03  0.14718032983E+04  0.95000000000E+03 0.  0.
   -2000013    1    1    2    0    0  0.85247975939E+03  0.31546752956E+03 -0.47116890414E+03  0.13966895283E+04  0.95000000000E+03 0.  0.
<mgrwt>
<rscale>  0 0.26354346E+04</rscale>
<asrwt>0</asrwt>
<pdfrwt beam="1">  1        1 0.13353182E+00 0.26354346E+04</pdfrwt>
<pdfrwt beam="2">  1       -1 0.30777477E+00 0.26354346E+04</pdfrwt>
<totfact> 0.49935945E-01</totfact>
</mgrwt>
</event>
<event>
 4    1  0.2019612E-008  0.2373637E+04  0.7816531E-02  0.8449440E-01
         -2   -1    0    0    0  501 -0.00000000000E+00  0.00000000000E+00  0.56436765465E+03  0.56436765465E+03  0.00000000000E+00 0. -1.
          2   -1    0    0  501    0  0.00000000000E+00 -0.00000000000E+00 -0.24957806026E+04  0.24957806026E+04  0.00000000000E+00 0.  1.
    2000013    1    1    2    0    0 -0.21475207275E+03  0.47053960716E+03 -0.15953332820E+04  0.19274631657E+04  0.95000000000E+03 0.  0.
   -2000013    1    1    2    0    0  0.21475207275E+03 -0.47053960716E+03 -0.33607966596E+03  0.11326850915E+04  0.95000000000E+03 0.  0.
<mgrwt>
<rscale>  0 0.23736367E+04</rscale>
<asrwt>0</asrwt>
<pdfrwt beam="2">  1        2 0.38396624E+00 0.23736367E+04</pdfrwt>
<pdfrwt beam="1">  1       -2 0.86825794E-01 0.23736367E+04</pdfrwt>
<totfact> 0.36207459E+00</totfact>
</mgrwt>
</event>
<event>
 4    1  0.2019612E-008  0.2032792E+04  0.7816531E-02  0.8591441E-01
          2   -1    0    0  501    0  0.00000000000E+00  0.00000000000E+00  0.27248764197E+04  0.27248764197E+04  0.00000000000E+00 0.  1.
         -2   -1    0    0    0  501 -0.00000000000E+00 -0.00000000000E+00 -0.37912198754E+03  0.37912198754E+03  0.00000000000E+00 0. -1.
    2000013    1    1    2    0    0  0.32418751349E+03 -0.15358245427E+03  0.11067498335E+04  0.15020254019E+04  0.95000000000E+03 0.  0.
   -2000013    1    1    2    0    0 -0.32418751349E+03  0.15358245427E+03  0.12390045987E+04  0.16019730053E+04  0.95000000000E+03 0.  0.
<mgrwt>
<rscale>  0 0.20327917E+04</rscale>
<asrwt>0</asrwt>
<pdfrwt beam="1">  1        2 0.41921174E+00 0.20327917E+04</pdfrwt>
<pdfrwt beam="2">  1       -2 0.58326461E-01 0.20327917E+04</pdfrwt>
<totfact> 0.65445607E+00</totfact>
</mgrwt>
</event>
<event>
 4    1  0.2019612E-008  0.2472925E+04  0.7816531E-02  0.8412695E-01
         -2   -1    0    0    0  501 -0.00000000000E+00  0.00000000000E+00  0.52633385061E+03  0.52633385061E+03  0.00000000000E+00 0.  1.
          2   -1    0    0  501    0  0.00000000000E+00 -0.00000000000E+00 -0.29046954270E+04  0.29046954270E+04  0.00000000000E+00 0. -1.
    2000013    1    1    2    0    0  0.39700132486E+03 -0.24404258135E+02 -0.21384699597E+04  0.23735541679E+04  0.95000000000E+03 0.  0.
   -2000013    1    1    2    0    0 -0.39700132486E+03  0.24404258135E+02 -0.23989161670E+03  0.10574751096E+04  0.95000000000E+03 0.  0.
<mgrwt>
<rscale>  0 0.24729250E+04</rscale>
<asrwt>0</asrwt>
<pdfrwt beam="2">  1        2 0.44687623E+00 0.24729250E+04</pdfrwt>
<pdfrwt beam="1">  1       -2 0.80974437E-01 0.24729250E+04</pdfrwt>
<totfact> 0.23997758E+00</totfact>
</mgrwt>
</event>
<event>
 4    1  0.2019612E-008  0.2983965E+04  0.7816531E-02  0.8248325E-01
         -2   -1    0    0    0  501 -0.00000000000E+00  0.00000000000E+00  0.10534374424E+04  0.10534374424E+04  0.00000000000E+00 0. -1.
          2   -1    0    0  501    0  0.00000000000E+00 -0.00000000000E+00 -0.21130931150E+04  0.21130931150E+04  0.00000000000E+00 0.  1.
    2000013    1    1    2    0    0  0.10357784063E+04  0.38037626478E+03 -0.18435082287E+03  0.14676539904E+04  0.95000000000E+03 0.  0.
   -2000013    1    1    2    0    0 -0.10357784063E+04 -0.38037626478E+03 -0.87530484976E+03  0.16988765670E+04  0.95000000000E+03 0.  0.
<mgrwt>
<rscale>  0 0.29839647E+04</rscale>
<asrwt>0</asrwt>
<pdfrwt beam="2">  1        2 0.32509125E+00 0.29839647E+04</pdfrwt>
<pdfrwt beam="1">  1       -2 0.16206730E+00 0.29839647E+04</pdfrwt>
<totfact> 0.12044689E+00</totfact>
</mgrwt>
</event>
<event>
 4    1  0.2019612E-008  0.3728735E+04  0.7816531E-02  0.8061623E-01
          2   -1    0    0  501    0  0.00000000000E+00  0.00000000000E+00  0.31434489119E+04  0.31434489119E+04  0.00000000000E+00 0.  1.
         -2   -1    0    0    0  501 -0.00000000000E+00 -0.00000000000E+00 -0.11057494186E+04  0.11057494186E+04  0.00000000000E+00 0. -1.
    2000013    1    1    2    0    0 -0.94176848819E+03  0.10518994677E+04  0.15101030588E+03  0.17084274898E+04  0.95000000000E+03 0.  0.
   -2000013    1    1    2    0    0  0.94176848819E+03 -0.10518994677E+04  0.18866891874E+04  0.25407708408E+04  0.95000000000E+03 0.  0.
<mgrwt>
<rscale>  0 0.37287353E+04</rscale>
<asrwt>0</asrwt>
<pdfrwt beam="1">  1        2 0.48360752E+00 0.37287353E+04</pdfrwt>
<pdfrwt beam="2">  1       -2 0.17011530E+00 0.37287353E+04</pdfrwt>
<totfact> 0.24188460E-01</totfact>
</mgrwt>
</event>
<event>
 4    1  0.2019612E-008  0.2308284E+04  0.7816531E-02  0.8474662E-01
         -2   -1    0    0    0  501 -0.00000000000E+00  0.00000000000E+00  0.86777592730E+03  0.86777592730E+03  0.00000000000E+00 0. -1.
          2   -1    0    0  501    0  0.00000000000E+00 -0.00000000000E+00 -0.15350085212E+04  0.15350085212E+04  0.00000000000E+00 0.  1.
    2000013    1    1    2    0    0 -0.19346305112E+02 -0.92268411484E+02 -0.10087487943E+04  0.13888707173E+04  0.95000000000E+03 0.  0.
   -2000013    1    1    2    0    0  0.19346305112E+02  0.92268411484E+02  0.34151620038E+03  0.10139137312E+04  0.95000000000E+03 0.  0.
<mgrwt>
<rscale>  0 0.23082837E+04</rscale>
<asrwt>0</asrwt>
<pdfrwt beam="2">  1        2 0.23615515E+00 0.23082837E+04</pdfrwt>
<pdfrwt beam="1">  1       -2 0.13350399E+00 0.23082837E+04</pdfrwt>
<totfact> 0.44613705E+00</totfact>
</mgrwt>
</event>
<event>
 4    1  0.2019612E-008  0.4499724E+04  0.7816531E-02  0.7910685E-01
         -2   -1    0    0    0  501 -0.00000000000E+00  0.00000000000E+00  0.15547566094E+04  0.15547566094E+04  0.00000000000E+00 0. -1.
          2   -1    0    0  501    0  0.00000000000E+00 -0.00000000000E+00 -0.32557367868E+04  0.32557367868E+04  0.00000000000E+00 0.  1.
    2000013    1    1    2    0    0 -0.66161358349E+03  0.98300433987E+03 -0.26250555495E+04  0.30327292500E+04  0.95000000000E+03 0.  0.
   -2000013    1    1    2    0    0  0.66161358349E+03 -0.98300433987E+03  0.92407537212E+03  0.17777641462E+04  0.95000000000E+03 0.  0.
<mgrwt>
<rscale>  0 0.44997237E+04</rscale>
<asrwt>0</asrwt>
<pdfrwt beam="2">  1        2 0.50088258E+00 0.44997237E+04</pdfrwt>
<pdfrwt beam="1">  1       -2 0.23919333E+00 0.44997237E+04</pdfrwt>
<totfact> 0.67597739E-02</totfact>
</mgrwt>
</event>
<event>
 4    1  0.2019612E-008  0.3777876E+04  0.7816531E-02  0.8050919E-01
          2   -1    0    0  501    0  0.00000000000E+00  0.00000000000E+00  0.23973874958E+04  0.23973874958E+04  0.00000000000E+00 0.  1.
         -2   -1    0    0    0  501 -0.00000000000E+00 -0.00000000000E+00 -0.14883227054E+04  0.14883227054E+04  0.00000000000E+00 0. -1.
    2000013    1    1    2    0    0 -0.61191121124E+03 -0.14729372464E+04  0.81320783307E+03  0.20267674859E+04  0.95000000000E+03 0.  0.
   -2000013    1    1    2    0    0  0.61191121124E+03  0.14729372464E+04  0.95856957306E+02  0.18589427152E+04  0.95000000000E+03 0.  0.
<mgrwt>
<rscale>  0 0.37778757E+04</rscale>
<asrwt>0</asrwt>
<pdfrwt beam="1">  1        2 0.36882885E+00 0.37778757E+04</pdfrwt>
<pdfrwt beam="2">  1       -2 0.22897272E+00 0.37778757E+04</pdfrwt>
<totfact> 0.27806981E-01</totfact>
</mgrwt>
</event>
<event>
 4    1  0.2019612E-008  0.2452456E+04  0.7816531E-02  0.8420122E-01
          2   -1    0    0  501    0  0.00000000000E+00  0.00000000000E+00  0.85517226557E+03  0.85517226557E+03  0.00000000000E+00 0.  1.
         -2   -1    0    0    0  501 -0.00000000000E+00 -0.00000000000E+00 -0.17582834767E+04  0.17582834767E+04  0.00000000000E+00 0. -1.
    2000013    1    1    2    0    0  0.73425452707E+01  0.63431799334E+03 -0.92660297286E+03  0.14708862291E+04  0.95000000000E+03 0.  0.
   -2000013    1    1    2    0    0 -0.73425452707E+01 -0.63431799334E+03  0.23491761692E+02  0.11425695132E+04  0.95000000000E+03 0.  0.
<mgrwt>
<rscale>  0 0.24524561E+04</rscale>
<asrwt>0</asrwt>
<pdfrwt beam="1">  1        2 0.13156497E+00 0.24524561E+04</pdfrwt>
<pdfrwt beam="2">  1       -2 0.27050515E+00 0.24524561E+04</pdfrwt>
<totfact> 0.13562236E+00</totfact>
</mgrwt>
</event>
<event>
 4    1  0.2019612E-008  0.2728904E+04  0.7816531E-02  0.8325687E-01
          2   -1    0    0  501    0  0.00000000000E+00  0.00000000000E+00  0.19193495198E+04  0.19193495198E+04  0.00000000000E+00 0.  1.
         -2   -1    0    0    0  501 -0.00000000000E+00 -0.00000000000E+00 -0.96997955131E+03  0.96997955131E+03  0.00000000000E+00 0. -1.
    2000013    1    1    2    0    0 -0.23260858111E+03  0.89210398920E+03  0.12468652891E+03  0.13296627430E+04  0.95000000000E+03 0.  0.
   -2000013    1    1    2    0    0  0.23260858111E+03 -0.89210398920E+03  0.82468343956E+03  0.15596663281E+04  0.95000000000E+03 0.  0.
<mgrwt>
<rscale>  0 0.27289044E+04</rscale>
<asrwt>0</asrwt>
<pdfrwt beam="1">  1        2 0.29528454E+00 0.27289044E+04</pdfrwt>
<pdfrwt beam="2">  1       -2 0.14922762E+00 0.27289044E+04</pdfrwt>
<totfact> 0.19695759E+00</totfact>
</mgrwt>
</event>
<event>
 4    1  0.2019612E-008  0.2400507E+04  0.7816531E-02  0.8439314E-01
          2   -1    0    0  501    0  0.00000000000E+00  0.00000000000E+00  0.28309332255E+04  0.28309332255E+04  0.00000000000E+00 0.  1.
         -2   -1    0    0    0  501 -0.00000000000E+00 -0.00000000000E+00 -0.50888127377E+03  0.50888127377E+03  0.00000000000E+00 0. -1.
    2000013    1    1    2    0    0  0.70061245604E+03 -0.45519381655E+02  0.14567509379E+04  0.18755140956E+04  0.95000000000E+03 0.  0.
   -2000013    1    1    2    0    0 -0.70061245604E+03  0.45519381655E+02  0.86530101380E+03  0.14643004037E+04  0.95000000000E+03 0.  0.
<mgrwt>
<rscale>  0 0.24005074E+04</rscale>
<asrwt>0</asrwt>
<pdfrwt beam="1">  1        2 0.43552818E+00 0.24005074E+04</pdfrwt>
<pdfrwt beam="2">  1       -2 0.78289429E-01 0.24005074E+04</pdfrwt>
<totfact> 0.28899982E+00</totfact>
</mgrwt>
</event>
<event>
 4    1  0.2019612E-008  0.2226665E+04  0.7816531E-02  0.8507411E-01
         -2   -1    0    0    0  501 -0.00000000000E+00  0.00000000000E+00  0.45943195657E+03  0.45943195657E+03  0.00000000000E+00 0. -1.
          2   -1    0    0  501    0  0.00000000000E+00 -0.00000000000E+00 -0.26979170243E+04  0.26979170243E+04  0.00000000000E+00 0.  1.
    2000013    1    1    2    0    0 -0.55054170278E+03  0.62417996807E+02 -0.13649125978E+04  0.17528487021E+04  0.95000000000E+03 0.  0.
   -2000013    1    1    2    0    0  0.55054170278E+03 -0.62417996807E+02 -0.87357246993E+03  0.14045002788E+04  0.95000000000E+03 0.  0.
<mgrwt>
<rscale>  0 0.22266650E+04</rscale>
<asrwt>0</asrwt>
<pdfrwt beam="2">  1        2 0.41506417E+00 0.22266650E+04</pdfrwt>
<pdfrwt beam="1">  1       -2 0.70681837E-01 0.22266650E+04</pdfrwt>
<totfact> 0.44218343E+00</totfact>
</mgrwt>
</event>
<event>
 4    1  0.2019612E-008  0.2370985E+04  0.7816531E-02  0.8450447E-01
         -2   -1    0    0    0  501 -0.00000000000E+00  0.00000000000E+00  0.68416871610E+03  0.68416871610E+03  0.00000000000E+00 0. -1.
          2   -1    0    0  501    0  0.00000000000E+00 -0.00000000000E+00 -0.20541599856E+04  0.20541599856E+04  0.00000000000E+00 0.  1.
    2000013    1    1    2    0    0  0.20190629973E+03  0.66472762709E+03 -0.52059290822E+03  0.12869133414E+04  0.95000000000E+03 0.  0.
   -2000013    1    1    2    0    0 -0.20190629973E+03 -0.66472762709E+03 -0.84939836130E+03  0.14514153604E+04  0.95000000000E+03 0.  0.
<mgrwt>
<rscale>  0 0.23709846E+04</rscale>
<asrwt>0</asrwt>
<pdfrwt beam="2">  1        2 0.31602461E+00 0.23709846E+04</pdfrwt>
<pdfrwt beam="1">  1       -2 0.10525673E+00 0.23709846E+04</pdfrwt>
<totfact> 0.41052159E+00</totfact>
</mgrwt>
</event>
<event>
 4    1  0.2019612E-008  0.2804284E+04  0.7816531E-02  0.8301939E-01
          2   -1    0    0  501    0  0.00000000000E+00  0.00000000000E+00  0.82846151709E+03  0.82846151709E+03  0.00000000000E+00 0.  1.
         -2   -1    0    0    0  501 -0.00000000000E+00 -0.00000000000E+00 -0.23730768289E+04  0.23730768289E+04  0.00000000000E+00 0. -1.
    2000013    1    1    2    0    0 -0.54235364897E+03 -0.59389308068E+03 -0.35387495613E+02  0.12452344143E+04  0.95000000000E+03 0.  0.
   -2000013    1    1    2    0    0  0.54235364897E+03  0.59389308068E+03 -0.15092278162E+04  0.19563039317E+04  0.95000000000E+03 0.  0.
<mgrwt>
<rscale>  0 0.28042845E+04</rscale>
<asrwt>0</asrwt>
<pdfrwt beam="1">  1        2 0.12745562E+00 0.28042845E+04</pdfrwt>
<pdfrwt beam="2">  1       -2 0.36508874E+00 0.28042845E+04</pdfrwt>
<totfact> 0.35675872E-01</totfact>
</mgrwt>
</event>
<event>
 4    1  0.2019612E-008  0.2756130E+04  0.7816531E-02  0.8317019E-01
         -2   -1    0    0    0  501 -0.00000000000E+00  0.00000000000E+00  0.97728993761E+03  0.97728993761E+03  0.00000000000E+00 0. -1.
          2   -1    0    0  501    0  0.00000000000E+00 -0.00000000000E+00 -0.19431931592E+04  0.19431931592E+04  0.00000000000E+00 0.  1.
    2000013    1    1    2    0    0 -0.33135425834E+03  0.93843362151E+03 -0.40012516489E+03  0.14328480220E+04  0.95000000000E+03 0.  0.
   -2000013    1    1    2    0    0  0.33135425834E+03 -0.93843362151E+03 -0.56577805673E+03  0.14876350749E+04  0.95000000000E+03 0.  0.
<mgrwt>
<rscale>  0 0.27561300E+04</rscale>
<asrwt>0</asrwt>
<pdfrwt beam="2">  1        2 0.29895279E+00 0.27561300E+04</pdfrwt>
<pdfrwt beam="1">  1       -2 0.15035230E+00 0.27561300E+04</pdfrwt>
<totfact> 0.18685570E+00</totfact>
</mgrwt>
</event>
<event>
 4    1  0.2019612E-008  0.2256363E+04  0.7816531E-02  0.8495328E-01
          2   -1    0    0  501    0  0.00000000000E+00  0.00000000000E+00  0.38813816344E+04  0.38813816344E+04  0.00000000000E+00 0.  1.
         -2   -1    0    0    0  501 -0.00000000000E+00 -0.00000000000E+00 -0.32792286808E+03  0.32792286808E+03  0.00000000000E+00 0. -1.
    2000013    1    1    2    0    0 -0.58687232724E+02 -0.41308391986E+03  0.26030780109E+04  0.28022486769E+04  0.95000000000E+03 0.  0.
   -2000013    1    1    2    0    0  0.58687232724E+02  0.41308391986E+03  0.95038075543E+03  0.14070558256E+04  0.95000000000E+03 0.  0.
<mgrwt>
<rscale>  0 0.22563633E+04</rscale>
<asrwt>0</asrwt>
<pdfrwt beam="1">  1        2 0.59713561E+00 0.22563633E+04</pdfrwt>
<pdfrwt beam="2">  1       -2 0.50449675E-01 0.22563633E+04</pdfrwt>
<totfact> 0.14449511E+00</totfact>
</mgrwt>
</event>
<event>
 4    1  0.2019612E-008  0.2679369E+04  0.7816531E-02  0.8341730E-01
         -2   -1    0    0    0  501 -0.00000000000E+00  0.00000000000E+00  0.67016969231E+03  0.67016969231E+03  0.00000000000E+00 0. -1.
          2   -1    0    0  501    0  0.00000000000E+00 -0.00000000000E+00 -0.26780597683E+04  0.26780597683E+04  0.00000000000E+00 0.  1.
    2000013    1    1    2    0    0 -0.16327183153E+03  0.90887115454E+03 -0.75542805576E+03  0.15250822974E+04  0.95000000000E+03 0.  0.
   -2000013    1    1    2    0    0  0.16327183153E+03 -0.90887115454E+03 -0.12524620202E+04  0.18231471632E+04  0.95000000000E+03 0.  0.
<mgrwt>
<rscale>  0 0.26793689E+04</rscale>
<asrwt>0</asrwt>
<pdfrwt beam="2">  1        2 0.41200920E+00 0.26793689E+04</pdfrwt>
<pdfrwt beam="1">  1       -2 0.10310303E+00 0.26793689E+04</pdfrwt>
<totfact> 0.18462303E+00</totfact>
</mgrwt>
</event>
<event>
 4    1  0.2019612E-008  0.2156797E+04  0.7816531E-02  0.8536628E-01
          1   -1    0    0  501    0  0.00000000000E+00  0.00000000000E+00  0.10752961677E+04  0.10752961677E+04  0.00000000000E+00 0. -1.
         -1   -1    0    0    0  501 -0.00000000000E+00 -0.00000000000E+00 -0.10815100247E+04  0.10815100247E+04  0.00000000000E+00 0.  1.
    2000013    1    1    2    0    0  0.82460937164E+02 -0.40337948363E+03  0.29843830131E+03  0.10775343306E+04  0.95000000000E+03 0.  0.
   -2000013    1    1    2    0    0 -0.82460937164E+02  0.40337948363E+03 -0.30465215836E+03  0.10792718618E+04  0.95000000000E+03 0.  0.
<mgrwt>
<rscale>  0 0.21567972E+04</rscale>
<asrwt>0</asrwt>
<pdfrwt beam="1">  1        1 0.16543018E+00 0.21567972E+04</pdfrwt>
<pdfrwt beam="2">  1       -1 0.16638616E+00 0.21567972E+04</pdfrwt>
<totfact> 0.31701930E+00</totfact>
</mgrwt>
</event>
<event>
 4    1  0.2019612E-008  0.2407296E+04  0.7816531E-02  0.8436777E-01
          2   -1    0    0  501    0  0.00000000000E+00  0.00000000000E+00  0.32899871461E+04  0.32899871461E+04  0.00000000000E+00 0.  1.
         -2   -1    0    0    0  501 -0.00000000000E+00 -0.00000000000E+00 -0.44035676143E+03  0.44035676143E+03  0.00000000000E+00 0. -1.
    2000013    1    1    2    0    0  0.31530331706E+03 -0.66088516954E+03  0.15804145402E+04  0.19840351579E+04  0.95000000000E+03 0.  0.
   -2000013    1    1    2    0    0 -0.31530331706E+03  0.66088516954E+03  0.12692158445E+04  0.17463087496E+04  0.95000000000E+03 0.  0.
<mgrwt>
<rscale>  0 0.24072956E+04</rscale>
<asrwt>0</asrwt>
<pdfrwt beam="1">  1        2 0.50615185E+00 0.24072956E+04</pdfrwt>
<pdfrwt beam="2">  1       -2 0.67747196E-01 0.24072956E+04</pdfrwt>
<totfact> 0.20316189E+00</totfact>
</mgrwt>
</event>
<event>
 4    1  0.2019612E-008  0.2263984E+04  0.7816531E-02  0.8492259E-01
         -2   -1    0    0    0  501 -0.00000000000E+00  0.00000000000E+00  0.63841039226E+03  0.63841039226E+03  0.00000000000E+00 0. -1.
          2   -1    0    0  501    0  0.00000000000E+00 -0.00000000000E+00 -0.20071820372E+04  0.20071820372E+04  0.00000000000E+00 0.  1.
    2000013    1    1    2    0    0  0.27714597351E+03 -0.52981789999E+03 -0.85528680663E+03  0.14112166451E+04  0.95000000000E+03 0.  0.
   -2000013    1    1    2    0    0 -0.27714597351E+03  0.52981789999E+03 -0.51348483827E+03  0.12343757843E+04  0.95000000000E+03 0.  0.
<mgrwt>
<rscale>  0 0.22639840E+04</rscale>
<asrwt>0</asrwt>
<pdfrwt beam="2">  1        2 0.30879724E+00 0.22639840E+04</pdfrwt>
<pdfrwt beam="1">  1       -2 0.98216984E-01 0.22639840E+04</pdfrwt>
<totfact> 0.51877111E+00</totfact>
</mgrwt>
</event>
<event>
 4    1  0.2019612E-008  0.2369188E+04  0.7816531E-02  0.8451130E-01
         -1   -1    0    0    0  501 -0.00000000000E+00  0.00000000000E+00  0.20000224755E+04  0.20000224755E+04  0.00000000000E+00 0.  1.
          1   -1    0    0  501    0  0.00000000000E+00 -0.00000000000E+00 -0.70162369099E+03  0.70162369099E+03  0.00000000000E+00 0. -1.
    2000013    1    1    2    0    0  0.54761052787E+03  0.41538127859E+03  0.84118179915E+03  0.14430889495E+04  0.95000000000E+03 0.  0.
   -2000013    1    1    2    0    0 -0.54761052787E+03 -0.41538127859E+03  0.45721698537E+03  0.12585572170E+04  0.95000000000E+03 0.  0.
<mgrwt>
<rscale>  0 0.23691882E+04</rscale>
<asrwt>0</asrwt>
<pdfrwt beam="2">  1        1 0.10794211E+00 0.23691882E+04</pdfrwt>
<pdfrwt beam="1">  1       -1 0.30769576E+00 0.23691882E+04</pdfrwt>
<totfact> 0.71818412E-01</totfact>
</mgrwt>
</event>
<event>
 4    1  0.2019612E-008  0.2694048E+04  0.7816531E-02  0.8336939E-01
         -2   -1    0    0    0  501 -0.00000000000E+00  0.00000000000E+00  0.11227850156E+04  0.11227850156E+04  0.00000000000E+00 0. -1.
          2   -1    0    0  501    0  0.00000000000E+00 -0.00000000000E+00 -0.16160468626E+04  0.16160468626E+04  0.00000000000E+00 0.  1.
    2000013    1    1    2    0    0 -0.73299562105E+03  0.51227261885E+03 -0.58726406764E+03  0.14307637477E+04  0.95000000000E+03 0.  0.
   -2000013    1    1    2    0    0  0.73299562105E+03 -0.51227261885E+03  0.94002220647E+02  0.13080681305E+04  0.95000000000E+03 0.  0.
<mgrwt>
<rscale>  0 0.26940477E+04</rscale>
<asrwt>0</asrwt>
<pdfrwt beam="2">  1        2 0.24862259E+00 0.26940477E+04</pdfrwt>
<pdfrwt beam="1">  1       -2 0.17273616E+00 0.26940477E+04</pdfrwt>
<totfact> 0.19546061E+00</totfact>
</mgrwt>
</event>
<event>
 4    1  0.2019612E-008  0.2700442E+04  0.7816531E-02  0.8334862E-01
         -2   -1    0    0    0  501 -0.00000000000E+00  0.00000000000E+00  0.96481995767E+03  0.96481995767E+03  0.00000000000E+00 0. -1.
          2   -1    0    0  501    0  0.00000000000E+00 -0.00000000000E+00 -0.18895719179E+04  0.18895719179E+04  0.00000000000E+00 0.  1.
    2000013    1    1    2    0    0 -0.95245957168E+03 -0.10420492195E+03 -0.40890765074E+03  0.14098735292E+04  0.95000000000E+03 0.  0.
   -2000013    1    1    2    0    0  0.95245957168E+03  0.10420492195E+03 -0.51584430952E+03  0.14445183464E+04  0.95000000000E+03 0.  0.
<mgrwt>
<rscale>  0 0.27004420E+04</rscale>
<asrwt>0</asrwt>
<pdfrwt beam="2">  1        2 0.29070337E+00 0.27004420E+04</pdfrwt>
<pdfrwt beam="1">  1       -2 0.14843384E+00 0.27004420E+04</pdfrwt>
<totfact> 0.20799581E+00</totfact>
</mgrwt>
</event>
<event>
 4    1  0.2019612E-008  0.2379408E+04  0.7816531E-02  0.8447253E-01
         -2   -1    0    0    0  501 -0.00000000000E+00  0.00000000000E+00  0.22309416229E+04  0.22309416229E+04  0.00000000000E+00 0. -1.
          2   -1    0    0  501    0  0.00000000000E+00 -0.00000000000E+00 -0.63443885958E+03  0.63443885958E+03  0.00000000000E+00 0.  1.
    2000013    1    1    2    0    0 -0.21704635188E+03 -0.46518434348E+03  0.13996372737E+04  0.17677641500E+04  0.95000000000E+03 0.  0.
   -2000013    1    1    2    0    0  0.21704635188E+03  0.46518434348E+03  0.19686548967E+03  0.10976163325E+04  0.95000000000E+03 0.  0.
<mgrwt>
<rscale>  0 0.23794084E+04</rscale>
<asrwt>0</asrwt>
<pdfrwt beam="2">  1        2 0.97605980E-01 0.23794084E+04</pdfrwt>
<pdfrwt beam="1">  1       -2 0.34322178E+00 0.23794084E+04</pdfrwt>
<totfact> 0.71679072E-01</totfact>
</mgrwt>
</event>
<event>
 4    1  0.2019612E-008  0.2398779E+04  0.7816531E-02  0.8439961E-01
          2   -1    0    0  501    0  0.00000000000E+00  0.00000000000E+00  0.10635500912E+04  0.10635500912E+04  0.00000000000E+00 0.  1.
         -2   -1    0    0    0  501 -0.00000000000E+00 -0.00000000000E+00 -0.13525789855E+04  0.13525789855E+04  0.00000000000E+00 0. -1.
    2000013    1    1    2    0    0  0.69365087987E+03  0.20763931842E+03 -0.35240722799E+02  0.11949926938E+04  0.95000000000E+03 0.  0.
   -2000013    1    1    2    0    0 -0.69365087987E+03 -0.20763931842E+03 -0.25378817147E+03  0.12211363829E+04  0.95000000000E+03 0.  0.
<mgrwt>
<rscale>  0 0.23987793E+04</rscale>
<asrwt>0</asrwt>
<pdfrwt beam="1">  1        2 0.16362309E+00 0.23987793E+04</pdfrwt>
<pdfrwt beam="2">  1       -2 0.20808907E+00 0.23987793E+04</pdfrwt>
<totfact> 0.24314589E+00</totfact>
</mgrwt>
</event>
<event>
 4    1  0.2019612E-008  0.2535475E+04  0.7816531E-02  0.8390455E-01
         -1   -1    0    0    0  501 -0.00000000000E+00  0.00000000000E+00  0.76646688399E+03  0.76646688399E+03  0.00000000000E+00 0. -1.
          1   -1    0    0  501    0  0.00000000000E+00 -0.00000000000E+00 -0.20968398183E+04  0.20968398183E+04  0.00000000000E+00 0.  1.
    2000013    1    1    2    0    0  0.67256095498E+03 -0.39910153433E+03 -0.32072650249E+03  0.12716075504E+04  0.95000000000E+03 0.  0.
   -2000013    1    1    2    0    0 -0.67256095498E+03  0.39910153433E+03 -0.10096464318E+04  0.15916991519E+04  0.95000000000E+03 0.  0.
<mgrwt>
<rscale>  0 0.25354749E+04</rscale>
<asrwt>0</asrwt>
<pdfrwt beam="2">  1        1 0.32259073E+00 0.25354749E+04</pdfrwt>
<pdfrwt beam="1">  1       -1 0.11791798E+00 0.25354749E+04</pdfrwt>
<totfact> 0.14652994E+00</totfact>
</mgrwt>
</event>
<event>
 4    1  0.2019612E-008  0.2037413E+04  0.7816531E-02  0.8589326E-01
          2   -1    0    0  501    0  0.00000000000E+00  0.00000000000E+00  0.27862814512E+04  0.27862814512E+04  0.00000000000E+00 0.  1.
         -2   -1    0    0    0  501 -0.00000000000E+00 -0.00000000000E+00 -0.37245463260E+03  0.37245463260E+03  0.00000000000E+00 0. -1.
    2000013    1    1    2    0    0  0.13086716493E+03  0.32847827544E+03  0.10500332340E+04  0.14594841502E+04  0.95000000000E+03 0.  0.
   -2000013    1    1    2    0    0 -0.13086716493E+03 -0.32847827544E+03  0.13637935846E+04  0.16992519335E+04  0.95000000000E+03 0.  0.
<mgrwt>
<rscale>  0 0.20374135E+04</rscale>
<asrwt>0</asrwt>
<pdfrwt beam="1">  1        2 0.42865867E+00 0.20374135E+04</pdfrwt>
<pdfrwt beam="2">  1       -2 0.57300714E-01 0.20374135E+04</pdfrwt>
<totfact> 0.62383261E+00</totfact>
</mgrwt>
</event>
<event>
 4    1  0.2019612E-008  0.3704488E+04  0.7816531E-02  0.8066968E-01
          2   -1    0    0  501    0  0.00000000000E+00  0.00000000000E+00  0.33621051328E+04  0.33621051328E+04  0.00000000000E+00 0. -1.
         -2   -1    0    0    0  501 -0.00000000000E+00 -0.00000000000E+00 -0.10204345995E+04  0.10204345995E+04  0.00000000000E+00 0.  1.
    2000013    1    1    2    0    0 -0.96996016062E+02  0.14741365114E+04  0.47513243812E+03  0.18195432161E+04  0.95000000000E+03 0.  0.
   -2000013    1    1    2    0    0  0.96996016062E+02 -0.14741365114E+04  0.18665380952E+04  0.25629965163E+04  0.95000000000E+03 0.  0.
<mgrwt>
<rscale>  0 0.37044883E+04</rscale>
<asrwt>0</asrwt>
<pdfrwt beam="1">  1        2 0.51724694E+00 0.37044883E+04</pdfrwt>
<pdfrwt beam="2">  1       -2 0.15698994E+00 0.37044883E+04</pdfrwt>
<totfact> 0.21654132E-01</totfact>
</mgrwt>
</event>
<event>
 4    1  0.2019612E-008  0.2476001E+04  0.7816531E-02  0.8411585E-01
         -2   -1    0    0    0  501 -0.00000000000E+00  0.00000000000E+00  0.77983461247E+03  0.77983461247E+03  0.00000000000E+00 0. -1.
          2   -1    0    0  501    0  0.00000000000E+00 -0.00000000000E+00 -0.19653466541E+04  0.19653466541E+04  0.00000000000E+00 0.  1.
    2000013    1    1    2    0    0  0.30499721784E+02 -0.77097120999E+03 -0.38587280127E+03  0.12832476996E+04  0.95000000000E+03 0.  0.
   -2000013    1    1    2    0    0 -0.30499721784E+02  0.77097120999E+03 -0.79963924036E+03  0.14619335670E+04  0.95000000000E+03 0.  0.
<mgrwt>
<rscale>  0 0.24760011E+04</rscale>
<asrwt>0</asrwt>
<pdfrwt beam="2">  1        2 0.30236102E+00 0.24760011E+04</pdfrwt>
<pdfrwt beam="1">  1       -2 0.11997456E+00 0.24760011E+04</pdfrwt>
<totfact> 0.33161095E+00</totfact>
</mgrwt>
</event>
<event>
 4    1  0.2019612E-008  0.2033751E+04  0.7816531E-02  0.8591002E-01
         -2   -1    0    0    0  501 -0.00000000000E+00  0.00000000000E+00  0.12662210001E+04  0.12662210001E+04  0.00000000000E+00 0. -1.
          2   -1    0    0  501    0  0.00000000000E+00 -0.00000000000E+00 -0.81663137413E+03  0.81663137413E+03  0.00000000000E+00 0.  1.
    2000013    1    1    2    0    0  0.15119212965E+03 -0.30833297251E+03  0.10532722631E+03  0.10156387678E+04  0.95000000000E+03 0.  0.
   -2000013    1    1    2    0    0 -0.15119212965E+03  0.30833297251E+03  0.34426239968E+03  0.10672136065E+04  0.95000000000E+03 0.  0.
<mgrwt>
<rscale>  0 0.20337510E+04</rscale>
<asrwt>0</asrwt>
<pdfrwt beam="2">  1        2 0.12563560E+00 0.20337510E+04</pdfrwt>
<pdfrwt beam="1">  1       -2 0.19480323E+00 0.20337510E+04</pdfrwt>
<totfact> 0.44672122E+00</totfact>
</mgrwt>
</event>
<event>
 4    1  0.2019612E-008  0.2554905E+04  0.7816531E-02  0.8383682E-01
         -2   -1    0    0    0  501 -0.00000000000E+00  0.00000000000E+00  0.77018171502E+03  0.77018171502E+03  0.00000000000E+00 0. -1.
          2   -1    0    0  501    0  0.00000000000E+00 -0.00000000000E+00 -0.21188316515E+04  0.21188316515E+04  0.00000000000E+00 0.  1.
    2000013    1    1    2    0    0  0.27654753478E+03 -0.61507444100E+03 -0.12668644784E+04  0.17211161244E+04  0.95000000000E+03 0.  0.
   -2000013    1    1    2    0    0 -0.27654753478E+03  0.61507444100E+03 -0.81785458033E+02  0.11678972421E+04  0.95000000000E+03 0.  0.
<mgrwt>
<rscale>  0 0.25549054E+04</rscale>
<asrwt>0</asrwt>
<pdfrwt beam="2">  1        2 0.32597410E+00 0.25549054E+04</pdfrwt>
<pdfrwt beam="1">  1       -2 0.11848950E+00 0.25549054E+04</pdfrwt>
<totfact> 0.27900788E+00</totfact>
</mgrwt>
</event>
<event>
 4    1  0.2019612E-008  0.2444551E+04  0.7816531E-02  0.8423010E-01
         -2   -1    0    0    0  501 -0.00000000000E+00  0.00000000000E+00  0.53777370244E+03  0.53777370244E+03  0.00000000000E+00 0. -1.
          2   -1    0    0  501    0  0.00000000000E+00 -0.00000000000E+00 -0.27780419935E+04  0.27780419935E+04  0.00000000000E+00 0.  1.
    2000013    1    1    2    0    0  0.40102663109E+02 -0.41479267601E+03 -0.24338827811E+03  0.10655510507E+04  0.95000000000E+03 0.  0.
   -2000013    1    1    2    0    0 -0.40102663109E+02  0.41479267601E+03 -0.19968800129E+04  0.22502646453E+04  0.95000000000E+03 0.  0.
<mgrwt>
<rscale>  0 0.24445514E+04</rscale>
<asrwt>0</asrwt>
<pdfrwt beam="2">  1        2 0.42739107E+00 0.24445514E+04</pdfrwt>
<pdfrwt beam="1">  1       -2 0.82734417E-01 0.24445514E+04</pdfrwt>
<totfact> 0.27368981E+00</totfact>
</mgrwt>
</event>
<event>
 4    1  0.2019612E-008  0.3136934E+04  0.7816531E-02  0.8205674E-01
         -2   -1    0    0    0  501 -0.00000000000E+00  0.00000000000E+00  0.10240814615E+04  0.10240814615E+04  0.00000000000E+00 0. -1.
          2   -1    0    0  501    0  0.00000000000E+00 -0.00000000000E+00 -0.24022399613E+04  0.24022399613E+04  0.00000000000E+00 0.  1.
    2000013    1    1    2    0    0  0.96117197865E+03 -0.71851072473E+03 -0.10634526253E+04  0.18637437379E+04  0.95000000000E+03 0.  0.
   -2000013    1    1    2    0    0 -0.96117197865E+03  0.71851072473E+03 -0.31470587442E+03  0.15625776849E+04  0.95000000000E+03 0.  0.
<mgrwt>
<rscale>  0 0.31369344E+04</rscale>
<asrwt>0</asrwt>
<pdfrwt beam="2">  1        2 0.36957537E+00 0.31369344E+04</pdfrwt>
<pdfrwt beam="1">  1       -2 0.15755100E+00 0.31369344E+04</pdfrwt>
<totfact> 0.88119624E-01</totfact>
</mgrwt>
</event>
<event>
 4    1  0.2019612E-008  0.2704714E+04  0.7816531E-02  0.8333477E-01
         -2   -1    0    0    0  501 -0.00000000000E+00  0.00000000000E+00  0.13892504241E+04  0.13892504241E+04  0.00000000000E+00 0. -1.
          2   -1    0    0  501    0  0.00000000000E+00 -0.00000000000E+00 -0.13164436526E+04  0.13164436526E+04  0.00000000000E+00 0.  1.
    2000013    1    1    2    0    0  0.12916315231E+03 -0.91587080901E+03 -0.22990244378E+03  0.13456810887E+04  0.95000000000E+03 0.  0.
   -2000013    1    1    2    0    0 -0.12916315231E+03  0.91587080901E+03  0.30270921528E+03  0.13600129881E+04  0.95000000000E+03 0.  0.
<mgrwt>
<rscale>  0 0.27047143E+04</rscale>
<asrwt>0</asrwt>
<pdfrwt beam="2">  1        2 0.20252979E+00 0.27047143E+04</pdfrwt>
<pdfrwt beam="1">  1       -2 0.21373083E+00 0.27047143E+04</pdfrwt>
<totfact> 0.15366787E+00</totfact>
</mgrwt>
</event>
<event>
 4    1  0.2019612E-008  0.2315831E+04  0.7816531E-02  0.8471705E-01
          2   -1    0    0  501    0  0.00000000000E+00  0.00000000000E+00  0.95294034167E+03  0.95294034167E+03  0.00000000000E+00 0.  1.
         -2   -1    0    0    0  501 -0.00000000000E+00 -0.00000000000E+00 -0.14069797827E+04  0.14069797827E+04  0.00000000000E+00 0. -1.
    2000013    1    1    2    0    0 -0.36580177007E+03  0.48964782881E+03  0.32188588110E+02  0.11300893931E+04  0.95000000000E+03 0.  0.
   -2000013    1    1    2    0    0  0.36580177007E+03 -0.48964782881E+03 -0.48622802916E+03  0.12298307313E+04  0.95000000000E+03 0.  0.
<mgrwt>
<rscale>  0 0.23158306E+04</rscale>
<asrwt>0</asrwt>
<pdfrwt beam="1">  1        2 0.14660621E+00 0.23158306E+04</pdfrwt>
<pdfrwt beam="2">  1       -2 0.21645843E+00 0.23158306E+04</pdfrwt>
<totfact> 0.25468870E+00</totfact>
</mgrwt>
</event>
<event>
 4    1  0.2019612E-008  0.2646304E+04  0.7816531E-02  0.8352641E-01
          2   -1    0    0  501    0  0.00000000000E+00  0.00000000000E+00  0.16022338803E+04  0.16022338803E+04  0.00000000000E+00 0.  1.
         -2   -1    0    0    0  501 -0.00000000000E+00 -0.00000000000E+00 -0.10926814000E+04  0.10926814000E+04  0.00000000000E+00 0. -1.
    2000013    1    1    2    0    0 -0.19401322759E+03  0.47903626229E+03  0.10310880030E+04  0.14942420631E+04  0.95000000000E+03 0.  0.
   -2000013    1    1    2    0    0  0.19401322759E+03 -0.47903626229E+03 -0.52153552276E+03  0.12006732172E+04  0.95000000000E+03 0.  0.
<mgrwt>
<rscale>  0 0.26463040E+04</rscale>
<asrwt>0</asrwt>
<pdfrwt beam="1">  1        2 0.24649752E+00 0.26463040E+04</pdfrwt>
<pdfrwt beam="2">  1       -2 0.16810483E+00 0.26463040E+04</pdfrwt>
<totfact> 0.21549137E+00</totfact>
</mgrwt>
</event>
<event>
 4    1  0.2019612E-008  0.2154951E+04  0.7816531E-02  0.8537416E-01
          2   -1    0    0  501    0  0.00000000000E+00  0.00000000000E+00  0.83815009421E+03  0.83815009421E+03  0.00000000000E+00 0.  1.
         -2   -1    0    0    0  501 -0.00000000000E+00 -0.00000000000E+00 -0.13851383262E+04  0.13851383262E+04  0.00000000000E+00 0. -1.
    2000013    1    1    2    0    0 -0.22463954381E+03 -0.24905641092E+03 -0.66765900914E+03  0.12086192837E+04  0.95000000000E+03 0.  0.
   -2000013    1    1    2    0    0  0.22463954381E+03  0.24905641092E+03  0.12067077717E+03  0.10146691367E+04  0.95000000000E+03 0.  0.
<mgrwt>
<rscale>  0 0.21549513E+04</rscale>
<asrwt>0</asrwt>
<pdfrwt beam="1">  1        2 0.12894617E+00 0.21549513E+04</pdfrwt>
<pdfrwt beam="2">  1       -2 0.21309820E+00 0.21549513E+04</pdfrwt>
<totfact> 0.32450183E+00</totfact>
</mgrwt>
</event>
<event>
 4    1  0.2019612E-008  0.3149134E+04  0.7816531E-02  0.8202382E-01
         -2   -1    0    0    0  501 -0.00000000000E+00  0.00000000000E+00  0.15773759626E+04  0.15773759626E+04  0.00000000000E+00 0. -1.
          2   -1    0    0  501    0  0.00000000000E+00 -0.00000000000E+00 -0.15717626747E+04  0.15717626747E+04  0.00000000000E+00 0.  1.
    2000013    1    1    2    0    0  0.29082161067E+03  0.12214037915E+04 -0.16067466348E+02  0.15745356759E+04  0.95000000000E+03 0.  0.
   -2000013    1    1    2    0    0 -0.29082161067E+03 -0.12214037915E+04  0.21680754184E+02  0.15746029615E+04  0.95000000000E+03 0.  0.
<mgrwt>
<rscale>  0 0.31491336E+04</rscale>
<asrwt>0</asrwt>
<pdfrwt beam="2">  1        2 0.24180964E+00 0.31491336E+04</pdfrwt>
<pdfrwt beam="1">  1       -2 0.24267323E+00 0.31491336E+04</pdfrwt>
<totfact> 0.69741588E-01</totfact>
</mgrwt>
</event>
<event>
 4    1  0.2019612E-008  0.3546941E+04  0.7816531E-02  0.8102755E-01
          2   -1    0    0  501    0  0.00000000000E+00  0.00000000000E+00  0.21796417524E+04  0.21796417524E+04  0.00000000000E+00 0.  1.
         -2   -1    0    0    0  501 -0.00000000000E+00 -0.00000000000E+00 -0.14429879705E+04  0.14429879705E+04  0.00000000000E+00 0. -1.
    2000013    1    1    2    0    0 -0.95580757690E+03 -0.11624739443E+03  0.15398058295E+04  0.20495325255E+04  0.95000000000E+03 0.  0.
   -2000013    1    1    2    0    0  0.95580757690E+03  0.11624739443E+03 -0.80315204753E+03  0.15730971973E+04  0.95000000000E+03 0.  0.
<mgrwt>
<rscale>  0 0.35469406E+04</rscale>
<asrwt>0</asrwt>
<pdfrwt beam="1">  1        2 0.33532950E+00 0.35469406E+04</pdfrwt>
<pdfrwt beam="2">  1       -2 0.22199815E+00 0.35469406E+04</pdfrwt>
<totfact> 0.41664093E-01</totfact>
</mgrwt>
</event>
<event>
 4    1  0.2019612E-008  0.2028705E+04  0.7816531E-02  0.8593316E-01
          2   -1    0    0  501    0  0.00000000000E+00  0.00000000000E+00  0.93102641793E+03  0.93102641793E+03  0.00000000000E+00 0.  1.
         -2   -1    0    0    0  501 -0.00000000000E+00 -0.00000000000E+00 -0.11051365626E+04  0.11051365626E+04  0.00000000000E+00 0. -1.
    2000013    1    1    2    0    0  0.33575294357E+03 -0.33152209976E+02 -0.19963794493E+03  0.10277083327E+04  0.95000000000E+03 0.  0.
   -2000013    1    1    2    0    0 -0.33575294357E+03  0.33152209976E+02  0.25527800225E+02  0.10084546478E+04  0.95000000000E+03 0.  0.
<mgrwt>
<rscale>  0 0.20287053E+04</rscale>
<asrwt>0</asrwt>
<pdfrwt beam="1">  1        2 0.14323483E+00 0.20287053E+04</pdfrwt>
<pdfrwt beam="2">  1       -2 0.17002101E+00 0.20287053E+04</pdfrwt>
<totfact> 0.55176879E+00</totfact>
</mgrwt>
</event>
<event>
 4    1  0.2019612E-008  0.2676514E+04  0.7816531E-02  0.8342666E-01
          1   -1    0    0  501    0  0.00000000000E+00  0.00000000000E+00  0.89257376255E+03  0.89257376255E+03  0.00000000000E+00 0. -1.
         -1   -1    0    0    0  501 -0.00000000000E+00 -0.00000000000E+00 -0.20064799775E+04  0.20064799775E+04  0.00000000000E+00 0.  1.
    2000013    1    1    2    0    0  0.89265169954E+03 -0.17974694487E+03 -0.82070595669E+03  0.15508688817E+04  0.95000000000E+03 0.  0.
   -2000013    1    1    2    0    0 -0.89265169954E+03  0.17974694487E+03 -0.29320025827E+03  0.13481848584E+04  0.95000000000E+03 0.  0.
<mgrwt>
<rscale>  0 0.26765137E+04</rscale>
<asrwt>0</asrwt>
<pdfrwt beam="1">  1        1 0.13731904E+00 0.26765137E+04</pdfrwt>
<pdfrwt beam="2">  1       -1 0.30868923E+00 0.26765137E+04</pdfrwt>
<totfact> 0.46824173E-01</totfact>
</mgrwt>
</event>
<event>
 4    1  0.2019612E-008  0.2775854E+04  0.7816531E-02  0.8310804E-01
          2   -1    0    0  501    0  0.00000000000E+00  0.00000000000E+00  0.38167623830E+04  0.38167623830E+04  0.00000000000E+00 0.  1.
         -2   -1    0    0    0  501 -0.00000000000E+00 -0.00000000000E+00 -0.50470570314E+03  0.50470570314E+03  0.00000000000E+00 0. -1.
    2000013    1    1    2    0    0 -0.91246923220E+03  0.42593389284E+03  0.15017397678E+04  0.20424842988E+04  0.95000000000E+03 0.  0.
   -2000013    1    1    2    0    0  0.91246923220E+03 -0.42593389284E+03  0.18103169121E+04  0.22789837874E+04  0.95000000000E+03 0.  0.
<mgrwt>
<rscale>  0 0.27758543E+04</rscale>
<asrwt>0</asrwt>
<pdfrwt beam="1">  1        2 0.58719419E+00 0.27758543E+04</pdfrwt>
<pdfrwt beam="2">  1       -2 0.77647034E-01 0.27758543E+04</pdfrwt>
<totfact> 0.61481775E-01</totfact>
</mgrwt>
</event>
<event>
 4    1  0.2019612E-008  0.2445808E+04  0.7816531E-02  0.8422550E-01
         -1   -1    0    0    0  501 -0.00000000000E+00  0.00000000000E+00  0.75818162454E+03  0.75818162454E+03  0.00000000000E+00 0. -1.
          1   -1    0    0  501    0  0.00000000000E+00 -0.00000000000E+00 -0.19724748114E+04  0.19724748114E+04  0.00000000000E+00 0.  1.
    2000013    1    1    2    0    0 -0.63038842682E+03 -0.44226590120E+03 -0.60453758155E+03  0.13641680188E+04  0.95000000000E+03 0.  0.
   -2000013    1    1    2    0    0  0.63038842682E+03  0.44226590120E+03 -0.60975560535E+03  0.13664884172E+04  0.95000000000E+03 0.  0.
<mgrwt>
<rscale>  0 0.24458080E+04</rscale>
<asrwt>0</asrwt>
<pdfrwt beam="2">  1        1 0.30345766E+00 0.24458080E+04</pdfrwt>
<pdfrwt beam="1">  1       -1 0.11664333E+00 0.24458080E+04</pdfrwt>
<totfact> 0.18416654E+00</totfact>
</mgrwt>
</event>
<event>
 4    1  0.2019612E-008  0.2627672E+04  0.7816531E-02  0.8358862E-01
          2   -1    0    0  501    0  0.00000000000E+00  0.00000000000E+00  0.10039721751E+04  0.10039721751E+04  0.00000000000E+00 0.  1.
         -2   -1    0    0    0  501 -0.00000000000E+00 -0.00000000000E+00 -0.17193361352E+04  0.17193361352E+04  0.00000000000E+00 0. -1.
    2000013    1    1    2    0    0  0.20324732599E+03 -0.87934409676E+03 -0.25876115970E+03  0.13356694403E+04  0.95000000000E+03 0.  0.
   -2000013    1    1    2    0    0 -0.20324732599E+03  0.87934409676E+03 -0.45660280045E+03  0.13876388699E+04  0.95000000000E+03 0.  0.
<mgrwt>
<rscale>  0 0.26276725E+04</rscale>
<asrwt>0</asrwt>
<pdfrwt beam="1">  1        2 0.15445726E+00 0.26276725E+04</pdfrwt>
<pdfrwt beam="2">  1       -2 0.26451325E+00 0.26276725E+04</pdfrwt>
<totfact> 0.11570093E+00</totfact>
</mgrwt>
</event>
<event>
 4    1  0.2019612E-008  0.3784317E+04  0.7816531E-02  0.8049529E-01
         -2   -1    0    0    0  501 -0.00000000000E+00  0.00000000000E+00  0.10552494164E+04  0.10552494164E+04  0.00000000000E+00 0. -1.
          2   -1    0    0  501    0  0.00000000000E+00 -0.00000000000E+00 -0.33928123197E+04  0.33928123197E+04  0.00000000000E+00 0.  1.
    2000013    1    1    2    0    0 -0.59674994610E+03  0.13347780938E+04 -0.30503093590E+03  0.17701092988E+04  0.95000000000E+03 0.  0.
   -2000013    1    1    2    0    0  0.59674994610E+03 -0.13347780938E+04 -0.20325319673E+04  0.26779524373E+04  0.95000000000E+03 0.  0.
<mgrwt>
<rscale>  0 0.37843167E+04</rscale>
<asrwt>0</asrwt>
<pdfrwt beam="2">  1        2 0.52197113E+00 0.37843167E+04</pdfrwt>
<pdfrwt beam="1">  1       -2 0.16234606E+00 0.37843167E+04</pdfrwt>
<totfact> 0.18711332E-01</totfact>
</mgrwt>
</event>
<event>
 4    1  0.2019612E-008  0.1977799E+04  0.7816531E-02  0.8617071E-01
          2   -1    0    0  501    0  0.00000000000E+00  0.00000000000E+00  0.16789375197E+04  0.16789375197E+04  0.00000000000E+00 0.  1.
         -2   -1    0    0    0  501 -0.00000000000E+00 -0.00000000000E+00 -0.58246476488E+03  0.58246476488E+03  0.00000000000E+00 0. -1.
    2000013    1    1    2    0    0  0.10196363498E+03 -0.24550138760E+03  0.62707610638E+03  0.11689276955E+04  0.95000000000E+03 0.  0.
   -2000013    1    1    2    0    0 -0.10196363498E+03  0.24550138760E+03  0.46939664843E+03  0.10924745891E+04  0.95000000000E+03 0.  0.
<mgrwt>
<rscale>  0 0.19777987E+04</rscale>
<asrwt>0</asrwt>
<pdfrwt beam="1">  1        2 0.25829808E+00 0.19777987E+04</pdfrwt>
<pdfrwt beam="2">  1       -2 0.89609965E-01 0.19777987E+04</pdfrwt>
<totfact> 0.10010035E+01</totfact>
</mgrwt>
</event>
<event>
 4    1  0.2019612E-008  0.2168642E+04  0.7816531E-02  0.8531594E-01
          1   -1    0    0  501    0  0.00000000000E+00  0.00000000000E+00  0.19267620831E+04  0.19267620831E+04  0.00000000000E+00 0.  1.
         -1   -1    0    0    0  501 -0.00000000000E+00 -0.00000000000E+00 -0.61022176518E+03  0.61022176518E+03  0.00000000000E+00 0. -1.
    2000013    1    1    2    0    0 -0.72345264454E+02 -0.39124054379E+03  0.10548975592E+04  0.14743174220E+04  0.95000000000E+03 0.  0.
   -2000013    1    1    2    0    0  0.72345264454E+02  0.39124054379E+03  0.26164275874E+03  0.10626664263E+04  0.95000000000E+03 0.  0.
<mgrwt>
<rscale>  0 0.21686421E+04</rscale>
<asrwt>0</asrwt>
<pdfrwt beam="1">  1        1 0.29642493E+00 0.21686421E+04</pdfrwt>
<pdfrwt beam="2">  1       -1 0.93880273E-01 0.21686421E+04</pdfrwt>
<totfact> 0.33585985E+00</totfact>
</mgrwt>
</event>
<event>
 4    1  0.2019612E-008  0.2493022E+04  0.7816531E-02  0.8405476E-01
          1   -1    0    0  501    0  0.00000000000E+00  0.00000000000E+00  0.15263498208E+04  0.15263498208E+04  0.00000000000E+00 0. -1.
         -1   -1    0    0    0  501 -0.00000000000E+00 -0.00000000000E+00 -0.10179776575E+04  0.10179776575E+04  0.00000000000E+00 0.  1.
    2000013    1    1    2    0    0  0.77121063747E+03 -0.23502776985E+03  0.29078656144E+03  0.12794767385E+04  0.95000000000E+03 0.  0.
   -2000013    1    1    2    0    0 -0.77121063747E+03  0.23502776985E+03  0.21758560190E+03  0.12648507399E+04  0.95000000000E+03 0.  0.
<mgrwt>
<rscale>  0 0.24930223E+04</rscale>
<asrwt>0</asrwt>
<pdfrwt beam="1">  1        1 0.23482305E+00 0.24930223E+04</pdfrwt>
<pdfrwt beam="2">  1       -1 0.15661195E+00 0.24930223E+04</pdfrwt>
<totfact> 0.17293968E+00</totfact>
</mgrwt>
</event>
<event>
 4    1  0.2019612E-008  0.2225063E+04  0.7816531E-02  0.8508068E-01
          2   -1    0    0  501    0  0.00000000000E+00  0.00000000000E+00  0.40977015649E+04  0.40977015649E+04  0.00000000000E+00 0.  1.
         -2   -1    0    0    0  501 -0.00000000000E+00 -0.00000000000E+00 -0.30205390891E+03  0.30205390891E+03  0.00000000000E+00 0. -1.
    2000013    1    1    2    0    0  0.22452573387E+03  0.45237582392E+03  0.13379437306E+04  0.17168718990E+04  0.95000000000E+03 0.  0.
   -2000013    1    1    2    0    0 -0.22452573387E+03 -0.45237582392E+03  0.24577039253E+04  0.26828835748E+04  0.95000000000E+03 0.  0.
<mgrwt>
<rscale>  0 0.22250634E+04</rscale>
<asrwt>0</asrwt>
<pdfrwt beam="1">  1        2 0.63041558E+00 0.22250634E+04</pdfrwt>
<pdfrwt beam="2">  1       -2 0.46469835E-01 0.22250634E+04</pdfrwt>
<totfact> 0.11470161E+00</totfact>
</mgrwt>
</event>
<event>
 4    1  0.2019612E-008  0.1984816E+04  0.7816531E-02  0.8613753E-01
         -2   -1    0    0    0  501 -0.00000000000E+00  0.00000000000E+00  0.63733959816E+03  0.63733959816E+03  0.00000000000E+00 0. -1.
          2   -1    0    0  501    0  0.00000000000E+00 -0.00000000000E+00 -0.15452890918E+04  0.15452890918E+04  0.00000000000E+00 0.  1.
    2000013    1    1    2    0    0 -0.26991458396E+03 -0.62019046214E+02 -0.53680559670E+03  0.11257710661E+04  0.95000000000E+03 0.  0.
   -2000013    1    1    2    0    0  0.26991458396E+03  0.62019046214E+02 -0.37114389691E+03  0.10568576238E+04  0.95000000000E+03 0.  0.
<mgrwt>
<rscale>  0 0.19848163E+04</rscale>
<asrwt>0</asrwt>
<pdfrwt beam="2">  1        2 0.23773678E+00 0.19848163E+04</pdfrwt>
<pdfrwt beam="1">  1       -2 0.98052246E-01 0.19848163E+04</pdfrwt>
<totfact> 0.96347408E+00</totfact>
</mgrwt>
</event>
<event>
 4    1  0.2019612E-008  0.3298464E+04  0.7816531E-02  0.8163286E-01
         -2   -1    0    0    0  501 -0.00000000000E+00  0.00000000000E+00  0.12506856245E+04  0.12506856245E+04  0.00000000000E+00 0. -1.
          2   -1    0    0  501    0  0.00000000000E+00 -0.00000000000E+00 -0.21747802989E+04  0.21747802989E+04  0.00000000000E+00 0.  1.
    2000013    1    1    2    0    0 -0.59034005864E+03 -0.11308664547E+04 -0.91484684479E+03  0.18348855748E+04  0.95000000000E+03 0.  0.
   -2000013    1    1    2    0    0  0.59034005864E+03  0.11308664547E+04 -0.92478296056E+01  0.15905803487E+04  0.95000000000E+03 0.  0.
<mgrwt>
<rscale>  0 0.32984642E+04</rscale>
<asrwt>0</asrwt>
<pdfrwt beam="2">  1        2 0.33458158E+00 0.32984642E+04</pdfrwt>
<pdfrwt beam="1">  1       -2 0.19241317E+00 0.32984642E+04</pdfrwt>
<totfact> 0.66555089E-01</totfact>
</mgrwt>
</event>
<event>
 4    1  0.2019612E-008  0.4281855E+04  0.7816531E-02  0.7949982E-01
          2   -1    0    0  501    0  0.00000000000E+00  0.00000000000E+00  0.26381814957E+04  0.26381814957E+04  0.00000000000E+00 0.  1.
         -2   -1    0    0    0  501 -0.00000000000E+00 -0.00000000000E+00 -0.17373973781E+04  0.17373973781E+04  0.00000000000E+00 0. -1.
    2000013    1    1    2    0    0  0.13260034027E+03 -0.14112951414E+04 -0.87086413269E+03  0.19157873483E+04  0.95000000000E+03 0.  0.
   -2000013    1    1    2    0    0 -0.13260034027E+03  0.14112951414E+04  0.17716482503E+04  0.24597915255E+04  0.95000000000E+03 0.  0.
<mgrwt>
<rscale>  0 0.42818546E+04</rscale>
<asrwt>0</asrwt>
<pdfrwt beam="1">  1        2 0.40587408E+00 0.42818546E+04</pdfrwt>
<pdfrwt beam="2">  1       -2 0.26729190E+00 0.42818546E+04</pdfrwt>
<totfact> 0.11218721E-01</totfact>
</mgrwt>
</event>
<event>
 4    1  0.2019612E-008  0.2573243E+04  0.7816531E-02  0.8377347E-01
          2   -1    0    0  501    0  0.00000000000E+00  0.00000000000E+00  0.18510420030E+04  0.18510420030E+04  0.00000000000E+00 0.  1.
         -2   -1    0    0    0  501 -0.00000000000E+00 -0.00000000000E+00 -0.89430410834E+03  0.89430410834E+03  0.00000000000E+00 0. -1.
    2000013    1    1    2    0    0 -0.84210524928E+03  0.20911048708E+03  0.48381122939E+03  0.13745696608E+04  0.95000000000E+03 0.  0.
   -2000013    1    1    2    0    0  0.84210524928E+03 -0.20911048708E+03  0.47292666526E+03  0.13707764505E+04  0.95000000000E+03 0.  0.
<mgrwt>
<rscale>  0 0.25732427E+04</rscale>
<asrwt>0</asrwt>
<pdfrwt beam="1">  1        2 0.28477569E+00 0.25732427E+04</pdfrwt>
<pdfrwt beam="2">  1       -2 0.13758525E+00 0.25732427E+04</pdfrwt>
<totfact> 0.26930388E+00</totfact>
</mgrwt>
</event>
<event>
 4    1  0.2019612E-008  0.2285057E+04  0.7816531E-02  0.8483836E-01
         -1   -1    0    0    0  501 -0.00000000000E+00  0.00000000000E+00  0.69062486975E+03  0.69062486975E+03  0.00000000000E+00 0.  1.
          1   -1    0    0  501    0  0.00000000000E+00 -0.00000000000E+00 -0.18901307988E+04  0.18901307988E+04  0.00000000000E+00 0. -1.
    2000013    1    1    2    0    0 -0.41444872638E+03  0.38402938354E+03 -0.27315160965E+03  0.11385772332E+04  0.95000000000E+03 0.  0.
   -2000013    1    1    2    0    0  0.41444872638E+03 -0.38402938354E+03 -0.92635431941E+03  0.14421784353E+04  0.95000000000E+03 0.  0.
<mgrwt>
<rscale>  0 0.22850570E+04</rscale>
<asrwt>0</asrwt>
<pdfrwt beam="2">  1        1 0.29078935E+00 0.22850570E+04</pdfrwt>
<pdfrwt beam="1">  1       -1 0.10624998E+00 0.22850570E+04</pdfrwt>
<totfact> 0.26515225E+00</totfact>
</mgrwt>
</event>
<event>
 4    1  0.2019612E-008  0.2333587E+04  0.7816531E-02  0.8464795E-01
         -2   -1    0    0    0  501 -0.00000000000E+00  0.00000000000E+00  0.12744933956E+04  0.12744933956E+04  0.00000000000E+00 0. -1.
          2   -1    0    0  501    0  0.00000000000E+00 -0.00000000000E+00 -0.10681942793E+04  0.10681942793E+04  0.00000000000E+00 0.  1.
    2000013    1    1    2    0    0  0.63153660903E+03  0.24003126024E+03  0.53428021730E+02  0.11669653157E+04  0.95000000000E+03 0.  0.
   -2000013    1    1    2    0    0 -0.63153660903E+03 -0.24003126024E+03  0.15287109454E+03  0.11757223592E+04  0.95000000000E+03 0.  0.
<mgrwt>
<rscale>  0 0.23335866E+04</rscale>
<asrwt>0</asrwt>
<pdfrwt beam="2">  1        2 0.16433758E+00 0.23335866E+04</pdfrwt>
<pdfrwt beam="1">  1       -2 0.19607591E+00 0.23335866E+04</pdfrwt>
<totfact> 0.29099072E+00</totfact>
</mgrwt>
</event>
<event>
 4    1  0.2019612E-008  0.2737704E+04  0.7816531E-02  0.8322874E-01
          2   -1    0    0  501    0  0.00000000000E+00  0.00000000000E+00  0.17646131302E+04  0.17646131302E+04  0.00000000000E+00 0.  1.
         -2   -1    0    0    0  501 -0.00000000000E+00 -0.00000000000E+00 -0.10618507905E+04  0.10618507905E+04  0.00000000000E+00 0. -1.
    2000013    1    1    2    0    0 -0.24188198275E+03 -0.92025251365E+03  0.61638234645E+03  0.14791209482E+04  0.95000000000E+03 0.  0.
   -2000013    1    1    2    0    0  0.24188198275E+03  0.92025251365E+03  0.86379993258E+02  0.13473429726E+04  0.95000000000E+03 0.  0.
<mgrwt>
<rscale>  0 0.27377040E+04</rscale>
<asrwt>0</asrwt>
<pdfrwt beam="1">  1        2 0.27147894E+00 0.27377040E+04</pdfrwt>
<pdfrwt beam="2">  1       -2 0.16336166E+00 0.27377040E+04</pdfrwt>
<totfact> 0.18792559E+00</totfact>
</mgrwt>
</event>
<event>
 4    1  0.2019612E-008  0.2310224E+04  0.7816531E-02  0.8473901E-01
         -2   -1    0    0    0  501 -0.00000000000E+00  0.00000000000E+00  0.25774758966E+04  0.25774758966E+04  0.00000000000E+00 0. -1.
          2   -1    0    0  501    0  0.00000000000E+00 -0.00000000000E+00 -0.51767090399E+03  0.51767090399E+03  0.00000000000E+00 0.  1.
    2000013    1    1    2    0    0  0.26220547891E+03 -0.56846861123E+03  0.12974388959E+04  0.17256175601E+04  0.95000000000E+03 0.  0.
   -2000013    1    1    2    0    0 -0.26220547891E+03  0.56846861123E+03  0.76236609670E+03  0.13695292405E+04  0.95000000000E+03 0.  0.
<mgrwt>
<rscale>  0 0.23102245E+04</rscale>
<asrwt>0</asrwt>
<pdfrwt beam="2">  1        2 0.79641679E-01 0.23102245E+04</pdfrwt>
<pdfrwt beam="1">  1       -2 0.39653474E+00 0.23102245E+04</pdfrwt>
<totfact> 0.41930890E-01</totfact>
</mgrwt>
</event>
<event>
 4    1  0.2019612E-008  0.3696132E+04  0.7816531E-02  0.8068820E-01
          2   -1    0    0  501    0  0.00000000000E+00  0.00000000000E+00  0.15491084507E+04  0.15491084507E+04  0.00000000000E+00 0.  1.
         -2   -1    0    0    0  501 -0.00000000000E+00 -0.00000000000E+00 -0.22047183196E+04  0.22047183196E+04  0.00000000000E+00 0. -1.
    2000013    1    1    2    0    0 -0.17229402371E+03  0.15738260514E+04 -0.24761608548E+03  0.18629083167E+04  0.95000000000E+03 0.  0.
   -2000013    1    1    2    0    0  0.17229402371E+03 -0.15738260514E+04 -0.40799378347E+03  0.18909184536E+04  0.95000000000E+03 0.  0.
<mgrwt>
<rscale>  0 0.36961319E+04</rscale>
<asrwt>0</asrwt>
<pdfrwt beam="1">  1        2 0.23832438E+00 0.36961319E+04</pdfrwt>
<pdfrwt beam="2">  1       -2 0.33918743E+00 0.36961319E+04</pdfrwt>
<totfact> 0.17516100E-01</totfact>
</mgrwt>
</event>
<event>
 4    1  0.2019612E-008  0.2000453E+04  0.7816531E-02  0.8606409E-01
         -2   -1    0    0    0  501 -0.00000000000E+00  0.00000000000E+00  0.47304469387E+03  0.47304469387E+03  0.00000000000E+00 0. -1.
          2   -1    0    0  501    0  0.00000000000E+00 -0.00000000000E+00 -0.21149225027E+04  0.21149225027E+04  0.00000000000E+00 0.  1.
    2000013    1    1    2    0    0  0.21549388384E+03 -0.86100068291E+02 -0.10926202099E+04  0.14663457160E+04  0.95000000000E+03 0.  0.
   -2000013    1    1    2    0    0 -0.21549388384E+03  0.86100068291E+02 -0.54925759894E+03  0.11216214806E+04  0.95000000000E+03 0.  0.
<mgrwt>
<rscale>  0 0.20004528E+04</rscale>
<asrwt>0</asrwt>
<pdfrwt beam="2">  1        2 0.32537268E+00 0.20004528E+04</pdfrwt>
<pdfrwt beam="1">  1       -2 0.72776109E-01 0.20004528E+04</pdfrwt>
<totfact> 0.91391557E+00</totfact>
</mgrwt>
</event>
<event>
 4    1  0.2019612E-008  0.3060035E+04  0.7816531E-02  0.8226792E-01
         -2   -1    0    0    0  501 -0.00000000000E+00  0.00000000000E+00  0.12847679365E+04  0.12847679365E+04  0.00000000000E+00 0. -1.
          2   -1    0    0  501    0  0.00000000000E+00 -0.00000000000E+00 -0.18220822356E+04  0.18220822356E+04  0.00000000000E+00 0.  1.
    2000013    1    1    2    0    0 -0.10908198084E+04 -0.10327784951E+03 -0.76386781010E+03  0.16390693090E+04  0.95000000000E+03 0.  0.
   -2000013    1    1    2    0    0  0.10908198084E+04  0.10327784951E+03  0.22655351104E+03  0.14677808630E+04  0.95000000000E+03 0.  0.
<mgrwt>
<rscale>  0 0.30600345E+04</rscale>
<asrwt>0</asrwt>
<pdfrwt beam="2">  1        2 0.28032034E+00 0.30600345E+04</pdfrwt>
<pdfrwt beam="1">  1       -2 0.19765661E+00 0.30600345E+04</pdfrwt>
<totfact> 0.98486246E-01</totfact>
</mgrwt>
</event>
<event>
 4    1  0.2019612E-008  0.2318378E+04  0.7816531E-02  0.8470710E-01
         -2   -1    0    0    0  501 -0.00000000000E+00  0.00000000000E+00  0.62042714754E+03  0.62042714754E+03  0.00000000000E+00 0. -1.
          2   -1    0    0  501    0  0.00000000000E+00 -0.00000000000E+00 -0.21657971466E+04  0.21657971466E+04  0.00000000000E+00 0.  1.
    2000013    1    1    2    0    0  0.27084194225E+02 -0.66262316594E+03 -0.72745627275E+03  0.13680261848E+04  0.95000000000E+03 0.  0.
   -2000013    1    1    2    0    0 -0.27084194225E+02  0.66262316594E+03 -0.81791372634E+03  0.14181981093E+04  0.95000000000E+03 0.  0.
<mgrwt>
<rscale>  0 0.23183782E+04</rscale>
<asrwt>0</asrwt>
<pdfrwt beam="2">  1        2 0.33319956E+00 0.23183782E+04</pdfrwt>
<pdfrwt beam="1">  1       -2 0.95450330E-01 0.23183782E+04</pdfrwt>
<totfact> 0.45033119E+00</totfact>
</mgrwt>
</event>
<event>
 4    1  0.2019612E-008  0.3410750E+04  0.7816531E-02  0.8135273E-01
          2   -1    0    0  501    0  0.00000000000E+00  0.00000000000E+00  0.14055307117E+04  0.14055307117E+04  0.00000000000E+00 0.  1.
         -2   -1    0    0    0  501 -0.00000000000E+00 -0.00000000000E+00 -0.20691854000E+04  0.20691854000E+04  0.00000000000E+00 0. -1.
    2000013    1    1    2    0    0  0.65401242919E+03 -0.12556816949E+04 -0.29460652352E+03  0.17302490515E+04  0.95000000000E+03 0.  0.
   -2000013    1    1    2    0    0 -0.65401242919E+03  0.12556816949E+04 -0.36904816479E+03  0.17444670603E+04  0.95000000000E+03 0.  0.
<mgrwt>
<rscale>  0 0.34107498E+04</rscale>
<asrwt>0</asrwt>
<pdfrwt beam="1">  1        2 0.21623549E+00 0.34107498E+04</pdfrwt>
<pdfrwt beam="2">  1       -2 0.31833621E+00 0.34107498E+04</pdfrwt>
<totfact> 0.29146383E-01</totfact>
</mgrwt>
</event>
<event>
 4    1  0.2019612E-008  0.2971386E+04  0.7816531E-02  0.8251949E-01
         -1   -1    0    0    0  501 -0.00000000000E+00  0.00000000000E+00  0.16737890016E+04  0.16737890016E+04  0.00000000000E+00 0.  1.
          1   -1    0    0  501    0  0.00000000000E+00 -0.00000000000E+00 -0.13187348582E+04  0.13187348582E+04  0.00000000000E+00 0. -1.
    2000013    1    1    2    0    0  0.37017567085E+03  0.10335561080E+04  0.49523219003E+03  0.15339567066E+04  0.95000000000E+03 0.  0.
   -2000013    1    1    2    0    0 -0.37017567085E+03 -0.10335561080E+04 -0.14017804660E+03  0.14585671532E+04  0.95000000000E+03 0.  0.
<mgrwt>
<rscale>  0 0.29713861E+04</rscale>
<asrwt>0</asrwt>
<pdfrwt beam="2">  1        1 0.20288229E+00 0.29713861E+04</pdfrwt>
<pdfrwt beam="1">  1       -1 0.25750600E+00 0.29713861E+04</pdfrwt>
<totfact> 0.46606708E-01</totfact>
</mgrwt>
</event>
<event>
 4    1  0.2019612E-008  0.2291619E+04  0.7816531E-02  0.8481233E-01
          2   -1    0    0  501    0  0.00000000000E+00  0.00000000000E+00  0.33898971993E+04  0.33898971993E+04  0.00000000000E+00 0.  1.
         -2   -1    0    0    0  501 -0.00000000000E+00 -0.00000000000E+00 -0.38729194342E+03  0.38729194342E+03  0.00000000000E+00 0. -1.
    2000013    1    1    2    0    0 -0.43745376171E+03 -0.29657629589E+03  0.20980021076E+04  0.23629295666E+04  0.95000000000E+03 0.  0.
   -2000013    1    1    2    0    0  0.43745376171E+03  0.29657629589E+03  0.90460314825E+03  0.14142595762E+04  0.95000000000E+03 0.  0.
<mgrwt>
<rscale>  0 0.22916194E+04</rscale>
<asrwt>0</asrwt>
<pdfrwt beam="1">  1        2 0.52152263E+00 0.22916194E+04</pdfrwt>
<pdfrwt beam="2">  1       -2 0.59583378E-01 0.22916194E+04</pdfrwt>
<totfact> 0.23150184E+00</totfact>
</mgrwt>
</event>
<event>
 4    1  0.2019612E-008  0.2062788E+04  0.7816531E-02  0.8577815E-01
          2   -1    0    0  501    0  0.00000000000E+00  0.00000000000E+00  0.77920580223E+03  0.77920580223E+03  0.00000000000E+00 0.  1.
         -2   -1    0    0    0  501 -0.00000000000E+00 -0.00000000000E+00 -0.13652019296E+04  0.13652019296E+04  0.00000000000E+00 0. -1.
    2000013    1    1    2    0    0 -0.76873987811E+02  0.37552301388E+03 -0.16848352172E+03  0.10381781355E+04  0.95000000000E+03 0.  0.
   -2000013    1    1    2    0    0  0.76873987811E+02 -0.37552301388E+03 -0.41751260568E+03  0.11062295964E+04  0.95000000000E+03 0.  0.
<mgrwt>
<rscale>  0 0.20627877E+04</rscale>
<asrwt>0</asrwt>
<pdfrwt beam="1">  1        2 0.11987782E+00 0.20627877E+04</pdfrwt>
<pdfrwt beam="2">  1       -2 0.21003106E+00 0.20627877E+04</pdfrwt>
<totfact> 0.37719689E+00</totfact>
</mgrwt>
</event>
<event>
 4    1  0.2019612E-008  0.2315680E+04  0.7816531E-02  0.8471764E-01
          2   -1    0    0  501    0  0.00000000000E+00  0.00000000000E+00  0.28209705904E+04  0.28209705904E+04  0.00000000000E+00 0.  1.
         -2   -1    0    0    0  501 -0.00000000000E+00 -0.00000000000E+00 -0.47522424418E+03  0.47522424418E+03  0.00000000000E+00 0. -1.
    2000013    1    1    2    0    0  0.44387870133E+03  0.36488478982E+03  0.70525203190E+03  0.13153135139E+04  0.95000000000E+03 0.  0.
   -2000013    1    1    2    0    0 -0.44387870133E+03 -0.36488478982E+03  0.16404943144E+04  0.19808813207E+04  0.95000000000E+03 0.  0.
<mgrwt>
<rscale>  0 0.23156801E+04</rscale>
<asrwt>0</asrwt>
<pdfrwt beam="1">  1        2 0.43399547E+00 0.23156801E+04</pdfrwt>
<pdfrwt beam="2">  1       -2 0.73111423E-01 0.23156801E+04</pdfrwt>
<totfact> 0.34366540E+00</totfact>
</mgrwt>
</event>
<event>
 4    1  0.2019612E-008  0.2289404E+04  0.7816531E-02  0.8482111E-01
          2   -1    0    0  501    0  0.00000000000E+00  0.00000000000E+00  0.16220363390E+04  0.16220363390E+04  0.00000000000E+00 0.  1.
         -2   -1    0    0    0  501 -0.00000000000E+00 -0.00000000000E+00 -0.80783819059E+03  0.80783819059E+03  0.00000000000E+00 0. -1.
    2000013    1    1    2    0    0 -0.46011092880E+03  0.43880766011E+03  0.34351794379E+03  0.11936326098E+04  0.95000000000E+03 0.  0.
   -2000013    1    1    2    0    0  0.46011092880E+03 -0.43880766011E+03  0.47068020466E+03  0.12362419199E+04  0.95000000000E+03 0.  0.
<mgrwt>
<rscale>  0 0.22894042E+04</rscale>
<asrwt>0</asrwt>
<pdfrwt beam="1">  1        2 0.24954405E+00 0.22894042E+04</pdfrwt>
<pdfrwt beam="2">  1       -2 0.12428280E+00 0.22894042E+04</pdfrwt>
<totfact> 0.47854827E+00</totfact>
</mgrwt>
</event>
<event>
 4    1  0.2019612E-008  0.2295305E+04  0.7816531E-02  0.8479774E-01
         -1   -1    0    0    0  501 -0.00000000000E+00  0.00000000000E+00  0.32847625633E+03  0.32847625633E+03  0.00000000000E+00 0. -1.
          1   -1    0    0  501    0  0.00000000000E+00 -0.00000000000E+00 -0.40097474400E+04  0.40097474400E+04  0.00000000000E+00 0.  1.
    2000013    1    1    2    0    0 -0.21613614401E+03  0.21916010495E+03 -0.29095722847E+04  0.30761756881E+04  0.95000000000E+03 0.  0.
   -2000013    1    1    2    0    0  0.21613614401E+03 -0.21916010495E+03 -0.77169889901E+03  0.12620480082E+04  0.95000000000E+03 0.  0.
<mgrwt>
<rscale>  0 0.22953055E+04</rscale>
<asrwt>0</asrwt>
<pdfrwt beam="2">  1        1 0.61688421E+00 0.22953055E+04</pdfrwt>
<pdfrwt beam="1">  1       -1 0.50534809E-01 0.22953055E+04</pdfrwt>
<totfact> 0.33611237E-01</totfact>
</mgrwt>
</event>
<event>
 4    1  0.2019612E-008  0.2508779E+04  0.7816531E-02  0.8399865E-01
         -2   -1    0    0    0  501 -0.00000000000E+00  0.00000000000E+00  0.12627602371E+04  0.12627602371E+04  0.00000000000E+00 0. -1.
          2   -1    0    0  501    0  0.00000000000E+00 -0.00000000000E+00 -0.12460745795E+04  0.12460745795E+04  0.00000000000E+00 0.  1.
    2000013    1    1    2    0    0  0.59452553347E+03 -0.10711371756E+03 -0.54489582801E+03  0.12507379509E+04  0.95000000000E+03 0.  0.
   -2000013    1    1    2    0    0 -0.59452553347E+03  0.10711371756E+03  0.56158148562E+03  0.12580968657E+04  0.95000000000E+03 0.  0.
<mgrwt>
<rscale>  0 0.25087793E+04</rscale>
<asrwt>0</asrwt>
<pdfrwt beam="2">  1        2 0.19170378E+00 0.25087793E+04</pdfrwt>
<pdfrwt beam="1">  1       -2 0.19427081E+00 0.25087793E+04</pdfrwt>
<totfact> 0.23001120E+00</totfact>
</mgrwt>
</event>
<event>
 4    1  0.2019612E-008  0.2958663E+04  0.7816531E-02  0.8255634E-01
         -2   -1    0    0    0  501 -0.00000000000E+00  0.00000000000E+00  0.12404566928E+04  0.12404566928E+04  0.00000000000E+00 0. -1.
          2   -1    0    0  501    0  0.00000000000E+00 -0.00000000000E+00 -0.17642064887E+04  0.17642064887E+04  0.00000000000E+00 0.  1.
    2000013    1    1    2    0    0 -0.10553733632E+04 -0.40811939745E+03 -0.33751355088E+03  0.15155163395E+04  0.95000000000E+03 0.  0.
   -2000013    1    1    2    0    0  0.10553733632E+04  0.40811939745E+03 -0.18623624499E+03  0.14891468420E+04  0.95000000000E+03 0.  0.
<mgrwt>
<rscale>  0 0.29586630E+04</rscale>
<asrwt>0</asrwt>
<pdfrwt beam="2">  1        2 0.27141638E+00 0.29586630E+04</pdfrwt>
<pdfrwt beam="1">  1       -2 0.19083949E+00 0.29586630E+04</pdfrwt>
<totfact> 0.11872437E+00</totfact>
</mgrwt>
</event>
<event>
 4    1  0.2019612E-008  0.3814118E+04  0.7816531E-02  0.8043132E-01
          2   -1    0    0  501    0  0.00000000000E+00  0.00000000000E+00  0.17763472913E+04  0.17763472913E+04  0.00000000000E+00 0.  1.
         -2   -1    0    0    0  501 -0.00000000000E+00 -0.00000000000E+00 -0.20473891986E+04  0.20473891986E+04  0.00000000000E+00 0. -1.
    2000013    1    1    2    0    0  0.92622741451E+03  0.11870709336E+04  0.54982542651E+03  0.18632881217E+04  0.95000000000E+03 0.  0.
   -2000013    1    1    2    0    0 -0.92622741451E+03 -0.11870709336E+04 -0.82086733373E+03  0.19604483682E+04  0.95000000000E+03 0.  0.
<mgrwt>
<rscale>  0 0.38141181E+04</rscale>
<asrwt>0</asrwt>
<pdfrwt beam="1">  1        2 0.27328420E+00 0.38141181E+04</pdfrwt>
<pdfrwt beam="2">  1       -2 0.31498295E+00 0.38141181E+04</pdfrwt>
<totfact> 0.18313551E-01</totfact>
</mgrwt>
</event>
<event>
 4    1  0.2019612E-008  0.2707352E+04  0.7816531E-02  0.8332623E-01
         -2   -1    0    0    0  501 -0.00000000000E+00  0.00000000000E+00  0.71881747202E+03  0.71881747202E+03  0.00000000000E+00 0. -1.
          2   -1    0    0  501    0  0.00000000000E+00 -0.00000000000E+00 -0.25492404081E+04  0.25492404081E+04  0.00000000000E+00 0.  1.
    2000013    1    1    2    0    0 -0.24868962848E+03 -0.46857113685E+03  0.56888904002E+02  0.10895603650E+04  0.95000000000E+03 0.  0.
   -2000013    1    1    2    0    0  0.24868962848E+03  0.46857113685E+03 -0.18873118400E+04  0.21784975151E+04  0.95000000000E+03 0.  0.
<mgrwt>
<rscale>  0 0.27073519E+04</rscale>
<asrwt>0</asrwt>
<pdfrwt beam="2">  1        2 0.39219083E+00 0.27073519E+04</pdfrwt>
<pdfrwt beam="1">  1       -2 0.11058730E+00 0.27073519E+04</pdfrwt>
<totfact> 0.18527038E+00</totfact>
</mgrwt>
</event>
<event>
 4    1  0.2019612E-008  0.2848407E+04  0.7816531E-02  0.8288395E-01
         -2   -1    0    0    0  501 -0.00000000000E+00  0.00000000000E+00  0.10903372143E+04  0.10903372143E+04  0.00000000000E+00 0. -1.
          2   -1    0    0  501    0  0.00000000000E+00 -0.00000000000E+00 -0.18603015172E+04  0.18603015172E+04  0.00000000000E+00 0.  1.
    2000013    1    1    2    0    0 -0.80784495404E+03 -0.55483014978E-01  0.32763427008E+03  0.12893632877E+04  0.95000000000E+03 0.  0.
   -2000013    1    1    2    0    0  0.80784495404E+03  0.55483014978E-01 -0.10975985730E+04  0.16612754438E+04  0.95000000000E+03 0.  0.
<mgrwt>
<rscale>  0 0.28484073E+04</rscale>
<asrwt>0</asrwt>
<pdfrwt beam="2">  1        2 0.28620023E+00 0.28484073E+04</pdfrwt>
<pdfrwt beam="1">  1       -2 0.16774419E+00 0.28484073E+04</pdfrwt>
<totfact> 0.15317570E+00</totfact>
</mgrwt>
</event>
<event>
 4    1  0.2019612E-008  0.2838703E+04  0.7816531E-02  0.8291352E-01
         -2   -1    0    0    0  501 -0.00000000000E+00  0.00000000000E+00  0.75956907633E+03  0.75956907633E+03  0.00000000000E+00 0. -1.
          2   -1    0    0  501    0  0.00000000000E+00 -0.00000000000E+00 -0.26522391913E+04  0.26522391913E+04  0.00000000000E+00 0.  1.
    2000013    1    1    2    0    0  0.62711156814E+03  0.56586026620E+03 -0.18753214297E+03  0.12849650051E+04  0.95000000000E+03 0.  0.
   -2000013    1    1    2    0    0 -0.62711156814E+03 -0.56586026620E+03 -0.17051379720E+04  0.21268432625E+04  0.95000000000E+03 0.  0.
<mgrwt>
<rscale>  0 0.28387031E+04</rscale>
<asrwt>0</asrwt>
<pdfrwt beam="2">  1        2 0.40803679E+00 0.28387031E+04</pdfrwt>
<pdfrwt beam="1">  1       -2 0.11685678E+00 0.28387031E+04</pdfrwt>
<totfact> 0.13937166E+00</totfact>
</mgrwt>
</event>
<event>
 4    1  0.2019612E-008  0.2542474E+04  0.7816531E-02  0.8388008E-01
         -1   -1    0    0    0  501 -0.00000000000E+00  0.00000000000E+00  0.19275652678E+04  0.19275652678E+04  0.00000000000E+00 0. -1.
          1   -1    0    0  501    0  0.00000000000E+00 -0.00000000000E+00 -0.83838601654E+03  0.83838601654E+03  0.00000000000E+00 0.  1.
    2000013    1    1    2    0    0 -0.76061766334E+03  0.15927489099E+03  0.18437225346E+03  0.12411288606E+04  0.95000000000E+03 0.  0.
   -2000013    1    1    2    0    0  0.76061766334E+03 -0.15927489099E+03  0.90480699776E+03  0.15248224237E+04  0.95000000000E+03 0.  0.
<mgrwt>
<rscale>  0 0.25424742E+04</rscale>
<asrwt>0</asrwt>
<pdfrwt beam="2">  1        1 0.12898246E+00 0.25424742E+04</pdfrwt>
<pdfrwt beam="1">  1       -1 0.29654850E+00 0.25424742E+04</pdfrwt>
<totfact> 0.63058030E-01</totfact>
</mgrwt>
</event>
<event>
 4    1  0.2019612E-008  0.2193516E+04  0.7816531E-02  0.8521132E-01
         -1   -1    0    0    0  501 -0.00000000000E+00  0.00000000000E+00  0.20082800458E+04  0.20082800458E+04  0.00000000000E+00 0. -1.
          1   -1    0    0  501    0  0.00000000000E+00 -0.00000000000E+00 -0.59895948442E+03  0.59895948442E+03  0.00000000000E+00 0.  1.
    2000013    1    1    2    0    0 -0.25176462041E+03 -0.32321353900E+03  0.11373639363E+04  0.15375139477E+04  0.95000000000E+03 0.  0.
   -2000013    1    1    2    0    0  0.25176462041E+03  0.32321353900E+03  0.27195662509E+03  0.10697255825E+04  0.95000000000E+03 0.  0.
<mgrwt>
<rscale>  0 0.21935162E+04</rscale>
<asrwt>0</asrwt>
<pdfrwt beam="2">  1        1 0.92147614E-01 0.21935162E+04</pdfrwt>
<pdfrwt beam="1">  1       -1 0.30896616E+00 0.21935162E+04</pdfrwt>
<totfact> 0.90500653E-01</totfact>
</mgrwt>
</event>
<event>
 4    1  0.2019612E-008  0.2184731E+04  0.7816531E-02  0.8524810E-01
         -2   -1    0    0    0  501 -0.00000000000E+00  0.00000000000E+00  0.92151292932E+03  0.92151292932E+03  0.00000000000E+00 0.  1.
          2   -1    0    0  501    0  0.00000000000E+00 -0.00000000000E+00 -0.12948951187E+04  0.12948951187E+04  0.00000000000E+00 0. -1.
    2000013    1    1    2    0    0 -0.17232531300E+03 -0.45311271834E+03 -0.42624064098E+03  0.11485591988E+04  0.95000000000E+03 0.  0.
   -2000013    1    1    2    0    0  0.17232531300E+03  0.45311271834E+03  0.52858451567E+02  0.10678488493E+04  0.95000000000E+03 0.  0.
<mgrwt>
<rscale>  0 0.21847312E+04</rscale>
<asrwt>0</asrwt>
<pdfrwt beam="2">  1        2 0.19921463E+00 0.21847312E+04</pdfrwt>
<pdfrwt beam="1">  1       -2 0.14177122E+00 0.21847312E+04</pdfrwt>
<totfact> 0.52957603E+00</totfact>
</mgrwt>
</event>
<event>
 4    1  0.2019612E-008  0.2496286E+04  0.7816531E-02  0.8404310E-01
          2   -1    0    0  501    0  0.00000000000E+00  0.00000000000E+00  0.12527440885E+04  0.12527440885E+04  0.00000000000E+00 0.  1.
         -2   -1    0    0    0  501 -0.00000000000E+00 -0.00000000000E+00 -0.12435587211E+04  0.12435587211E+04  0.00000000000E+00 0. -1.
    2000013    1    1    2    0    0 -0.57418649428E+03 -0.49874262208E+03 -0.27276546875E+03  0.12471308409E+04  0.95000000000E+03 0.  0.
   -2000013    1    1    2    0    0  0.57418649428E+03  0.49874262208E+03  0.28195083616E+03  0.12491719687E+04  0.95000000000E+03 0.  0.
<mgrwt>
<rscale>  0 0.24962859E+04</rscale>
<asrwt>0</asrwt>
<pdfrwt beam="1">  1        2 0.19272986E+00 0.24962859E+04</pdfrwt>
<pdfrwt beam="2">  1       -2 0.19131673E+00 0.24962859E+04</pdfrwt>
<totfact> 0.23878289E+00</totfact>
</mgrwt>
</event>
<event>
 4    1  0.2019612E-008  0.2076007E+04  0.7816531E-02  0.8571887E-01
         -2   -1    0    0    0  501 -0.00000000000E+00  0.00000000000E+00  0.10788894866E+04  0.10788894866E+04  0.00000000000E+00 0. -1.
          2   -1    0    0  501    0  0.00000000000E+00 -0.00000000000E+00 -0.99866734259E+03  0.99866734259E+03  0.00000000000E+00 0.  1.
    2000013    1    1    2    0    0 -0.15227608728E+03  0.37724382028E+03  0.13739880061E+03  0.10425350532E+04  0.95000000000E+03 0.  0.
   -2000013    1    1    2    0    0  0.15227608728E+03 -0.37724382028E+03 -0.57176656623E+02  0.10350217760E+04  0.95000000000E+03 0.  0.
<mgrwt>
<rscale>  0 0.20760074E+04</rscale>
<asrwt>0</asrwt>
<pdfrwt beam="2">  1        2 0.15364113E+00 0.20760074E+04</pdfrwt>
<pdfrwt beam="1">  1       -2 0.16598300E+00 0.20760074E+04</pdfrwt>
<totfact> 0.53066169E+00</totfact>
</mgrwt>
</event>
<event>
 4    1  0.2019612E-008  0.3360081E+04  0.7816531E-02  0.8147774E-01
          2   -1    0    0  501    0  0.00000000000E+00  0.00000000000E+00  0.20722527963E+04  0.20722527963E+04  0.00000000000E+00 0.  1.
         -2   -1    0    0    0  501 -0.00000000000E+00 -0.00000000000E+00 -0.13620618306E+04  0.13620618306E+04  0.00000000000E+00 0. -1.
    2000013    1    1    2    0    0  0.86279125335E+02 -0.45987319599E+03  0.16881759826E+04  0.19928285406E+04  0.95000000000E+03 0.  0.
   -2000013    1    1    2    0    0 -0.86279125335E+02  0.45987319599E+03 -0.97798501685E+03  0.14414860863E+04  0.95000000000E+03 0.  0.
<mgrwt>
<rscale>  0 0.33600812E+04</rscale>
<asrwt>0</asrwt>
<pdfrwt beam="1">  1        2 0.31880812E+00 0.33600812E+04</pdfrwt>
<pdfrwt beam="2">  1       -2 0.20954798E+00 0.33600812E+04</pdfrwt>
<totfact> 0.58347905E-01</totfact>
</mgrwt>
</event>
<event>
 4    1  0.2019612E-008  0.3473734E+04  0.7816531E-02  0.8120043E-01
          2   -1    0    0  501    0  0.00000000000E+00  0.00000000000E+00  0.24733730707E+04  0.24733730707E+04  0.00000000000E+00 0.  1.
         -2   -1    0    0    0  501 -0.00000000000E+00 -0.00000000000E+00 -0.12196733202E+04  0.12196733202E+04  0.00000000000E+00 0. -1.
    2000013    1    1    2    0    0 -0.14058035058E+03  0.14471163762E+04  0.60848181044E+03  0.18402876826E+04  0.95000000000E+03 0.  0.
   -2000013    1    1    2    0    0  0.14058035058E+03 -0.14471163762E+04  0.64521794006E+03  0.18527587083E+04  0.95000000000E+03 0.  0.
<mgrwt>
<rscale>  0 0.34737341E+04</rscale>
<asrwt>0</asrwt>
<pdfrwt beam="1">  1        2 0.38051893E+00 0.34737341E+04</pdfrwt>
<pdfrwt beam="2">  1       -2 0.18764205E+00 0.34737341E+04</pdfrwt>
<totfact> 0.47749339E-01</totfact>
</mgrwt>
</event>
<event>
 4    1  0.2019612E-008  0.2709230E+04  0.7816531E-02  0.8332016E-01
         -2   -1    0    0    0  501 -0.00000000000E+00  0.00000000000E+00  0.81154879393E+03  0.81154879393E+03  0.00000000000E+00 0. -1.
          2   -1    0    0  501    0  0.00000000000E+00 -0.00000000000E+00 -0.22610862214E+04  0.22610862214E+04  0.00000000000E+00 0.  1.
    2000013    1    1    2    0    0 -0.74383325030E+03  0.22003991399E+03 -0.13770460822E+04  0.18440339966E+04  0.95000000000E+03 0.  0.
   -2000013    1    1    2    0    0  0.74383325030E+03 -0.22003991399E+03 -0.72491345200E+02  0.12286010187E+04  0.95000000000E+03 0.  0.
<mgrwt>
<rscale>  0 0.27092300E+04</rscale>
<asrwt>0</asrwt>
<pdfrwt beam="2">  1        2 0.34785942E+00 0.27092300E+04</pdfrwt>
<pdfrwt beam="1">  1       -2 0.12485366E+00 0.27092300E+04</pdfrwt>
<totfact> 0.20105681E+00</totfact>
</mgrwt>
</event>
<event>
 4    1  0.2019612E-008  0.2829217E+04  0.7816531E-02  0.8294255E-01
          2   -1    0    0  501    0  0.00000000000E+00  0.00000000000E+00  0.28892977097E+04  0.28892977097E+04  0.00000000000E+00 0.  1.
         -2   -1    0    0    0  501 -0.00000000000E+00 -0.00000000000E+00 -0.69259641506E+03  0.69259641506E+03  0.00000000000E+00 0. -1.
    2000013    1    1    2    0    0 -0.49511054167E+03  0.79337845367E+03  0.49910776581E+03  0.14234438454E+04  0.95000000000E+03 0.  0.
   -2000013    1    1    2    0    0  0.49511054167E+03 -0.79337845367E+03  0.16975935289E+04  0.21584502794E+04  0.95000000000E+03 0.  0.
<mgrwt>
<rscale>  0 0.28292170E+04</rscale>
<asrwt>0</asrwt>
<pdfrwt beam="1">  1        2 0.44450733E+00 0.28292170E+04</pdfrwt>
<pdfrwt beam="2">  1       -2 0.10655330E+00 0.28292170E+04</pdfrwt>
<totfact> 0.12558725E+00</totfact>
</mgrwt>
</event>
<event>
 4    1  0.2019612E-008  0.4983535E+04  0.7816531E-02  0.7831052E-01
         -2   -1    0    0    0  501 -0.00000000000E+00  0.00000000000E+00  0.20052217000E+04  0.20052217000E+04  0.00000000000E+00 0. -1.
          2   -1    0    0  501    0  0.00000000000E+00 -0.00000000000E+00 -0.30963680123E+04  0.30963680123E+04  0.00000000000E+00 0.  1.
    2000013    1    1    2    0    0  0.10316257764E+04  0.42508252641E+03  0.15174732706E+04  0.21095430841E+04  0.95000000000E+03 0.  0.
   -2000013    1    1    2    0    0 -0.10316257764E+04 -0.42508252641E+03 -0.26086195829E+04  0.29920466281E+04  0.95000000000E+03 0.  0.
<mgrwt>
<rscale>  0 0.49835346E+04</rscale>
<asrwt>0</asrwt>
<pdfrwt beam="2">  1        2 0.47636431E+00 0.49835346E+04</pdfrwt>
<pdfrwt beam="1">  1       -2 0.30849565E+00 0.49835346E+04</pdfrwt>
<totfact> 0.31067619E-02</totfact>
</mgrwt>
</event>
<event>
 4    1  0.2019612E-008  0.2279444E+04  0.7816531E-02  0.8486070E-01
          2   -1    0    0  501    0  0.00000000000E+00  0.00000000000E+00  0.16855324808E+04  0.16855324808E+04  0.00000000000E+00 0.  1.
         -2   -1    0    0    0  501 -0.00000000000E+00 -0.00000000000E+00 -0.77065660638E+03  0.77065660638E+03  0.00000000000E+00 0. -1.
    2000013    1    1    2    0    0  0.57054832606E+02 -0.60481236252E+03  0.27902966777E+03  0.11616414263E+04  0.95000000000E+03 0.  0.
   -2000013    1    1    2    0    0 -0.57054832606E+02  0.60481236252E+03  0.63584620664E+03  0.12945476609E+04  0.95000000000E+03 0.  0.
<mgrwt>
<rscale>  0 0.22794444E+04</rscale>
<asrwt>0</asrwt>
<pdfrwt beam="1">  1        2 0.25931269E+00 0.22794444E+04</pdfrwt>
<pdfrwt beam="2">  1       -2 0.11856255E+00 0.22794444E+04</pdfrwt>
<totfact> 0.49646353E+00</totfact>
</mgrwt>
</event>
<event>
 4    1  0.2019612E-008  0.2208974E+04  0.7816531E-02  0.8514702E-01
         -2   -1    0    0    0  501 -0.00000000000E+00  0.00000000000E+00  0.88526038814E+03  0.88526038814E+03  0.00000000000E+00 0. -1.
          2   -1    0    0  501    0  0.00000000000E+00 -0.00000000000E+00 -0.13780030376E+04  0.13780030376E+04  0.00000000000E+00 0.  1.
    2000013    1    1    2    0    0  0.10632524055E+03  0.23722529030E+03  0.26572297923E+03  0.10201419494E+04  0.95000000000E+03 0.  0.
   -2000013    1    1    2    0    0 -0.10632524055E+03 -0.23722529030E+03 -0.75846562870E+03  0.12431214764E+04  0.95000000000E+03 0.  0.
<mgrwt>
<rscale>  0 0.22089740E+04</rscale>
<asrwt>0</asrwt>
<pdfrwt beam="2">  1        2 0.21200047E+00 0.22089740E+04</pdfrwt>
<pdfrwt beam="1">  1       -2 0.13619391E+00 0.22089740E+04</pdfrwt>
<totfact> 0.52493969E+00</totfact>
</mgrwt>
</event>
<event>
 4    1  0.2019612E-008  0.2689318E+04  0.7816531E-02  0.8338479E-01
         -2   -1    0    0    0  501 -0.00000000000E+00  0.00000000000E+00  0.10171170557E+04  0.10171170557E+04  0.00000000000E+00 0. -1.
          2   -1    0    0  501    0  0.00000000000E+00 -0.00000000000E+00 -0.17776786588E+04  0.17776786588E+04  0.00000000000E+00 0.  1.
    2000013    1    1    2    0    0 -0.59191026882E+03 -0.67727059765E+03 -0.57362073536E+02  0.13095203841E+04  0.95000000000E+03 0.  0.
   -2000013    1    1    2    0    0  0.59191026882E+03  0.67727059765E+03 -0.70319952960E+03  0.14852753304E+04  0.95000000000E+03 0.  0.
<mgrwt>
<rscale>  0 0.26893176E+04</rscale>
<asrwt>0</asrwt>
<pdfrwt beam="2">  1        2 0.27348902E+00 0.26893176E+04</pdfrwt>
<pdfrwt beam="1">  1       -2 0.15647955E+00 0.26893176E+04</pdfrwt>
<totfact> 0.20863321E+00</totfact>
</mgrwt>
</event>
<event>
 4    1  0.2019612E-008  0.2104105E+04  0.7816531E-02  0.8559437E-01
          2   -1    0    0  501    0  0.00000000000E+00  0.00000000000E+00  0.95671885111E+03  0.95671885111E+03  0.00000000000E+00 0.  1.
         -2   -1    0    0    0  501 -0.00000000000E+00 -0.00000000000E+00 -0.11568858992E+04  0.11568858992E+04  0.00000000000E+00 0. -1.
    2000013    1    1    2    0    0  0.55264434208E+02  0.44721987096E+03 -0.64500754805E+02  0.10534325408E+04  0.95000000000E+03 0.  0.
   -2000013    1    1    2    0    0 -0.55264434208E+02 -0.44721987096E+03 -0.13566629328E+03  0.10601722095E+04  0.95000000000E+03 0.  0.
<mgrwt>
<rscale>  0 0.21041051E+04</rscale>
<asrwt>0</asrwt>
<pdfrwt beam="1">  1        2 0.14718752E+00 0.21041051E+04</pdfrwt>
<pdfrwt beam="2">  1       -2 0.17798245E+00 0.21041051E+04</pdfrwt>
<totfact> 0.46351550E+00</totfact>
</mgrwt>
</event>
<event>
 4    1  0.2019612E-008  0.2285861E+04  0.7816531E-02  0.8483517E-01
         -2   -1    0    0    0  501 -0.00000000000E+00  0.00000000000E+00  0.45540460561E+03  0.45540460561E+03  0.00000000000E+00 0. -1.
          2   -1    0    0  501    0  0.00000000000E+00 -0.00000000000E+00 -0.28684175006E+04  0.28684175006E+04  0.00000000000E+00 0.  1.
    2000013    1    1    2    0    0  0.72447194319E+02  0.60991471110E+03 -0.96959429058E+03  0.14899186686E+04  0.95000000000E+03 0.  0.
   -2000013    1    1    2    0    0 -0.72447194319E+02 -0.60991471110E+03 -0.14434186044E+04  0.18339034375E+04  0.95000000000E+03 0.  0.
<mgrwt>
<rscale>  0 0.22858614E+04</rscale>
<asrwt>0</asrwt>
<pdfrwt beam="2">  1        2 0.44129500E+00 0.22858614E+04</pdfrwt>
<pdfrwt beam="1">  1       -2 0.70062246E-01 0.22858614E+04</pdfrwt>
<totfact> 0.35397209E+00</totfact>
</mgrwt>
</event>
<event>
 4    1  0.2019612E-008  0.2330213E+04  0.7816531E-02  0.8466103E-01
         -2   -1    0    0    0  501 -0.00000000000E+00  0.00000000000E+00  0.99692004603E+03  0.99692004603E+03  0.00000000000E+00 0. -1.
          2   -1    0    0  501    0  0.00000000000E+00 -0.00000000000E+00 -0.13616675108E+04  0.13616675108E+04  0.00000000000E+00 0.  1.
    2000013    1    1    2    0    0  0.11755035525E+03  0.33639106332E+03 -0.76205728576E+03  0.12689398490E+04  0.95000000000E+03 0.  0.
   -2000013    1    1    2    0    0 -0.11755035525E+03 -0.33639106332E+03  0.39730982097E+03  0.10896477079E+04  0.95000000000E+03 0.  0.
<mgrwt>
<rscale>  0 0.23302134E+04</rscale>
<asrwt>0</asrwt>
<pdfrwt beam="2">  1        2 0.20948731E+00 0.23302134E+04</pdfrwt>
<pdfrwt beam="1">  1       -2 0.15337231E+00 0.23302134E+04</pdfrwt>
<totfact> 0.38886034E+00</totfact>
</mgrwt>
</event>
<event>
 4    1  0.2019612E-008  0.2801831E+04  0.7816531E-02  0.8302700E-01
          2   -1    0    0  501    0  0.00000000000E+00  0.00000000000E+00  0.14238111376E+04  0.14238111376E+04  0.00000000000E+00 0.  1.
         -2   -1    0    0    0  501 -0.00000000000E+00 -0.00000000000E+00 -0.13783878295E+04  0.13783878295E+04  0.00000000000E+00 0. -1.
    2000013    1    1    2    0    0 -0.26706349899E+03 -0.95191769485E+03 -0.26471736583E+03  0.13964402938E+04  0.95000000000E+03 0.  0.
   -2000013    1    1    2    0    0  0.26706349899E+03  0.95191769485E+03  0.31014067394E+03  0.14057586734E+04  0.95000000000E+03 0.  0.
<mgrwt>
<rscale>  0 0.28018308E+04</rscale>
<asrwt>0</asrwt>
<pdfrwt beam="1">  1        2 0.21904787E+00 0.28018308E+04</pdfrwt>
<pdfrwt beam="2">  1       -2 0.21205967E+00 0.28018308E+04</pdfrwt>
<totfact> 0.13552391E+00</totfact>
</mgrwt>
</event>
<event>
 4    1  0.2019612E-008  0.2171239E+04  0.7816531E-02  0.8530495E-01
          2   -1    0    0  501    0  0.00000000000E+00  0.00000000000E+00  0.24172687642E+04  0.24172687642E+04  0.00000000000E+00 0.  1.
         -2   -1    0    0    0  501 -0.00000000000E+00 -0.00000000000E+00 -0.48756246416E+03  0.48756246416E+03  0.00000000000E+00 0. -1.
    2000013    1    1    2    0    0  0.12595486134E+03 -0.34720302158E+03  0.14648203045E+04  0.17845484274E+04  0.95000000000E+03 0.  0.
   -2000013    1    1    2    0    0 -0.12595486134E+03  0.34720302158E+03  0.46488599554E+03  0.11202828010E+04  0.95000000000E+03 0.  0.
<mgrwt>
<rscale>  0 0.21712388E+04</rscale>
<asrwt>0</asrwt>
<pdfrwt beam="1">  1        2 0.37188750E+00 0.21712388E+04</pdfrwt>
<pdfrwt beam="2">  1       -2 0.75009611E-01 0.21712388E+04</pdfrwt>
<totfact> 0.56835464E+00</totfact>
</mgrwt>
</event>
<event>
 4    1  0.2019612E-008  0.2139986E+04  0.7816531E-02  0.8543831E-01
          2   -1    0    0  501    0  0.00000000000E+00  0.00000000000E+00  0.13642171384E+04  0.13642171384E+04  0.00000000000E+00 0.  1.
         -2   -1    0    0    0  501 -0.00000000000E+00 -0.00000000000E+00 -0.83922524901E+03  0.83922524901E+03  0.00000000000E+00 0. -1.
    2000013    1    1    2    0    0  0.43349797597E+03 -0.17943930353E+03  0.41614034880E+03  0.11383284889E+04  0.95000000000E+03 0.  0.
   -2000013    1    1    2    0    0 -0.43349797597E+03  0.17943930353E+03  0.10885154058E+03  0.10651138985E+04  0.95000000000E+03 0.  0.
<mgrwt>
<rscale>  0 0.21399864E+04</rscale>
<asrwt>0</asrwt>
<pdfrwt beam="1">  1        2 0.20987956E+00 0.21399864E+04</pdfrwt>
<pdfrwt beam="2">  1       -2 0.12911158E+00 0.21399864E+04</pdfrwt>
<totfact> 0.61598150E+00</totfact>
</mgrwt>
</event>
<event>
 4    1  0.2019612E-008  0.3041715E+04  0.7816531E-02  0.8231918E-01
          1   -1    0    0  501    0  0.00000000000E+00  0.00000000000E+00  0.14871734560E+04  0.14871734560E+04  0.00000000000E+00 0.  1.
         -1   -1    0    0    0  501 -0.00000000000E+00 -0.00000000000E+00 -0.15553046338E+04  0.15553046338E+04  0.00000000000E+00 0. -1.
    2000013    1    1    2    0    0  0.70940770620E+03 -0.87206976743E+03  0.34910071594E+03  0.15126586802E+04  0.95000000000E+03 0.  0.
   -2000013    1    1    2    0    0 -0.70940770620E+03  0.87206976743E+03 -0.41723189378E+03  0.15298194096E+04  0.95000000000E+03 0.  0.
<mgrwt>
<rscale>  0 0.30417152E+04</rscale>
<asrwt>0</asrwt>
<pdfrwt beam="1">  1        1 0.22879592E+00 0.30417152E+04</pdfrwt>
<pdfrwt beam="2">  1       -1 0.23927764E+00 0.30417152E+04</pdfrwt>
<totfact> 0.46413767E-01</totfact>
</mgrwt>
</event>
<event>
 4    1  0.2019612E-008  0.2031783E+04  0.7816531E-02  0.8591903E-01
          2   -1    0    0  501    0  0.00000000000E+00  0.00000000000E+00  0.23551134298E+04  0.23551134298E+04  0.00000000000E+00 0.  1.
         -2   -1    0    0    0  501 -0.00000000000E+00 -0.00000000000E+00 -0.43821071088E+03  0.43821071088E+03  0.00000000000E+00 0. -1.
    2000013    1    1    2    0    0 -0.24297735366E+03  0.44368474415E+02  0.59855097243E+03  0.11496824877E+04  0.95000000000E+03 0.  0.
   -2000013    1    1    2    0    0  0.24297735366E+03 -0.44368474415E+02  0.13183517465E+04  0.16436416530E+04  0.95000000000E+03 0.  0.
<mgrwt>
<rscale>  0 0.20317834E+04</rscale>
<asrwt>0</asrwt>
<pdfrwt beam="1">  1        2 0.36232513E+00 0.20317834E+04</pdfrwt>
<pdfrwt beam="2">  1       -2 0.67417034E-01 0.20317834E+04</pdfrwt>
<totfact> 0.78868105E+00</totfact>
</mgrwt>
</event>
<event>
 4    1  0.2019612E-008  0.2173414E+04  0.7816531E-02  0.8529576E-01
          2   -1    0    0  501    0  0.00000000000E+00  0.00000000000E+00  0.13140819694E+04  0.13140819694E+04  0.00000000000E+00 0.  1.
         -2   -1    0    0    0  501 -0.00000000000E+00 -0.00000000000E+00 -0.89867485305E+03  0.89867485305E+03  0.00000000000E+00 0. -1.
    2000013    1    1    2    0    0 -0.90733050215E+02 -0.18351597702E+03 -0.28743503289E+03  0.10134246387E+04  0.95000000000E+03 0.  0.
   -2000013    1    1    2    0    0  0.90733050215E+02  0.18351597702E+03  0.70284214926E+03  0.11993321838E+04  0.95000000000E+03 0.  0.
<mgrwt>
<rscale>  0 0.21734143E+04</rscale>
<asrwt>0</asrwt>
<pdfrwt beam="1">  1        2 0.20216645E+00 0.21734143E+04</pdfrwt>
<pdfrwt beam="2">  1       -2 0.13825767E+00 0.21734143E+04</pdfrwt>
<totfact> 0.55143244E+00</totfact>
</mgrwt>
</event>
<event>
 4    1  0.2019612E-008  0.3227774E+04  0.7816531E-02  0.8181520E-01
          2   -1    0    0  501    0  0.00000000000E+00  0.00000000000E+00  0.20676437311E+04  0.20676437311E+04  0.00000000000E+00 0. -1.
         -2   -1    0    0    0  501 -0.00000000000E+00 -0.00000000000E+00 -0.12597096862E+04  0.12597096862E+04  0.00000000000E+00 0.  1.
    2000013    1    1    2    0    0  0.11139434684E+04 -0.12401339988E+03 -0.28437701630E+03  0.14965358872E+04  0.95000000000E+03 0.  0.
   -2000013    1    1    2    0    0 -0.11139434684E+04  0.12401339988E+03  0.10923110612E+04  0.18308175301E+04  0.95000000000E+03 0.  0.
<mgrwt>
<rscale>  0 0.32277737E+04</rscale>
<asrwt>0</asrwt>
<pdfrwt beam="1">  1        2 0.31809903E+00 0.32277737E+04</pdfrwt>
<pdfrwt beam="2">  1       -2 0.19380149E+00 0.32277737E+04</pdfrwt>
<totfact> 0.75234379E-01</totfact>
</mgrwt>
</event>
<event>
 4    1  0.2019612E-008  0.2342799E+04  0.7816531E-02  0.8461235E-01
          2   -1    0    0  501    0  0.00000000000E+00  0.00000000000E+00  0.29301449869E+04  0.29301449869E+04  0.00000000000E+00 0.  1.
         -2   -1    0    0    0  501 -0.00000000000E+00 -0.00000000000E+00 -0.46829664637E+03  0.46829664637E+03  0.00000000000E+00 0. -1.
    2000013    1    1    2    0    0 -0.64986921540E+03 -0.20674077195E+03  0.11324834074E+04  0.16279098292E+04  0.95000000000E+03 0.  0.
   -2000013    1    1    2    0    0  0.64986921540E+03  0.20674077195E+03  0.13293649332E+04  0.17705318042E+04  0.95000000000E+03 0.  0.
<mgrwt>
<rscale>  0 0.23427992E+04</rscale>
<asrwt>0</asrwt>
<pdfrwt beam="1">  1        2 0.45079153E+00 0.23427992E+04</pdfrwt>
<pdfrwt beam="2">  1       -2 0.72045640E-01 0.23427992E+04</pdfrwt>
<totfact> 0.30361216E+00</totfact>
</mgrwt>
</event>
<event>
 4    1  0.2019612E-008  0.2347173E+04  0.7816531E-02  0.8459550E-01
         -2   -1    0    0    0  501 -0.00000000000E+00  0.00000000000E+00  0.74963270600E+03  0.74963270600E+03  0.00000000000E+00 0.  1.
          2   -1    0    0  501    0  0.00000000000E+00 -0.00000000000E+00 -0.18373067606E+04  0.18373067606E+04  0.00000000000E+00 0. -1.
    2000013    1    1    2    0    0  0.13369078997E+03 -0.67510630600E+03 -0.50624273284E+03  0.12776632797E+04  0.95000000000E+03 0.  0.
   -2000013    1    1    2    0    0 -0.13369078997E+03  0.67510630600E+03 -0.58143132181E+03  0.13092761869E+04  0.95000000000E+03 0.  0.
<mgrwt>
<rscale>  0 0.23471730E+04</rscale>
<asrwt>0</asrwt>
<pdfrwt beam="2">  1        2 0.28266258E+00 0.23471730E+04</pdfrwt>
<pdfrwt beam="1">  1       -2 0.11532811E+00 0.23471730E+04</pdfrwt>
<totfact> 0.43509046E+00</totfact>
</mgrwt>
</event>
<event>
 4    1  0.2019612E-008  0.3243184E+04  0.7816531E-02  0.8177505E-01
         -1   -1    0    0    0  501 -0.00000000000E+00  0.00000000000E+00  0.86297194706E+03  0.86297194706E+03  0.00000000000E+00 0. -1.
          1   -1    0    0  501    0  0.00000000000E+00 -0.00000000000E+00 -0.30470986799E+04  0.30470986799E+04  0.00000000000E+00 0.  1.
    2000013    1    1    2    0    0 -0.30497596408E+03 -0.11791390183E+04 -0.49691629206E+03  0.16225920512E+04  0.95000000000E+03 0.  0.
   -2000013    1    1    2    0    0  0.30497596408E+03  0.11791390183E+04 -0.16872104407E+04  0.22874785758E+04  0.95000000000E+03 0.  0.
<mgrwt>
<rscale>  0 0.32431840E+04</rscale>
<asrwt>0</asrwt>
<pdfrwt beam="2">  1        1 0.46878442E+00 0.32431840E+04</pdfrwt>
<pdfrwt beam="1">  1       -1 0.13276491E+00 0.32431840E+04</pdfrwt>
<totfact> 0.22104953E-01</totfact>
</mgrwt>
</event>
<event>
 4    1  0.2019612E-008  0.2386916E+04  0.7816531E-02  0.8444418E-01
          2   -1    0    0  501    0  0.00000000000E+00  0.00000000000E+00  0.22945553363E+04  0.22945553363E+04  0.00000000000E+00 0.  1.
         -2   -1    0    0    0  501 -0.00000000000E+00 -0.00000000000E+00 -0.62074837553E+03  0.62074837553E+03  0.00000000000E+00 0. -1.
    2000013    1    1    2    0    0 -0.16511863694E+03 -0.38527042772E+03  0.11832340746E+03  0.10450827218E+04  0.95000000000E+03 0.  0.
   -2000013    1    1    2    0    0  0.16511863694E+03  0.38527042772E+03  0.15554835533E+04  0.18702209900E+04  0.95000000000E+03 0.  0.
<mgrwt>
<rscale>  0 0.23869156E+04</rscale>
<asrwt>0</asrwt>
<pdfrwt beam="1">  1        2 0.35300851E+00 0.23869156E+04</pdfrwt>
<pdfrwt beam="2">  1       -2 0.95499751E-01 0.23869156E+04</pdfrwt>
<totfact> 0.37835089E+00</totfact>
</mgrwt>
</event>
<event>
 4    1  0.2019612E-008  0.2647345E+04  0.7816531E-02  0.8352295E-01
          2   -1    0    0  501    0  0.00000000000E+00  0.00000000000E+00  0.30677313534E+04  0.30677313534E+04  0.00000000000E+00 0.  1.
         -2   -1    0    0    0  501 -0.00000000000E+00 -0.00000000000E+00 -0.57114153102E+03  0.57114153102E+03  0.00000000000E+00 0. -1.
    2000013    1    1    2    0    0  0.10564884207E+02  0.92139753207E+03  0.12168377418E+04  0.17978540316E+04  0.95000000000E+03 0.  0.
   -2000013    1    1    2    0    0 -0.10564884207E+02 -0.92139753207E+03  0.12797520806E+04  0.18410188529E+04  0.95000000000E+03 0.  0.
<mgrwt>
<rscale>  0 0.26473449E+04</rscale>
<asrwt>0</asrwt>
<pdfrwt beam="1">  1        2 0.47195866E+00 0.26473449E+04</pdfrwt>
<pdfrwt beam="2">  1       -2 0.87867930E-01 0.26473449E+04</pdfrwt>
<totfact> 0.15524443E+00</totfact>
</mgrwt>
</event>
<event>
 4    1  0.2019612E-008  0.2485757E+04  0.7816531E-02  0.8408077E-01
          2   -1    0    0  501    0  0.00000000000E+00  0.00000000000E+00  0.30299415346E+04  0.30299415346E+04  0.00000000000E+00 0.  1.
         -2   -1    0    0    0  501 -0.00000000000E+00 -0.00000000000E+00 -0.50982733080E+03  0.50982733080E+03  0.00000000000E+00 0. -1.
    2000013    1    1    2    0    0  0.53992253888E+03  0.58135883038E+03  0.14208678392E+04  0.18843725359E+04  0.95000000000E+03 0.  0.
   -2000013    1    1    2    0    0 -0.53992253888E+03 -0.58135883038E+03  0.10992463647E+04  0.16553963295E+04  0.95000000000E+03 0.  0.
<mgrwt>
<rscale>  0 0.24857570E+04</rscale>
<asrwt>0</asrwt>
<pdfrwt beam="1">  1        2 0.46614484E+00 0.24857570E+04</pdfrwt>
<pdfrwt beam="2">  1       -2 0.78434976E-01 0.24857570E+04</pdfrwt>
<totfact> 0.21517838E+00</totfact>
</mgrwt>
</event>
<event>
 4    1  0.2019612E-008  0.2724205E+04  0.7816531E-02  0.8327194E-01
          2   -1    0    0  501    0  0.00000000000E+00  0.00000000000E+00  0.29014880756E+04  0.29014880756E+04  0.00000000000E+00 0.  1.
         -2   -1    0    0    0  501 -0.00000000000E+00 -0.00000000000E+00 -0.63943835453E+03  0.63943835453E+03  0.00000000000E+00 0. -1.
    2000013    1    1    2    0    0  0.54227449775E+03  0.61929983170E+03  0.44911943164E+03  0.13348416297E+04  0.95000000000E+03 0.  0.
   -2000013    1    1    2    0    0 -0.54227449775E+03 -0.61929983170E+03  0.18129302894E+04  0.22060848005E+04  0.95000000000E+03 0.  0.
<mgrwt>
<rscale>  0 0.27242047E+04</rscale>
<asrwt>0</asrwt>
<pdfrwt beam="1">  1        2 0.44638277E+00 0.27242047E+04</pdfrwt>
<pdfrwt beam="2">  1       -2 0.98375133E-01 0.27242047E+04</pdfrwt>
<totfact> 0.15066991E+00</totfact>
</mgrwt>
</event>
<event>
 4    1  0.2019612E-008  0.2209547E+04  0.7816531E-02  0.8514465E-01
          2   -1    0    0  501    0  0.00000000000E+00  0.00000000000E+00  0.50009468948E+03  0.50009468948E+03  0.00000000000E+00 0.  1.
         -2   -1    0    0    0  501 -0.00000000000E+00 -0.00000000000E+00 -0.24405863290E+04  0.24405863290E+04  0.00000000000E+00 0. -1.
    2000013    1    1    2    0    0 -0.29322141321E+03  0.47089290011E+03 -0.83513942204E+03  0.13811867270E+04  0.95000000000E+03 0.  0.
   -2000013    1    1    2    0    0  0.29322141321E+03 -0.47089290011E+03 -0.11053522175E+04  0.15594942915E+04  0.95000000000E+03 0.  0.
<mgrwt>
<rscale>  0 0.22095468E+04</rscale>
<asrwt>0</asrwt>
<pdfrwt beam="1">  1        2 0.76937643E-01 0.22095468E+04</pdfrwt>
<pdfrwt beam="2">  1       -2 0.37547483E+00 0.22095468E+04</pdfrwt>
<totfact> 0.60304360E-01</totfact>
</mgrwt>
</event>
<event>
 4    1  0.2019612E-008  0.2422590E+04  0.7816531E-02  0.8431095E-01
          2   -1    0    0  501    0  0.00000000000E+00  0.00000000000E+00  0.10910002010E+04  0.10910002010E+04  0.00000000000E+00 0.  1.
         -2   -1    0    0    0  501 -0.00000000000E+00 -0.00000000000E+00 -0.13448530873E+04  0.13448530873E+04  0.00000000000E+00 0. -1.
    2000013    1    1    2    0    0  0.51831706343E+03 -0.10724897518E+03 -0.66330762536E+03  0.12738257050E+04  0.95000000000E+03 0.  0.
   -2000013    1    1    2    0    0 -0.51831706343E+03  0.10724897518E+03  0.40945473913E+03  0.11620275833E+04  0.95000000000E+03 0.  0.
<mgrwt>
<rscale>  0 0.24225895E+04</rscale>
<asrwt>0</asrwt>
<pdfrwt beam="1">  1        2 0.16784619E+00 0.24225895E+04</pdfrwt>
<pdfrwt beam="2">  1       -2 0.20690047E+00 0.24225895E+04</pdfrwt>
<totfact> 0.23747029E+00</totfact>
</mgrwt>
</event>
<event>
 4    1  0.2019612E-008  0.2960431E+04  0.7816531E-02  0.8255121E-01
          2   -1    0    0  501    0  0.00000000000E+00  0.00000000000E+00  0.32291826376E+04  0.32291826376E+04  0.00000000000E+00 0.  1.
         -2   -1    0    0    0  501 -0.00000000000E+00 -0.00000000000E+00 -0.67851158986E+03  0.67851158986E+03  0.00000000000E+00 0. -1.
    2000013    1    1    2    0    0  0.38796970821E+03 -0.95143820593E+03  0.19121911364E+04  0.23695421702E+04  0.95000000000E+03 0.  0.
   -2000013    1    1    2    0    0 -0.38796970821E+03  0.95143820593E+03  0.63847991139E+03  0.15381520573E+04  0.95000000000E+03 0.  0.
<mgrwt>
<rscale>  0 0.29604309E+04</rscale>
<asrwt>0</asrwt>
<pdfrwt beam="1">  1        2 0.49679732E+00 0.29604309E+04</pdfrwt>
<pdfrwt beam="2">  1       -2 0.10438640E+00 0.29604309E+04</pdfrwt>
<totfact> 0.79394435E-01</totfact>
</mgrwt>
</event>
<event>
 4    1  0.2019612E-008  0.4032119E+04  0.7816531E-02  0.7998098E-01
          2   -1    0    0  501    0  0.00000000000E+00  0.00000000000E+00  0.19660159572E+04  0.19660159572E+04  0.00000000000E+00 0.  1.
         -2   -1    0    0    0  501 -0.00000000000E+00 -0.00000000000E+00 -0.20673770742E+04  0.20673770742E+04  0.00000000000E+00 0. -1.
    2000013    1    1    2    0    0  0.13735234400E+04  0.10955325194E+04  0.22370187919E+03  0.20098011524E+04  0.95000000000E+03 0.  0.
   -2000013    1    1    2    0    0 -0.13735234400E+04 -0.10955325194E+04 -0.32506299618E+03  0.20235918790E+04  0.95000000000E+03 0.  0.
<mgrwt>
<rscale>  0 0.40321192E+04</rscale>
<asrwt>0</asrwt>
<pdfrwt beam="1">  1        2 0.30246399E+00 0.40321192E+04</pdfrwt>
<pdfrwt beam="2">  1       -2 0.31805801E+00 0.40321192E+04</pdfrwt>
<totfact> 0.13515167E-01</totfact>
</mgrwt>
</event>
<event>
 4    1  0.2019612E-008  0.2223902E+04  0.7816531E-02  0.8508545E-01
          2   -1    0    0  501    0  0.00000000000E+00  0.00000000000E+00  0.14433251007E+04  0.14433251007E+04  0.00000000000E+00 0.  1.
         -2   -1    0    0    0  501 -0.00000000000E+00 -0.00000000000E+00 -0.85665757426E+03  0.85665757426E+03  0.00000000000E+00 0. -1.
    2000013    1    1    2    0    0 -0.50721090754E+03 -0.23962772038E+03  0.43682845919E+03  0.11865932125E+04  0.95000000000E+03 0.  0.
   -2000013    1    1    2    0    0  0.50721090754E+03  0.23962772038E+03  0.14983906723E+03  0.11133894625E+04  0.95000000000E+03 0.  0.
<mgrwt>
<rscale>  0 0.22239023E+04</rscale>
<asrwt>0</asrwt>
<pdfrwt beam="1">  1        2 0.22205002E+00 0.22239023E+04</pdfrwt>
<pdfrwt beam="2">  1       -2 0.13179347E+00 0.22239023E+04</pdfrwt>
<totfact> 0.52314141E+00</totfact>
</mgrwt>
</event>
<event>
 4    1  0.2019612E-008  0.2520676E+04  0.7816531E-02  0.8395656E-01
          2   -1    0    0  501    0  0.00000000000E+00  0.00000000000E+00  0.33713094129E+04  0.33713094129E+04  0.00000000000E+00 0.  1.
         -2   -1    0    0    0  501 -0.00000000000E+00 -0.00000000000E+00 -0.47116766686E+03  0.47116766686E+03  0.00000000000E+00 0. -1.
    2000013    1    1    2    0    0  0.57220063811E+03 -0.34760393170E+03  0.70684999252E+03  0.13602863579E+04  0.95000000000E+03 0.  0.
   -2000013    1    1    2    0    0 -0.57220063811E+03  0.34760393170E+03  0.21932917536E+04  0.24821907219E+04  0.95000000000E+03 0.  0.
<mgrwt>
<rscale>  0 0.25206761E+04</rscale>
<asrwt>0</asrwt>
<pdfrwt beam="1">  1        2 0.51866297E+00 0.25206761E+04</pdfrwt>
<pdfrwt beam="2">  1       -2 0.72487336E-01 0.25206761E+04</pdfrwt>
<totfact> 0.15300988E+00</totfact>
</mgrwt>
</event>
<event>
 4    1  0.2019612E-008  0.1990168E+04  0.7816531E-02  0.8611231E-01
          2   -1    0    0  501    0  0.00000000000E+00  0.00000000000E+00  0.60561837466E+03  0.60561837466E+03  0.00000000000E+00 0.  1.
         -2   -1    0    0    0  501 -0.00000000000E+00 -0.00000000000E+00 -0.16350096541E+04  0.16350096541E+04  0.00000000000E+00 0. -1.
    2000013    1    1    2    0    0  0.12713106709E+03  0.24375603675E+03 -0.63860335160E+03  0.11772398032E+04  0.95000000000E+03 0.  0.
   -2000013    1    1    2    0    0 -0.12713106709E+03 -0.24375603675E+03 -0.39078792789E+03  0.10633882256E+04  0.95000000000E+03 0.  0.
<mgrwt>
<rscale>  0 0.19901677E+04</rscale>
<asrwt>0</asrwt>
<pdfrwt beam="1">  1        2 0.93172059E-01 0.19901677E+04</pdfrwt>
<pdfrwt beam="2">  1       -2 0.25153994E+00 0.19901677E+04</pdfrwt>
<totfact> 0.28663935E+00</totfact>
</mgrwt>
</event>
<event>
 4    1  0.2019612E-008  0.2835502E+04  0.7816531E-02  0.8292330E-01
         -1   -1    0    0    0  501 -0.00000000000E+00  0.00000000000E+00  0.84841406411E+03  0.84841406411E+03  0.00000000000E+00 0.  1.
          1   -1    0    0  501    0  0.00000000000E+00 -0.00000000000E+00 -0.23691474782E+04  0.23691474782E+04  0.00000000000E+00 0. -1.
    2000013    1    1    2    0    0 -0.84091393514E+03 -0.54309500876E+03 -0.39191703019E+03  0.14346384190E+04  0.95000000000E+03 0.  0.
   -2000013    1    1    2    0    0  0.84091393514E+03  0.54309500876E+03 -0.11288163839E+04  0.17829231232E+04  0.95000000000E+03 0.  0.
<mgrwt>
<rscale>  0 0.28355021E+04</rscale>
<asrwt>0</asrwt>
<pdfrwt beam="2">  1        1 0.36448422E+00 0.28355021E+04</pdfrwt>
<pdfrwt beam="1">  1       -1 0.13052524E+00 0.28355021E+04</pdfrwt>
<totfact> 0.72261202E-01</totfact>
</mgrwt>
</event>
<event>
 4    1  0.2019612E-008  0.2276496E+04  0.7816531E-02  0.8487246E-01
          2   -1    0    0  501    0  0.00000000000E+00  0.00000000000E+00  0.13100060948E+04  0.13100060948E+04  0.00000000000E+00 0.  1.
         -2   -1    0    0    0  501 -0.00000000000E+00 -0.00000000000E+00 -0.98900961151E+03  0.98900961151E+03  0.00000000000E+00 0. -1.
    2000013    1    1    2    0    0 -0.48200377671E+03 -0.39447925387E+03  0.23309183754E+03  0.11596436208E+04  0.95000000000E+03 0.  0.
   -2000013    1    1    2    0    0  0.48200377671E+03  0.39447925387E+03  0.87904645716E+02  0.11393720855E+04  0.95000000000E+03 0.  0.
<mgrwt>
<rscale>  0 0.22764961E+04</rscale>
<asrwt>0</asrwt>
<pdfrwt beam="1">  1        2 0.20153940E+00 0.22764961E+04</pdfrwt>
<pdfrwt beam="2">  1       -2 0.15215533E+00 0.22764961E+04</pdfrwt>
<totfact> 0.42743899E+00</totfact>
</mgrwt>
</event>
<event>
 4    1  0.2019612E-008  0.2632099E+04  0.7816531E-02  0.8357379E-01
          2   -1    0    0  501    0  0.00000000000E+00  0.00000000000E+00  0.13363557916E+04  0.13363557916E+04  0.00000000000E+00 0.  1.
         -2   -1    0    0    0  501 -0.00000000000E+00 -0.00000000000E+00 -0.12960520671E+04  0.12960520671E+04  0.00000000000E+00 0. -1.
    2000013    1    1    2    0    0  0.66531951648E+03  0.34984094621E+03  0.53445716488E+03  0.13240782483E+04  0.95000000000E+03 0.  0.
   -2000013    1    1    2    0    0 -0.66531951648E+03 -0.34984094621E+03 -0.49415344039E+03  0.13083296103E+04  0.95000000000E+03 0.  0.
<mgrwt>
<rscale>  0 0.26320993E+04</rscale>
<asrwt>0</asrwt>
<pdfrwt beam="1">  1        2 0.20559320E+00 0.26320993E+04</pdfrwt>
<pdfrwt beam="2">  1       -2 0.19939263E+00 0.26320993E+04</pdfrwt>
<totfact> 0.18647012E+00</totfact>
</mgrwt>
</event>
<event>
 4    1  0.2019612E-008  0.1954761E+04  0.7816531E-02  0.8628068E-01
          2   -1    0    0  501    0  0.00000000000E+00  0.00000000000E+00  0.14391414488E+04  0.14391414488E+04  0.00000000000E+00 0.  1.
         -2   -1    0    0    0  501 -0.00000000000E+00 -0.00000000000E+00 -0.66377958807E+03  0.66377958807E+03  0.00000000000E+00 0. -1.
    2000013    1    1    2    0    0  0.12487105521E+03 -0.17318406020E+03  0.29647780538E+03  0.10178332812E+04  0.95000000000E+03 0.  0.
   -2000013    1    1    2    0    0 -0.12487105521E+03  0.17318406020E+03  0.47888405535E+03  0.10850877557E+04  0.95000000000E+03 0.  0.
<mgrwt>
<rscale>  0 0.19547611E+04</rscale>
<asrwt>0</asrwt>
<pdfrwt beam="1">  1        2 0.22140637E+00 0.19547611E+04</pdfrwt>
<pdfrwt beam="2">  1       -2 0.10211994E+00 0.19547611E+04</pdfrwt>
<totfact> 0.10071332E+01</totfact>
</mgrwt>
</event>
<event>
 4    1  0.2019612E-008  0.4127604E+04  0.7816531E-02  0.7979288E-01
          2   -1    0    0  501    0  0.00000000000E+00  0.00000000000E+00  0.18607163117E+04  0.18607163117E+04  0.00000000000E+00 0.  1.
         -2   -1    0    0    0  501 -0.00000000000E+00 -0.00000000000E+00 -0.22890533394E+04  0.22890533394E+04  0.00000000000E+00 0. -1.
    2000013    1    1    2    0    0 -0.14916494550E+04  0.97366759206E+03  0.21677327091E+03  0.20304032426E+04  0.95000000000E+03 0.  0.
   -2000013    1    1    2    0    0  0.14916494550E+04 -0.97366759206E+03 -0.64511029866E+03  0.21193664086E+04  0.95000000000E+03 0.  0.
<mgrwt>
<rscale>  0 0.41276041E+04</rscale>
<asrwt>0</asrwt>
<pdfrwt beam="1">  1        2 0.28626405E+00 0.41276041E+04</pdfrwt>
<pdfrwt beam="2">  1       -2 0.35216205E+00 0.41276041E+04</pdfrwt>
<totfact> 0.93975636E-02</totfact>
</mgrwt>
</event>
<event>
 4    1  0.2019612E-008  0.2211895E+04  0.7816531E-02  0.8513494E-01
         -2   -1    0    0    0  501 -0.00000000000E+00  0.00000000000E+00  0.24295670336E+04  0.24295670336E+04  0.00000000000E+00 0. -1.
          2   -1    0    0  501    0  0.00000000000E+00 -0.00000000000E+00 -0.50343101698E+03  0.50343101698E+03  0.00000000000E+00 0.  1.
    2000013    1    1    2    0    0  0.23636934066E+02 -0.47640987164E+03  0.55848375927E+03  0.12008035559E+04  0.95000000000E+03 0.  0.
   -2000013    1    1    2    0    0 -0.23636934066E+02  0.47640987164E+03  0.13676522574E+04  0.17321944947E+04  0.95000000000E+03 0.  0.
<mgrwt>
<rscale>  0 0.22118946E+04</rscale>
<asrwt>0</asrwt>
<pdfrwt beam="2">  1        2 0.77450927E-01 0.22118946E+04</pdfrwt>
<pdfrwt beam="1">  1       -2 0.37377954E+00 0.22118946E+04</pdfrwt>
<totfact> 0.61345881E-01</totfact>
</mgrwt>
</event>
<event>
 4    1  0.2019612E-008  0.2056486E+04  0.7816531E-02  0.8580658E-01
         -2   -1    0    0    0  501 -0.00000000000E+00  0.00000000000E+00  0.45626929401E+03  0.45626929401E+03  0.00000000000E+00 0. -1.
          2   -1    0    0  501    0  0.00000000000E+00 -0.00000000000E+00 -0.23172358393E+04  0.23172358393E+04  0.00000000000E+00 0.  1.
    2000013    1    1    2    0    0 -0.35373150107E+03  0.16328245632E+03 -0.10043085268E+04  0.14362878376E+04  0.95000000000E+03 0.  0.
   -2000013    1    1    2    0    0  0.35373150107E+03 -0.16328245632E+03 -0.85665801854E+03  0.13372172958E+04  0.95000000000E+03 0.  0.
<mgrwt>
<rscale>  0 0.20564859E+04</rscale>
<asrwt>0</asrwt>
<pdfrwt beam="2">  1        2 0.35649782E+00 0.20564859E+04</pdfrwt>
<pdfrwt beam="1">  1       -2 0.70195276E-01 0.20564859E+04</pdfrwt>
<totfact> 0.75746471E+00</totfact>
</mgrwt>
</event>
<event>
 4    1  0.2019612E-008  0.3720213E+04  0.7816531E-02  0.8063497E-01
          2   -1    0    0  501    0  0.00000000000E+00  0.00000000000E+00  0.21163255005E+04  0.21163255005E+04  0.00000000000E+00 0.  1.
         -2   -1    0    0    0  501 -0.00000000000E+00 -0.00000000000E+00 -0.16349071543E+04  0.16349071543E+04  0.00000000000E+00 0. -1.
    2000013    1    1    2    0    0  0.14566425157E+04 -0.22347695544E+03 -0.38555436671E+03  0.17952441443E+04  0.95000000000E+03 0.  0.
   -2000013    1    1    2    0    0 -0.14566425157E+04  0.22347695544E+03  0.86697271299E+03  0.19559885105E+04  0.95000000000E+03 0.  0.
<mgrwt>
<rscale>  0 0.37202127E+04</rscale>
<asrwt>0</asrwt>
<pdfrwt beam="1">  1        2 0.32558854E+00 0.37202127E+04</pdfrwt>
<pdfrwt beam="2">  1       -2 0.25152418E+00 0.37202127E+04</pdfrwt>
<totfact> 0.29204568E-01</totfact>
</mgrwt>
</event>
<event>
 4    1  0.2019612E-008  0.2653855E+04  0.7816531E-02  0.8350135E-01
          2   -1    0    0  501    0  0.00000000000E+00  0.00000000000E+00  0.88799199113E+03  0.88799199113E+03  0.00000000000E+00 0.  1.
         -2   -1    0    0    0  501 -0.00000000000E+00 -0.00000000000E+00 -0.19828297012E+04  0.19828297012E+04  0.00000000000E+00 0. -1.
    2000013    1    1    2    0    0  0.56040044412E+03 -0.70486894145E+03 -0.31203326856E+03  0.13456424648E+04  0.95000000000E+03 0.  0.
   -2000013    1    1    2    0    0 -0.56040044412E+03  0.70486894145E+03 -0.78280444148E+03  0.15251792275E+04  0.95000000000E+03 0.  0.
<mgrwt>
<rscale>  0 0.26538552E+04</rscale>
<asrwt>0</asrwt>
<pdfrwt beam="1">  1        2 0.13661415E+00 0.26538552E+04</pdfrwt>
<pdfrwt beam="2">  1       -2 0.30505072E+00 0.26538552E+04</pdfrwt>
<totfact> 0.77879397E-01</totfact>
</mgrwt>
</event>
<event>
 4    1  0.2019612E-008  0.2170399E+04  0.7816531E-02  0.8530851E-01
         -1   -1    0    0    0  501 -0.00000000000E+00  0.00000000000E+00  0.98850342365E+03  0.98850342365E+03  0.00000000000E+00 0.  1.
          1   -1    0    0  501    0  0.00000000000E+00 -0.00000000000E+00 -0.11913545381E+04  0.11913545381E+04  0.00000000000E+00 0. -1.
    2000013    1    1    2    0    0  0.39010897528E+03  0.16558587665E+02 -0.45323608287E+03  0.11226674246E+04  0.95000000000E+03 0.  0.
   -2000013    1    1    2    0    0 -0.39010897528E+03 -0.16558587665E+02  0.25038496843E+03  0.10571905371E+04  0.95000000000E+03 0.  0.
<mgrwt>
<rscale>  0 0.21703991E+04</rscale>
<asrwt>0</asrwt>
<pdfrwt beam="2">  1        1 0.18328531E+00 0.21703991E+04</pdfrwt>
<pdfrwt beam="1">  1       -1 0.15207745E+00 0.21703991E+04</pdfrwt>
<totfact> 0.33318118E+00</totfact>
</mgrwt>
</event>
<event>
 4    1  0.2019612E-008  0.2351845E+04  0.7816531E-02  0.8457755E-01
          2   -1    0    0  501    0  0.00000000000E+00  0.00000000000E+00  0.14397044210E+04  0.14397044210E+04  0.00000000000E+00 0.  1.
         -2   -1    0    0    0  501 -0.00000000000E+00 -0.00000000000E+00 -0.96047091631E+03  0.96047091631E+03  0.00000000000E+00 0. -1.
    2000013    1    1    2    0    0 -0.14733129189E+03  0.39389526264E+03 -0.32255171960E+03  0.10878417161E+04  0.95000000000E+03 0.  0.
   -2000013    1    1    2    0    0  0.14733129189E+03 -0.39389526264E+03  0.80178522433E+03  0.13123336212E+04  0.95000000000E+03 0.  0.
<mgrwt>
<rscale>  0 0.23518454E+04</rscale>
<asrwt>0</asrwt>
<pdfrwt beam="1">  1        2 0.22149299E+00 0.23518454E+04</pdfrwt>
<pdfrwt beam="2">  1       -2 0.14776476E+00 0.23518454E+04</pdfrwt>
<totfact> 0.38662747E+00</totfact>
</mgrwt>
</event>
<event>
 4    1  0.2019612E-008  0.2362763E+04  0.7816531E-02  0.8453578E-01
          2   -1    0    0  501    0  0.00000000000E+00  0.00000000000E+00  0.29011784400E+04  0.29011784400E+04  0.00000000000E+00 0.  1.
         -2   -1    0    0    0  501 -0.00000000000E+00 -0.00000000000E+00 -0.48106729285E+03  0.48106729285E+03  0.00000000000E+00 0. -1.
    2000013    1    1    2    0    0  0.60617238865E+03 -0.33295655228E+03  0.10355734281E+04  0.15662749936E+04  0.95000000000E+03 0.  0.
   -2000013    1    1    2    0    0 -0.60617238865E+03  0.33295655228E+03  0.13845377190E+04  0.18159707392E+04  0.95000000000E+03 0.  0.
<mgrwt>
<rscale>  0 0.23627628E+04</rscale>
<asrwt>0</asrwt>
<pdfrwt beam="1">  1        2 0.44633513E+00 0.23627628E+04</pdfrwt>
<pdfrwt beam="2">  1       -2 0.74010354E-01 0.23627628E+04</pdfrwt>
<totfact> 0.29762455E+00</totfact>
</mgrwt>
</event>
<event>
 4    1  0.2019612E-008  0.2846468E+04  0.7816531E-02  0.8288985E-01
          2   -1    0    0  501    0  0.00000000000E+00  0.00000000000E+00  0.23019135483E+04  0.23019135483E+04  0.00000000000E+00 0.  1.
         -2   -1    0    0    0  501 -0.00000000000E+00 -0.00000000000E+00 -0.87996120210E+03  0.87996120210E+03  0.00000000000E+00 0. -1.
    2000013    1    1    2    0    0 -0.92658510609E+03 -0.45435392487E+03  0.98041134586E+03  0.17113456270E+04  0.95000000000E+03 0.  0.
   -2000013    1    1    2    0    0  0.92658510609E+03  0.45435392487E+03  0.44154100036E+03  0.14705291234E+04  0.95000000000E+03 0.  0.
<mgrwt>
<rscale>  0 0.28464677E+04</rscale>
<asrwt>0</asrwt>
<pdfrwt beam="1">  1        2 0.35414054E+00 0.28464677E+04</pdfrwt>
<pdfrwt beam="2">  1       -2 0.13537865E+00 0.28464677E+04</pdfrwt>
<totfact> 0.15353565E+00</totfact>
</mgrwt>
</event>
<event>
 4    1  0.2019612E-008  0.2074806E+04  0.7816531E-02  0.8572423E-01
         -2   -1    0    0    0  501 -0.00000000000E+00  0.00000000000E+00  0.28518789603E+03  0.28518789603E+03  0.00000000000E+00 0. -1.
          2   -1    0    0  501    0  0.00000000000E+00 -0.00000000000E+00 -0.37736697203E+04  0.37736697203E+04  0.00000000000E+00 0.  1.
    2000013    1    1    2    0    0  0.29931984216E+03  0.48172744363E+02 -0.11847647268E+04  0.15485736789E+04  0.95000000000E+03 0.  0.
   -2000013    1    1    2    0    0 -0.29931984216E+03 -0.48172744363E+02 -0.23037170974E+04  0.25102839373E+04  0.95000000000E+03 0.  0.
<mgrwt>
<rscale>  0 0.20748059E+04</rscale>
<asrwt>0</asrwt>
<pdfrwt beam="2">  1        2 0.58056454E+00 0.20748059E+04</pdfrwt>
<pdfrwt beam="1">  1       -2 0.43875063E-01 0.20748059E+04</pdfrwt>
<totfact> 0.23557199E+00</totfact>
</mgrwt>
</event>
<event>
 4    1  0.2019612E-008  0.2740651E+04  0.7816531E-02  0.8321935E-01
         -2   -1    0    0    0  501 -0.00000000000E+00  0.00000000000E+00  0.20193353498E+04  0.20193353498E+04  0.00000000000E+00 0. -1.
          2   -1    0    0  501    0  0.00000000000E+00 -0.00000000000E+00 -0.92990568642E+03  0.92990568642E+03  0.00000000000E+00 0.  1.
    2000013    1    1    2    0    0 -0.93059452907E+03 -0.30608367544E+03  0.41031724159E+03  0.14249749586E+04  0.95000000000E+03 0.  0.
   -2000013    1    1    2    0    0  0.93059452907E+03  0.30608367544E+03  0.67911242178E+03  0.15242660776E+04  0.95000000000E+03 0.  0.
<mgrwt>
<rscale>  0 0.27406506E+04</rscale>
<asrwt>0</asrwt>
<pdfrwt beam="2">  1        2 0.14306241E+00 0.27406506E+04</pdfrwt>
<pdfrwt beam="1">  1       -2 0.31066698E+00 0.27406506E+04</pdfrwt>
<totfact> 0.66917227E-01</totfact>
</mgrwt>
</event>
<event>
 4    1  0.2019612E-008  0.2625269E+04  0.7816531E-02  0.8359668E-01
         -1   -1    0    0    0  501 -0.00000000000E+00  0.00000000000E+00  0.13126661458E+04  0.13126661458E+04  0.00000000000E+00 0. -1.
          1   -1    0    0  501    0  0.00000000000E+00 -0.00000000000E+00 -0.13126032099E+04  0.13126032099E+04  0.00000000000E+00 0.  1.
    2000013    1    1    2    0    0 -0.21800520042E+03  0.79725920503E+03  0.37065430735E+03  0.13126435628E+04  0.95000000000E+03 0.  0.
   -2000013    1    1    2    0    0  0.21800520042E+03 -0.79725920503E+03 -0.37059137149E+03  0.13126257928E+04  0.95000000000E+03 0.  0.
<mgrwt>
<rscale>  0 0.26252694E+04</rscale>
<asrwt>0</asrwt>
<pdfrwt beam="2">  1        1 0.20193896E+00 0.26252694E+04</pdfrwt>
<pdfrwt beam="1">  1       -1 0.20194864E+00 0.26252694E+04</pdfrwt>
<totfact> 0.11362140E+00</totfact>
</mgrwt>
</event>
<event>
 4    1  0.2019612E-008  0.2682012E+04  0.7816531E-02  0.8340865E-01
          2   -1    0    0  501    0  0.00000000000E+00  0.00000000000E+00  0.20878670604E+04  0.20878670604E+04  0.00000000000E+00 0.  1.
         -2   -1    0    0    0  501 -0.00000000000E+00 -0.00000000000E+00 -0.86130837907E+03  0.86130837907E+03  0.00000000000E+00 0. -1.
    2000013    1    1    2    0    0 -0.61141784642E+03  0.60516972296E+03  0.17933575665E+03  0.12941110811E+04  0.95000000000E+03 0.  0.
   -2000013    1    1    2    0    0  0.61141784642E+03 -0.60516972296E+03  0.10472229247E+04  0.16550643584E+04  0.95000000000E+03 0.  0.
<mgrwt>
<rscale>  0 0.26820122E+04</rscale>
<asrwt>0</asrwt>
<pdfrwt beam="1">  1        2 0.32121031E+00 0.26820122E+04</pdfrwt>
<pdfrwt beam="2">  1       -2 0.13250898E+00 0.26820122E+04</pdfrwt>
<totfact> 0.21694003E+00</totfact>
</mgrwt>
</event>
<event>
 4    1  0.2019612E-008  0.3050898E+04  0.7816531E-02  0.8229344E-01
          2   -1    0    0  501    0  0.00000000000E+00  0.00000000000E+00  0.23653032737E+04  0.23653032737E+04  0.00000000000E+00 0. -1.
         -2   -1    0    0    0  501 -0.00000000000E+00 -0.00000000000E+00 -0.98380405293E+03  0.98380405293E+03  0.00000000000E+00 0.  1.
    2000013    1    1    2    0    0 -0.11486075643E+04  0.17424080789E+03  0.99105001034E+03  0.17984269012E+04  0.95000000000E+03 0.  0.
   -2000013    1    1    2    0    0  0.11486075643E+04 -0.17424080789E+03  0.39044921041E+03  0.15506804254E+04  0.95000000000E+03 0.  0.
<mgrwt>
<rscale>  0 0.30508982E+04</rscale>
<asrwt>0</asrwt>
<pdfrwt beam="1">  1        2 0.36389281E+00 0.30508982E+04</pdfrwt>
<pdfrwt beam="2">  1       -2 0.15135447E+00 0.30508982E+04</pdfrwt>
<totfact> 0.10376811E+00</totfact>
</mgrwt>
</event>
<event>
 4    1  0.2019612E-008  0.3772764E+04  0.7816531E-02  0.8052025E-01
         -2   -1    0    0    0  501 -0.00000000000E+00  0.00000000000E+00  0.15092138382E+04  0.15092138382E+04  0.00000000000E+00 0. -1.
          2   -1    0    0  501    0  0.00000000000E+00 -0.00000000000E+00 -0.23578083854E+04  0.23578083854E+04  0.00000000000E+00 0.  1.
    2000013    1    1    2    0    0  0.10900872252E+04  0.78413136153E+03  0.52223794537E+03  0.17257997052E+04  0.95000000000E+03 0.  0.
   -2000013    1    1    2    0    0 -0.10900872252E+04 -0.78413136153E+03 -0.13708324926E+04  0.21412225184E+04  0.95000000000E+03 0.  0.
<mgrwt>
<rscale>  0 0.37727640E+04</rscale>
<asrwt>0</asrwt>
<pdfrwt beam="2">  1        2 0.36273975E+00 0.37727640E+04</pdfrwt>
<pdfrwt beam="1">  1       -2 0.23218674E+00 0.37727640E+04</pdfrwt>
<totfact> 0.27981260E-01</totfact>
</mgrwt>
</event>
<event>
 4    1  0.2019612E-008  0.2274089E+04  0.7816531E-02  0.8488208E-01
          2   -1    0    0  501    0  0.00000000000E+00  0.00000000000E+00  0.36555847563E+04  0.36555847563E+04  0.00000000000E+00 0.  1.
         -2   -1    0    0    0  501 -0.00000000000E+00 -0.00000000000E+00 -0.35366998674E+03  0.35366998674E+03  0.00000000000E+00 0. -1.
    2000013    1    1    2    0    0  0.43460813598E+02 -0.46162222455E+03  0.23892940612E+04  0.26127016728E+04  0.95000000000E+03 0.  0.
   -2000013    1    1    2    0    0 -0.43460813598E+02  0.46162222455E+03  0.91262070838E+03  0.13965530702E+04  0.95000000000E+03 0.  0.
<mgrwt>
<rscale>  0 0.22740894E+04</rscale>
<asrwt>0</asrwt>
<pdfrwt beam="1">  1        2 0.56239763E+00 0.22740894E+04</pdfrwt>
<pdfrwt beam="2">  1       -2 0.54410770E-01 0.22740894E+04</pdfrwt>
<totfact> 0.18244722E+00</totfact>
</mgrwt>
</event>
<event>
 4    1  0.2019612E-008  0.3339348E+04  0.7816531E-02  0.8152955E-01
          2   -1    0    0  501    0  0.00000000000E+00  0.00000000000E+00  0.13826373542E+04  0.13826373542E+04  0.00000000000E+00 0.  1.
         -2   -1    0    0    0  501 -0.00000000000E+00 -0.00000000000E+00 -0.20162991007E+04  0.20162991007E+04  0.00000000000E+00 0. -1.
    2000013    1    1    2    0    0  0.34579530630E+02 -0.13641790123E+04 -0.16203037140E+03  0.16706088599E+04  0.95000000000E+03 0.  0.
   -2000013    1    1    2    0    0 -0.34579530630E+02  0.13641790123E+04 -0.47163137517E+03  0.17283275950E+04  0.95000000000E+03 0.  0.
<mgrwt>
<rscale>  0 0.33393475E+04</rscale>
<asrwt>0</asrwt>
<pdfrwt beam="1">  1        2 0.21271344E+00 0.33393475E+04</pdfrwt>
<pdfrwt beam="2">  1       -2 0.31019986E+00 0.33393475E+04</pdfrwt>
<totfact> 0.33914846E-01</totfact>
</mgrwt>
</event>
<event>
 4    1  0.2019612E-008  0.2694699E+04  0.7816531E-02  0.8336727E-01
          2   -1    0    0  501    0  0.00000000000E+00  0.00000000000E+00  0.12628382373E+04  0.12628382373E+04  0.00000000000E+00 0.  1.
         -2   -1    0    0    0  501 -0.00000000000E+00 -0.00000000000E+00 -0.14375164882E+04  0.14375164882E+04  0.00000000000E+00 0. -1.
    2000013    1    1    2    0    0  0.35959460799E+03  0.21887803529E+03  0.77215261799E+03  0.12945792915E+04  0.95000000000E+03 0.  0.
   -2000013    1    1    2    0    0 -0.35959460799E+03 -0.21887803529E+03 -0.94683086890E+03  0.14057754340E+04  0.95000000000E+03 0.  0.
<mgrwt>
<rscale>  0 0.26946991E+04</rscale>
<asrwt>0</asrwt>
<pdfrwt beam="1">  1        2 0.19428281E+00 0.26946991E+04</pdfrwt>
<pdfrwt beam="2">  1       -2 0.22115638E+00 0.26946991E+04</pdfrwt>
<totfact> 0.14826020E+00</totfact>
</mgrwt>
</event>
<event>
 4    1  0.2019612E-008  0.2364585E+04  0.7816531E-02  0.8452883E-01
          2   -1    0    0  501    0  0.00000000000E+00  0.00000000000E+00  0.90839543718E+03  0.90839543718E+03  0.00000000000E+00 0.  1.
         -2   -1    0    0    0  501 -0.00000000000E+00 -0.00000000000E+00 -0.15387740487E+04  0.15387740487E+04  0.00000000000E+00 0. -1.
    2000013    1    1    2    0    0  0.24483179855E+03  0.32733135580E+03  0.27773088399E+03  0.10708514696E+04  0.95000000000E+03 0.  0.
   -2000013    1    1    2    0    0 -0.24483179855E+03 -0.32733135580E+03 -0.90810949554E+03  0.13763180163E+04  0.95000000000E+03 0.  0.
<mgrwt>
<rscale>  0 0.23645848E+04</rscale>
<asrwt>0</asrwt>
<pdfrwt beam="1">  1        2 0.13975315E+00 0.23645848E+04</pdfrwt>
<pdfrwt beam="2">  1       -2 0.23673447E+00 0.23645848E+04</pdfrwt>
<totfact> 0.20252928E+00</totfact>
</mgrwt>
</event>
<event>
 4    1  0.2019612E-008  0.2157481E+04  0.7816531E-02  0.8536337E-01
          1   -1    0    0  501    0  0.00000000000E+00  0.00000000000E+00  0.19518520234E+04  0.19518520234E+04  0.00000000000E+00 0. -1.
         -1   -1    0    0    0  501 -0.00000000000E+00 -0.00000000000E+00 -0.59619328976E+03  0.59619328976E+03  0.00000000000E+00 0.  1.
    2000013    1    1    2    0    0 -0.49117960258E+03  0.87096181324E+02  0.54664522035E+03  0.12042276129E+04  0.95000000000E+03 0.  0.
   -2000013    1    1    2    0    0  0.49117960258E+03 -0.87096181324E+02  0.80901351330E+03  0.13438177002E+04  0.95000000000E+03 0.  0.
<mgrwt>
<rscale>  0 0.21574810E+04</rscale>
<asrwt>0</asrwt>
<pdfrwt beam="1">  1        1 0.30028492E+00 0.21574810E+04</pdfrwt>
<pdfrwt beam="2">  1       -1 0.91722045E-01 0.21574810E+04</pdfrwt>
<totfact> 0.34048419E+00</totfact>
</mgrwt>
</event>
<event>
 4    1  0.2019612E-008  0.2302476E+04  0.7816531E-02  0.8476946E-01
          2   -1    0    0  501    0  0.00000000000E+00  0.00000000000E+00  0.11745343656E+04  0.11745343656E+04  0.00000000000E+00 0.  1.
         -2   -1    0    0    0  501 -0.00000000000E+00 -0.00000000000E+00 -0.11284036256E+04  0.11284036256E+04  0.00000000000E+00 0. -1.
    2000013    1    1    2    0    0 -0.61405874884E+03 -0.17473323401E+03  0.14657693817E+03  0.11539430874E+04  0.95000000000E+03 0.  0.
   -2000013    1    1    2    0    0  0.61405874884E+03  0.17473323401E+03 -0.10044619816E+03  0.11489949037E+04  0.95000000000E+03 0.  0.
<mgrwt>
<rscale>  0 0.23024759E+04</rscale>
<asrwt>0</asrwt>
<pdfrwt beam="1">  1        2 0.18069759E+00 0.23024759E+04</pdfrwt>
<pdfrwt beam="2">  1       -2 0.17360056E+00 0.23024759E+04</pdfrwt>
<totfact> 0.35743812E+00</totfact>
</mgrwt>
</event>
<event>
 4    1  0.2019612E-008  0.3527361E+04  0.7816531E-02  0.8107336E-01
          2   -1    0    0  501    0  0.00000000000E+00  0.00000000000E+00  0.26354567064E+04  0.26354567064E+04  0.00000000000E+00 0.  1.
         -2   -1    0    0    0  501 -0.00000000000E+00 -0.00000000000E+00 -0.11802771269E+04  0.11802771269E+04  0.00000000000E+00 0. -1.
    2000013    1    1    2    0    0  0.35991712674E+03 -0.90391003954E+03  0.19425654034E+04  0.23712136226E+04  0.95000000000E+03 0.  0.
   -2000013    1    1    2    0    0 -0.35991712674E+03  0.90391003954E+03 -0.48738582396E+03  0.14445202107E+04  0.95000000000E+03 0.  0.
<mgrwt>
<rscale>  0 0.35273612E+04</rscale>
<asrwt>0</asrwt>
<pdfrwt beam="1">  1        2 0.40545488E+00 0.35273612E+04</pdfrwt>
<pdfrwt beam="2">  1       -2 0.18158110E+00 0.35273612E+04</pdfrwt>
<totfact> 0.42039160E-01</totfact>
</mgrwt>
</event>
<event>
 4    1  0.2019612E-008  0.2224447E+04  0.7816531E-02  0.8508321E-01
          2   -1    0    0  501    0  0.00000000000E+00  0.00000000000E+00  0.18614598039E+04  0.18614598039E+04  0.00000000000E+00 0.  1.
         -2   -1    0    0    0  501 -0.00000000000E+00 -0.00000000000E+00 -0.66455417571E+03  0.66455417571E+03  0.00000000000E+00 0. -1.
    2000013    1    1    2    0    0 -0.38895728653E+03 -0.32753361134E+03  0.28544970757E+03  0.11146961796E+04  0.95000000000E+03 0.  0.
   -2000013    1    1    2    0    0  0.38895728653E+03  0.32753361134E+03  0.91145592060E+03  0.14113178000E+04  0.95000000000E+03 0.  0.
<mgrwt>
<rscale>  0 0.22244468E+04</rscale>
<asrwt>0</asrwt>
<pdfrwt beam="1">  1        2 0.28637843E+00 0.22244468E+04</pdfrwt>
<pdfrwt beam="2">  1       -2 0.10223910E+00 0.22244468E+04</pdfrwt>
<totfact> 0.57014986E+00</totfact>
</mgrwt>
</event>
<event>
 4    1  0.2019612E-008  0.3294677E+04  0.7816531E-02  0.8164251E-01
          2   -1    0    0  501    0  0.00000000000E+00  0.00000000000E+00  0.24798981718E+04  0.24798981718E+04  0.00000000000E+00 0.  1.
         -2   -1    0    0    0  501 -0.00000000000E+00 -0.00000000000E+00 -0.10942885797E+04  0.10942885797E+04  0.00000000000E+00 0. -1.
    2000013    1    1    2    0    0 -0.35333666736E+03  0.10743261154E+04  0.14842159512E+04  0.20939007599E+04  0.95000000000E+03 0.  0.
   -2000013    1    1    2    0    0  0.35333666736E+03 -0.10743261154E+04 -0.98606359033E+02  0.14802859916E+04  0.95000000000E+03 0.  0.
<mgrwt>
<rscale>  0 0.32946771E+04</rscale>
<asrwt>0</asrwt>
<pdfrwt beam="1">  1        2 0.38152279E+00 0.32946771E+04</pdfrwt>
<pdfrwt beam="2">  1       -2 0.16835209E+00 0.32946771E+04</pdfrwt>
<totfact> 0.65418773E-01</totfact>
</mgrwt>
</event>
<event>
 4    1  0.2019612E-008  0.2532351E+04  0.7816531E-02  0.8391550E-01
          2   -1    0    0  501    0  0.00000000000E+00  0.00000000000E+00  0.11859599985E+04  0.11859599985E+04  0.00000000000E+00 0.  1.
         -2   -1    0    0    0  501 -0.00000000000E+00 -0.00000000000E+00 -0.13518166070E+04  0.13518166070E+04  0.00000000000E+00 0. -1.
    2000013    1    1    2    0    0  0.78207914000E+02  0.73288108356E+03  0.31474586191E+03  0.12428982734E+04  0.95000000000E+03 0.  0.
   -2000013    1    1    2    0    0 -0.78207914000E+02 -0.73288108356E+03 -0.48060247039E+03  0.12948783321E+04  0.95000000000E+03 0.  0.
<mgrwt>
<rscale>  0 0.25323510E+04</rscale>
<asrwt>0</asrwt>
<pdfrwt beam="1">  1        2 0.18245538E+00 0.25323510E+04</pdfrwt>
<pdfrwt beam="2">  1       -2 0.20797179E+00 0.25323510E+04</pdfrwt>
<totfact> 0.20270689E+00</totfact>
</mgrwt>
</event>
<event>
 4    1  0.2019612E-008  0.2671577E+04  0.7816531E-02  0.8344287E-01
          2   -1    0    0  501    0  0.00000000000E+00  0.00000000000E+00  0.18298066324E+04  0.18298066324E+04  0.00000000000E+00 0.  1.
         -2   -1    0    0    0  501 -0.00000000000E+00 -0.00000000000E+00 -0.97514715204E+03  0.97514715204E+03  0.00000000000E+00 0. -1.
    2000013    1    1    2    0    0  0.34892429701E+03  0.87173139886E+03  0.44089489312E+03  0.14066101463E+04  0.95000000000E+03 0.  0.
   -2000013    1    1    2    0    0 -0.34892429701E+03 -0.87173139886E+03  0.41376458727E+03  0.13983436382E+04  0.95000000000E+03 0.  0.
<mgrwt>
<rscale>  0 0.26715769E+04</rscale>
<asrwt>0</asrwt>
<pdfrwt beam="1">  1        2 0.28150871E+00 0.26715769E+04</pdfrwt>
<pdfrwt beam="2">  1       -2 0.15002264E+00 0.26715769E+04</pdfrwt>
<totfact> 0.21878343E+00</totfact>
</mgrwt>
</event>
<event>
 4    1  0.2019612E-008  0.2461100E+04  0.7816531E-02  0.8416976E-01
          2   -1    0    0  501    0  0.00000000000E+00  0.00000000000E+00  0.13348045210E+04  0.13348045210E+04  0.00000000000E+00 0. -1.
         -2   -1    0    0    0  501 -0.00000000000E+00 -0.00000000000E+00 -0.11344385462E+04  0.11344385462E+04  0.00000000000E+00 0.  1.
    2000013    1    1    2    0    0 -0.37876878417E+03  0.65575927504E+03  0.29645148648E+03  0.12505476810E+04  0.95000000000E+03 0.  0.
   -2000013    1    1    2    0    0  0.37876878417E+03 -0.65575927504E+03 -0.96085511695E+02  0.12186953861E+04  0.95000000000E+03 0.  0.
<mgrwt>
<rscale>  0 0.24611003E+04</rscale>
<asrwt>0</asrwt>
<pdfrwt beam="1">  1        2 0.20535454E+00 0.24611003E+04</pdfrwt>
<pdfrwt beam="2">  1       -2 0.17452901E+00 0.24611003E+04</pdfrwt>
<totfact> 0.27952643E+00</totfact>
</mgrwt>
</event>
<event>
 4    1  0.2019612E-008  0.2236066E+04  0.7816531E-02  0.8503565E-01
          2   -1    0    0  501    0  0.00000000000E+00  0.00000000000E+00  0.59853320753E+03  0.59853320753E+03  0.00000000000E+00 0.  1.
         -2   -1    0    0    0  501 -0.00000000000E+00 -0.00000000000E+00 -0.20884355507E+04  0.20884355507E+04  0.00000000000E+00 0. -1.
    2000013    1    1    2    0    0 -0.19829961919E+03  0.30872760135E+02 -0.14109971772E+04  0.17128014772E+04  0.95000000000E+03 0.  0.
   -2000013    1    1    2    0    0  0.19829961919E+03 -0.30872760135E+02 -0.78905166041E+02  0.97416728108E+03  0.95000000000E+03 0.  0.
<mgrwt>
<rscale>  0 0.22360662E+04</rscale>
<asrwt>0</asrwt>
<pdfrwt beam="1">  1        2 0.92082032E-01 0.22360662E+04</pdfrwt>
<pdfrwt beam="2">  1       -2 0.32129778E+00 0.22360662E+04</pdfrwt>
<totfact> 0.10665121E+00</totfact>
</mgrwt>
</event>
<event>
 4    1  0.2019612E-008  0.2984207E+04  0.7816531E-02  0.8248255E-01
         -1   -1    0    0    0  501 -0.00000000000E+00  0.00000000000E+00  0.96212013347E+03  0.96212013347E+03  0.00000000000E+00 0. -1.
          1   -1    0    0  501    0  0.00000000000E+00 -0.00000000000E+00 -0.23140273985E+04  0.23140273985E+04  0.00000000000E+00 0.  1.
    2000013    1    1    2    0    0  0.68750736633E+03 -0.32665182274E+03  0.27130426672E+03  0.12471863522E+04  0.95000000000E+03 0.  0.
   -2000013    1    1    2    0    0 -0.68750736633E+03  0.32665182274E+03 -0.16232115317E+04  0.20289611797E+04  0.95000000000E+03 0.  0.
<mgrwt>
<rscale>  0 0.29842067E+04</rscale>
<asrwt>0</asrwt>
<pdfrwt beam="2">  1        1 0.35600421E+00 0.29842067E+04</pdfrwt>
<pdfrwt beam="1">  1       -1 0.14801848E+00 0.29842067E+04</pdfrwt>
<totfact> 0.56085393E-01</totfact>
</mgrwt>
</event>
<event>
 4    1  0.2019612E-008  0.3336836E+04  0.7816531E-02  0.8153585E-01
          1   -1    0    0  501    0  0.00000000000E+00  0.00000000000E+00  0.26825156723E+04  0.26825156723E+04  0.00000000000E+00 0.  1.
         -1   -1    0    0    0  501 -0.00000000000E+00 -0.00000000000E+00 -0.10376895544E+04  0.10376895544E+04  0.00000000000E+00 0. -1.
    2000013    1    1    2    0    0  0.11952640063E+04 -0.67145271766E+03  0.77762699538E+03  0.18403012092E+04  0.95000000000E+03 0.  0.
   -2000013    1    1    2    0    0 -0.11952640063E+04  0.67145271766E+03  0.86719912252E+03  0.18799040175E+04  0.95000000000E+03 0.  0.
<mgrwt>
<rscale>  0 0.33368359E+04</rscale>
<asrwt>0</asrwt>
<pdfrwt beam="1">  1        1 0.41269472E+00 0.33368359E+04</pdfrwt>
<pdfrwt beam="2">  1       -1 0.15964455E+00 0.33368359E+04</pdfrwt>
<totfact> 0.24544903E-01</totfact>
</mgrwt>
</event>
<event>
 4    1  0.2019612E-008  0.2550344E+04  0.7816531E-02  0.8385267E-01
         -2   -1    0    0    0  501 -0.00000000000E+00  0.00000000000E+00  0.12931888486E+04  0.12931888486E+04  0.00000000000E+00 0.  1.
          2   -1    0    0  501    0  0.00000000000E+00 -0.00000000000E+00 -0.12574057362E+04  0.12574057362E+04  0.00000000000E+00 0. -1.
    2000013    1    1    2    0    0 -0.26427862097E+03 -0.44051560396E+03  0.69594493135E+03  0.12848099215E+04  0.95000000000E+03 0.  0.
   -2000013    1    1    2    0    0  0.26427862097E+03  0.44051560396E+03 -0.66016181891E+03  0.12657846634E+04  0.95000000000E+03 0.  0.
<mgrwt>
<rscale>  0 0.25503436E+04</rscale>
<asrwt>0</asrwt>
<pdfrwt beam="2">  1        2 0.19344704E+00 0.25503436E+04</pdfrwt>
<pdfrwt beam="1">  1       -2 0.19895213E+00 0.25503436E+04</pdfrwt>
<totfact> 0.21016434E+00</totfact>
</mgrwt>
</event>
<event>
 4    1  0.2019612E-008  0.2103699E+04  0.7816531E-02  0.8559616E-01
         -2   -1    0    0    0  501 -0.00000000000E+00  0.00000000000E+00  0.72355834935E+03  0.72355834935E+03  0.00000000000E+00 0. -1.
          2   -1    0    0  501    0  0.00000000000E+00 -0.00000000000E+00 -0.15290920739E+04  0.15290920739E+04  0.00000000000E+00 0.  1.
    2000013    1    1    2    0    0  0.16585113638E+03  0.37260307747E+03 -0.61025906714E+03  0.12005231284E+04  0.95000000000E+03 0.  0.
   -2000013    1    1    2    0    0 -0.16585113638E+03 -0.37260307747E+03 -0.19527465741E+03  0.10521272949E+04  0.95000000000E+03 0.  0.
<mgrwt>
<rscale>  0 0.21036990E+04</rscale>
<asrwt>0</asrwt>
<pdfrwt beam="2">  1        2 0.23524493E+00 0.21036990E+04</pdfrwt>
<pdfrwt beam="1">  1       -2 0.11131667E+00 0.21036990E+04</pdfrwt>
<totfact> 0.71888723E+00</totfact>
</mgrwt>
</event>
<event>
 4    1  0.2019612E-008  0.2224707E+04  0.7816531E-02  0.8508214E-01
          2   -1    0    0  501    0  0.00000000000E+00  0.00000000000E+00  0.96146002038E+03  0.96146002038E+03  0.00000000000E+00 0.  1.
         -2   -1    0    0    0  501 -0.00000000000E+00 -0.00000000000E+00 -0.12869290290E+04  0.12869290290E+04  0.00000000000E+00 0. -1.
    2000013    1    1    2    0    0 -0.43702947986E+03 -0.37880796495E+03 -0.14408352347E+03  0.11214946733E+04  0.95000000000E+03 0.  0.
   -2000013    1    1    2    0    0  0.43702947986E+03  0.37880796495E+03 -0.18138548516E+03  0.11268943761E+04  0.95000000000E+03 0.  0.
<mgrwt>
<rscale>  0 0.22247075E+04</rscale>
<asrwt>0</asrwt>
<pdfrwt beam="1">  1        2 0.14791693E+00 0.22247075E+04</pdfrwt>
<pdfrwt beam="2">  1       -2 0.19798908E+00 0.22247075E+04</pdfrwt>
<totfact> 0.33365536E+00</totfact>
</mgrwt>
</event>
<event>
 4    1  0.2019612E-008  0.2422314E+04  0.7816531E-02  0.8431197E-01
         -2   -1    0    0    0  501 -0.00000000000E+00  0.00000000000E+00  0.13764825096E+04  0.13764825096E+04  0.00000000000E+00 0. -1.
          2   -1    0    0  501    0  0.00000000000E+00 -0.00000000000E+00 -0.10656879040E+04  0.10656879040E+04  0.00000000000E+00 0.  1.
    2000013    1    1    2    0    0  0.31032044502E+03  0.37816500197E+03  0.73024070961E+03  0.12942407200E+04  0.95000000000E+03 0.  0.
   -2000013    1    1    2    0    0 -0.31032044502E+03 -0.37816500197E+03 -0.41944610396E+03  0.11479296936E+04  0.95000000000E+03 0.  0.
<mgrwt>
<rscale>  0 0.24223136E+04</rscale>
<asrwt>0</asrwt>
<pdfrwt beam="2">  1        2 0.16395198E+00 0.24223136E+04</pdfrwt>
<pdfrwt beam="1">  1       -2 0.21176654E+00 0.24223136E+04</pdfrwt>
<totfact> 0.22908754E+00</totfact>
</mgrwt>
</event>
<event>
 4    1  0.2019612E-008  0.1999212E+04  0.7816531E-02  0.8606989E-01
         -2   -1    0    0    0  501 -0.00000000000E+00  0.00000000000E+00  0.23961141660E+03  0.23961141660E+03  0.00000000000E+00 0. -1.
          2   -1    0    0  501    0  0.00000000000E+00 -0.00000000000E+00 -0.41701375359E+04  0.41701375359E+04  0.00000000000E+00 0.  1.
    2000013    1    1    2    0    0  0.30453470313E+02  0.30651527670E+03 -0.20597124968E+04  0.22890597629E+04  0.95000000000E+03 0.  0.
   -2000013    1    1    2    0    0 -0.30453470313E+02 -0.30651527670E+03 -0.18708136225E+04  0.21206891896E+04  0.95000000000E+03 0.  0.
<mgrwt>
<rscale>  0 0.19992124E+04</rscale>
<asrwt>0</asrwt>
<pdfrwt beam="2">  1        2 0.64155966E+00 0.19992124E+04</pdfrwt>
<pdfrwt beam="1">  1       -2 0.36863293E-01 0.19992124E+04</pdfrwt>
<totfact> 0.16095797E+00</totfact>
</mgrwt>
</event>
<event>
 4    1  0.2019612E-008  0.2270881E+04  0.7816531E-02  0.8489492E-01
         -2   -1    0    0    0  501 -0.00000000000E+00  0.00000000000E+00  0.60903447556E+03  0.60903447556E+03  0.00000000000E+00 0. -1.
          2   -1    0    0  501    0  0.00000000000E+00 -0.00000000000E+00 -0.21168348187E+04  0.21168348187E+04  0.00000000000E+00 0.  1.
    2000013    1    1    2    0    0 -0.46731715187E+03  0.38932649152E+03 -0.90932188401E+03  0.14489053545E+04  0.95000000000E+03 0.  0.
   -2000013    1    1    2    0    0  0.46731715187E+03 -0.38932649152E+03 -0.59847845908E+03  0.12769639397E+04  0.95000000000E+03 0.  0.
<mgrwt>
<rscale>  0 0.22708812E+04</rscale>
<asrwt>0</asrwt>
<pdfrwt beam="2">  1        2 0.32566690E+00 0.22708812E+04</pdfrwt>
<pdfrwt beam="1">  1       -2 0.93697611E-01 0.22708812E+04</pdfrwt>
<totfact> 0.50289358E+00</totfact>
</mgrwt>
</event>
<event>
 4    1  0.2019612E-008  0.2942187E+04  0.7816531E-02  0.8260435E-01
          2   -1    0    0  501    0  0.00000000000E+00  0.00000000000E+00  0.25951716975E+04  0.25951716975E+04  0.00000000000E+00 0.  1.
         -2   -1    0    0    0  501 -0.00000000000E+00 -0.00000000000E+00 -0.83390118132E+03  0.83390118132E+03  0.00000000000E+00 0. -1.
    2000013    1    1    2    0    0  0.32595302337E+03  0.10385688000E+04  0.12035105931E+04  0.18803745035E+04  0.95000000000E+03 0.  0.
   -2000013    1    1    2    0    0 -0.32595302337E+03 -0.10385688000E+04  0.55775992309E+03  0.15486983753E+04  0.95000000000E+03 0.  0.
<mgrwt>
<rscale>  0 0.29421874E+04</rscale>
<asrwt>0</asrwt>
<pdfrwt beam="1">  1        2 0.39925718E+00 0.29421874E+04</pdfrwt>
<pdfrwt beam="2">  1       -2 0.12829249E+00 0.29421874E+04</pdfrwt>
<totfact> 0.11827994E+00</totfact>
</mgrwt>
</event>
<event>
 4    1  0.2019612E-008  0.3878979E+04  0.7816531E-02  0.8029415E-01
         -2   -1    0    0    0  501 -0.00000000000E+00  0.00000000000E+00  0.24136722107E+04  0.24136722107E+04  0.00000000000E+00 0. -1.
          2   -1    0    0  501    0  0.00000000000E+00 -0.00000000000E+00 -0.15584629959E+04  0.15584629959E+04  0.00000000000E+00 0.  1.
    2000013    1    1    2    0    0  0.15030470791E+04  0.54556299363E+03 -0.13544514291E+03  0.18648417865E+04  0.95000000000E+03 0.  0.
   -2000013    1    1    2    0    0 -0.15030470791E+04 -0.54556299363E+03  0.99065435778E+03  0.21072934201E+04  0.95000000000E+03 0.  0.
<mgrwt>
<rscale>  0 0.38789786E+04</rscale>
<asrwt>0</asrwt>
<pdfrwt beam="2">  1        2 0.23976354E+00 0.38789786E+04</pdfrwt>
<pdfrwt beam="1">  1       -2 0.37133419E+00 0.38789786E+04</pdfrwt>
<totfact> 0.10665711E-01</totfact>
</mgrwt>
</event>
<event>
 4    1  0.2019612E-008  0.2495838E+04  0.7816531E-02  0.8404470E-01
          2   -1    0    0  501    0  0.00000000000E+00  0.00000000000E+00  0.13502515101E+04  0.13502515101E+04  0.00000000000E+00 0.  1.
         -2   -1    0    0    0  501 -0.00000000000E+00 -0.00000000000E+00 -0.11533419732E+04  0.11533419732E+04  0.00000000000E+00 0. -1.
    2000013    1    1    2    0    0 -0.73357308750E+03 -0.34008442271E+03  0.13041049587E+03  0.12543100840E+04  0.95000000000E+03 0.  0.
   -2000013    1    1    2    0    0  0.73357308750E+03  0.34008442271E+03  0.66499041004E+02  0.12492833993E+04  0.95000000000E+03 0.  0.
<mgrwt>
<rscale>  0 0.24958379E+04</rscale>
<asrwt>0</asrwt>
<pdfrwt beam="1">  1        2 0.20773100E+00 0.24958379E+04</pdfrwt>
<pdfrwt beam="2">  1       -2 0.17743723E+00 0.24958379E+04</pdfrwt>
<totfact> 0.26053863E+00</totfact>
</mgrwt>
</event>
<event>
 4    1  0.2019612E-008  0.2514036E+04  0.7816531E-02  0.8398002E-01
          2   -1    0    0  501    0  0.00000000000E+00  0.00000000000E+00  0.20071428840E+04  0.20071428840E+04  0.00000000000E+00 0.  1.
         -2   -1    0    0    0  501 -0.00000000000E+00 -0.00000000000E+00 -0.78723578696E+03  0.78723578696E+03  0.00000000000E+00 0. -1.
    2000013    1    1    2    0    0  0.67042981716E+03 -0.22230412473E+03  0.10798209372E+04  0.16023134899E+04  0.95000000000E+03 0.  0.
   -2000013    1    1    2    0    0 -0.67042981716E+03  0.22230412473E+03  0.14008615984E+03  0.11920651810E+04  0.95000000000E+03 0.  0.
<mgrwt>
<rscale>  0 0.25140364E+04</rscale>
<asrwt>0</asrwt>
<pdfrwt beam="1">  1        2 0.30879121E+00 0.25140364E+04</pdfrwt>
<pdfrwt beam="2">  1       -2 0.12111320E+00 0.25140364E+04</pdfrwt>
<totfact> 0.30605017E+00</totfact>
</mgrwt>
</event>
<event>
 4    1  0.2019612E-008  0.4008989E+04  0.7816531E-02  0.8002736E-01
         -2   -1    0    0    0  501 -0.00000000000E+00  0.00000000000E+00  0.19483302069E+04  0.19483302069E+04  0.00000000000E+00 0. -1.
          2   -1    0    0  501    0  0.00000000000E+00 -0.00000000000E+00 -0.20622776307E+04  0.20622776307E+04  0.00000000000E+00 0.  1.
    2000013    1    1    2    0    0 -0.10236570276E+04  0.80451097050E+03 -0.12492545819E+04  0.20391784184E+04  0.95000000000E+03 0.  0.
   -2000013    1    1    2    0    0  0.10236570276E+04 -0.80451097050E+03  0.11353071581E+04  0.19714294192E+04  0.95000000000E+03 0.  0.
<mgrwt>
<rscale>  0 0.40089888E+04</rscale>
<asrwt>0</asrwt>
<pdfrwt beam="2">  1        2 0.31727348E+00 0.40089888E+04</pdfrwt>
<pdfrwt beam="1">  1       -2 0.29974311E+00 0.40089888E+04</pdfrwt>
<totfact> 0.15510721E-01</totfact>
</mgrwt>
</event>
<event>
 4    1  0.2019612E-008  0.2425266E+04  0.7816531E-02  0.8430105E-01
          2   -1    0    0  501    0  0.00000000000E+00  0.00000000000E+00  0.16596206486E+04  0.16596206486E+04  0.00000000000E+00 0.  1.
         -2   -1    0    0    0  501 -0.00000000000E+00 -0.00000000000E+00 -0.88603300285E+03  0.88603300285E+03  0.00000000000E+00 0. -1.
    2000013    1    1    2    0    0 -0.67566387343E+02 -0.74374397274E+03  0.28048268187E+03  0.12405203942E+04  0.95000000000E+03 0.  0.
   -2000013    1    1    2    0    0  0.67566387343E+02  0.74374397274E+03  0.49310496389E+03  0.13051332572E+04  0.95000000000E+03 0.  0.
<mgrwt>
<rscale>  0 0.24252659E+04</rscale>
<asrwt>0</asrwt>
<pdfrwt beam="1">  1        2 0.25532625E+00 0.24252659E+04</pdfrwt>
<pdfrwt beam="2">  1       -2 0.13631277E+00 0.24252659E+04</pdfrwt>
<totfact> 0.35675605E+00</totfact>
</mgrwt>
</event>
<event>
 4    1  0.2019612E-008  0.2541005E+04  0.7816531E-02  0.8388521E-01
          2   -1    0    0  501    0  0.00000000000E+00  0.00000000000E+00  0.24018233146E+04  0.24018233146E+04  0.00000000000E+00 0.  1.
         -2   -1    0    0    0  501 -0.00000000000E+00 -0.00000000000E+00 -0.67206301464E+03  0.67206301464E+03  0.00000000000E+00 0. -1.
    2000013    1    1    2    0    0 -0.33904054732E+03 -0.48302467704E+03  0.15941426422E+04  0.19473192072E+04  0.95000000000E+03 0.  0.
   -2000013    1    1    2    0    0  0.33904054732E+03  0.48302467704E+03  0.13561765785E+03  0.11265671220E+04  0.95000000000E+03 0.  0.
<mgrwt>
<rscale>  0 0.25410050E+04</rscale>
<asrwt>0</asrwt>
<pdfrwt beam="1">  1        2 0.36951128E+00 0.25410050E+04</pdfrwt>
<pdfrwt beam="2">  1       -2 0.10339431E+00 0.25410050E+04</pdfrwt>
<totfact> 0.26884254E+00</totfact>
</mgrwt>
</event>
<event>
 4    1  0.2019612E-008  0.2680822E+04  0.7816531E-02  0.8341254E-01
         -2   -1    0    0    0  501 -0.00000000000E+00  0.00000000000E+00  0.16824394574E+04  0.16824394574E+04  0.00000000000E+00 0. -1.
          2   -1    0    0  501    0  0.00000000000E+00 -0.00000000000E+00 -0.10679149325E+04  0.10679149325E+04  0.00000000000E+00 0.  1.
    2000013    1    1    2    0    0  0.54803414058E+03 -0.65704439930E+03 -0.10586486795E+03  0.12828702710E+04  0.95000000000E+03 0.  0.
   -2000013    1    1    2    0    0 -0.54803414058E+03  0.65704439930E+03  0.72038939280E+03  0.14674841189E+04  0.95000000000E+03 0.  0.
<mgrwt>
<rscale>  0 0.26808224E+04</rscale>
<asrwt>0</asrwt>
<pdfrwt beam="2">  1        2 0.16429461E+00 0.26808224E+04</pdfrwt>
<pdfrwt beam="1">  1       -2 0.25883684E+00 0.26808224E+04</pdfrwt>
<totfact> 0.11366617E+00</totfact>
</mgrwt>
</event>
<event>
 4    1  0.2019612E-008  0.2193444E+04  0.7816531E-02  0.8521162E-01
         -2   -1    0    0    0  501 -0.00000000000E+00  0.00000000000E+00  0.15579171411E+04  0.15579171411E+04  0.00000000000E+00 0. -1.
          2   -1    0    0  501    0  0.00000000000E+00 -0.00000000000E+00 -0.77205614615E+03  0.77205614615E+03  0.00000000000E+00 0.  1.
    2000013    1    1    2    0    0 -0.36294959531E+03 -0.39091346487E+03  0.52625697788E+03  0.12099554341E+04  0.95000000000E+03 0.  0.
   -2000013    1    1    2    0    0  0.36294959531E+03  0.39091346487E+03  0.25960401711E+03  0.11200178532E+04  0.95000000000E+03 0.  0.
<mgrwt>
<rscale>  0 0.21934443E+04</rscale>
<asrwt>0</asrwt>
<pdfrwt beam="2">  1        2 0.11877787E+00 0.21934443E+04</pdfrwt>
<pdfrwt beam="1">  1       -2 0.23967956E+00 0.21934443E+04</pdfrwt>
<totfact> 0.24564929E+00</totfact>
</mgrwt>
</event>
<event>
 4    1  0.2019612E-008  0.2211500E+04  0.7816531E-02  0.8513657E-01
          2   -1    0    0  501    0  0.00000000000E+00  0.00000000000E+00  0.25192876543E+04  0.25192876543E+04  0.00000000000E+00 0.  1.
         -2   -1    0    0    0  501 -0.00000000000E+00 -0.00000000000E+00 -0.48532866793E+03  0.48532866793E+03  0.00000000000E+00 0. -1.
    2000013    1    1    2    0    0 -0.56251439730E+03 -0.15849631218E+02  0.93649996751E+03  0.14478279757E+04  0.95000000000E+03 0.  0.
   -2000013    1    1    2    0    0  0.56251439730E+03  0.15849631218E+02  0.10974590189E+04  0.15567883466E+04  0.95000000000E+03 0.  0.
<mgrwt>
<rscale>  0 0.22114995E+04</rscale>
<asrwt>0</asrwt>
<pdfrwt beam="1">  1        2 0.38758271E+00 0.22114995E+04</pdfrwt>
<pdfrwt beam="2">  1       -2 0.74665951E-01 0.22114995E+04</pdfrwt>
<totfact> 0.49965487E+00</totfact>
</mgrwt>
</event>
<event>
 4    1  0.2019612E-008  0.3210744E+04  0.7816531E-02  0.8185986E-01
          2   -1    0    0  501    0  0.00000000000E+00  0.00000000000E+00  0.26456061443E+04  0.26456061443E+04  0.00000000000E+00 0.  1.
         -2   -1    0    0    0  501 -0.00000000000E+00 -0.00000000000E+00 -0.97415059646E+03  0.97415059646E+03  0.00000000000E+00 0. -1.
    2000013    1    1    2    0    0 -0.46659796459E+03 -0.12068262151E+04  0.80867914474E+03  0.17973884202E+04  0.95000000000E+03 0.  0.
   -2000013    1    1    2    0    0  0.46659796459E+03  0.12068262151E+04  0.86277640308E+03  0.18223683205E+04  0.95000000000E+03 0.  0.
<mgrwt>
<rscale>  0 0.32107437E+04</rscale>
<asrwt>0</asrwt>
<pdfrwt beam="1">  1        2 0.40701633E+00 0.32107437E+04</pdfrwt>
<pdfrwt beam="2">  1       -2 0.14986932E+00 0.32107437E+04</pdfrwt>
<totfact> 0.72250108E-01</totfact>
</mgrwt>
</event>
<event>
 4    1  0.2019612E-008  0.2320886E+04  0.7816531E-02  0.8469731E-01
         -2   -1    0    0    0  501 -0.00000000000E+00  0.00000000000E+00  0.57170743649E+03  0.57170743649E+03  0.00000000000E+00 0. -1.
          2   -1    0    0  501    0  0.00000000000E+00 -0.00000000000E+00 -0.23554495042E+04  0.23554495042E+04  0.00000000000E+00 0.  1.
    2000013    1    1    2    0    0 -0.17604391080E+03 -0.62626365819E+03 -0.70940558390E+03  0.13523882248E+04  0.95000000000E+03 0.  0.
   -2000013    1    1    2    0    0  0.17604391080E+03  0.62626365819E+03 -0.10743364838E+04  0.15747687159E+04  0.95000000000E+03 0.  0.
<mgrwt>
<rscale>  0 0.23208860E+04</rscale>
<asrwt>0</asrwt>
<pdfrwt beam="2">  1        2 0.36237684E+00 0.23208860E+04</pdfrwt>
<pdfrwt beam="1">  1       -2 0.87954991E-01 0.23208860E+04</pdfrwt>
<totfact> 0.42510820E+00</totfact>
</mgrwt>
</event>
<event>
 4    1  0.2019612E-008  0.2764841E+04  0.7816531E-02  0.8314268E-01
          2   -1    0    0  501    0  0.00000000000E+00  0.00000000000E+00  0.33988883760E+04  0.33988883760E+04  0.00000000000E+00 0.  1.
         -2   -1    0    0    0  501 -0.00000000000E+00 -0.00000000000E+00 -0.56226788546E+03  0.56226788546E+03  0.00000000000E+00 0. -1.
    2000013    1    1    2    0    0 -0.11775646883E+02 -0.89327535522E+03  0.20756416631E+04  0.24512992146E+04  0.95000000000E+03 0.  0.
   -2000013    1    1    2    0    0  0.11775646883E+02  0.89327535522E+03  0.76097882749E+03  0.15098570469E+04  0.95000000000E+03 0.  0.
<mgrwt>
<rscale>  0 0.27648405E+04</rscale>
<asrwt>0</asrwt>
<pdfrwt beam="1">  1        2 0.52290589E+00 0.27648405E+04</pdfrwt>
<pdfrwt beam="2">  1       -2 0.86502754E-01 0.27648405E+04</pdfrwt>
<totfact> 0.96468221E-01</totfact>
</mgrwt>
</event>
<event>
 4    1  0.2019612E-008  0.2405828E+04  0.7816531E-02  0.8437325E-01
         -2   -1    0    0    0  501 -0.00000000000E+00  0.00000000000E+00  0.64633279154E+03  0.64633279154E+03  0.00000000000E+00 0. -1.
          2   -1    0    0  501    0  0.00000000000E+00 -0.00000000000E+00 -0.22387889135E+04  0.22387889135E+04  0.00000000000E+00 0.  1.
    2000013    1    1    2    0    0  0.46763292053E+03  0.54867009643E+03 -0.98501795142E+03  0.15467642961E+04  0.95000000000E+03 0.  0.
   -2000013    1    1    2    0    0 -0.46763292053E+03 -0.54867009643E+03 -0.60743817059E+03  0.13383574090E+04  0.95000000000E+03 0.  0.
<mgrwt>
<rscale>  0 0.24058285E+04</rscale>
<asrwt>0</asrwt>
<pdfrwt beam="2">  1        2 0.34442907E+00 0.24058285E+04</pdfrwt>
<pdfrwt beam="1">  1       -2 0.99435814E-01 0.24058285E+04</pdfrwt>
<totfact> 0.36941199E+00</totfact>
</mgrwt>
</event>
<event>
 4    1  0.2019612E-008  0.2341257E+04  0.7816531E-02  0.8461830E-01
         -2   -1    0    0    0  501 -0.00000000000E+00  0.00000000000E+00  0.11701113137E+04  0.11701113137E+04  0.00000000000E+00 0. -1.
          2   -1    0    0  501    0  0.00000000000E+00 -0.00000000000E+00 -0.11711456124E+04  0.11711456124E+04  0.00000000000E+00 0.  1.
    2000013    1    1    2    0    0  0.40541808362E+03 -0.48707719669E+03  0.25689832422E+03  0.11705147445E+04  0.95000000000E+03 0.  0.
   -2000013    1    1    2    0    0 -0.40541808362E+03  0.48707719669E+03 -0.25793262293E+03  0.11707421817E+04  0.95000000000E+03 0.  0.
<mgrwt>
<rscale>  0 0.23412567E+04</rscale>
<asrwt>0</asrwt>
<pdfrwt beam="2">  1        2 0.18017625E+00 0.23412567E+04</pdfrwt>
<pdfrwt beam="1">  1       -2 0.18001712E+00 0.23412567E+04</pdfrwt>
<totfact> 0.32287704E+00</totfact>
</mgrwt>
</event>
<event>
 4    1  0.2019612E-008  0.2515190E+04  0.7816531E-02  0.8397594E-01
         -2   -1    0    0    0  501 -0.00000000000E+00  0.00000000000E+00  0.10464395265E+04  0.10464395265E+04  0.00000000000E+00 0. -1.
          2   -1    0    0  501    0  0.00000000000E+00 -0.00000000000E+00 -0.15113579470E+04  0.15113579470E+04  0.00000000000E+00 0.  1.
    2000013    1    1    2    0    0  0.66842654723E+03 -0.47074992905E+03 -0.33738235770E+03  0.12979701075E+04  0.95000000000E+03 0.  0.
   -2000013    1    1    2    0    0 -0.66842654723E+03  0.47074992905E+03 -0.12753606276E+03  0.12598273660E+04  0.95000000000E+03 0.  0.
<mgrwt>
<rscale>  0 0.25151896E+04</rscale>
<asrwt>0</asrwt>
<pdfrwt beam="2">  1        2 0.23251661E+00 0.25151896E+04</pdfrwt>
<pdfrwt beam="1">  1       -2 0.16099070E+00 0.25151896E+04</pdfrwt>
<totfact> 0.27599948E+00</totfact>
</mgrwt>
</event>
<event>
 4    1  0.2019612E-008  0.2857735E+04  0.7816531E-02  0.8285565E-01
         -2   -1    0    0    0  501 -0.00000000000E+00  0.00000000000E+00  0.88946920869E+03  0.88946920869E+03  0.00000000000E+00 0. -1.
          2   -1    0    0  501    0  0.00000000000E+00 -0.00000000000E+00 -0.22953710252E+04  0.22953710252E+04  0.00000000000E+00 0.  1.
    2000013    1    1    2    0    0 -0.10343556259E+04 -0.18466206661E+03 -0.49394756748E+03  0.15001586046E+04  0.95000000000E+03 0.  0.
   -2000013    1    1    2    0    0  0.10343556259E+04  0.18466206661E+03 -0.91195424898E+03  0.16846816292E+04  0.95000000000E+03 0.  0.
<mgrwt>
<rscale>  0 0.28577347E+04</rscale>
<asrwt>0</asrwt>
<pdfrwt beam="2">  1        2 0.35313401E+00 0.28577347E+04</pdfrwt>
<pdfrwt beam="1">  1       -2 0.13684142E+00 0.28577347E+04</pdfrwt>
<totfact> 0.15050698E+00</totfact>
</mgrwt>
</event>
<event>
 4    1  0.2019612E-008  0.2466738E+04  0.7816531E-02  0.8414932E-01
          2   -1    0    0  501    0  0.00000000000E+00  0.00000000000E+00  0.12866726719E+04  0.12866726719E+04  0.00000000000E+00 0. -1.
         -2   -1    0    0    0  501 -0.00000000000E+00 -0.00000000000E+00 -0.11822731902E+04  0.11822731902E+04  0.00000000000E+00 0.  1.
    2000013    1    1    2    0    0 -0.26874281705E+03  0.71287196880E+03  0.24805183807E+03  0.12427545453E+04  0.95000000000E+03 0.  0.
   -2000013    1    1    2    0    0  0.26874281705E+03 -0.71287196880E+03 -0.14365235635E+03  0.12261913167E+04  0.95000000000E+03 0.  0.
<mgrwt>
<rscale>  0 0.24667376E+04</rscale>
<asrwt>0</asrwt>
<pdfrwt beam="1">  1        2 0.19794964E+00 0.24667376E+04</pdfrwt>
<pdfrwt beam="2">  1       -2 0.18188818E+00 0.24667376E+04</pdfrwt>
<totfact> 0.26488992E+00</totfact>
</mgrwt>
</event>
<event>
 4    1  0.2019612E-008  0.2227294E+04  0.7816531E-02  0.8507153E-01
          1   -1    0    0  501    0  0.00000000000E+00  0.00000000000E+00  0.15928988262E+04  0.15928988262E+04  0.00000000000E+00 0.  1.
         -1   -1    0    0    0  501 -0.00000000000E+00 -0.00000000000E+00 -0.77858631526E+03  0.77858631526E+03  0.00000000000E+00 0. -1.
    2000013    1    1    2    0    0  0.57146656847E+03  0.52021304456E+02  0.50490929178E+03  0.12193086762E+04  0.95000000000E+03 0.  0.
   -2000013    1    1    2    0    0 -0.57146656847E+03 -0.52021304456E+02  0.30940321914E+03  0.11521764652E+04  0.95000000000E+03 0.  0.
<mgrwt>
<rscale>  0 0.22272936E+04</rscale>
<asrwt>0</asrwt>
<pdfrwt beam="1">  1        1 0.24506136E+00 0.22272936E+04</pdfrwt>
<pdfrwt beam="2">  1       -1 0.11978251E+00 0.22272936E+04</pdfrwt>
<totfact> 0.31917090E+00</totfact>
</mgrwt>
</event>
<event>
 4    1  0.2019612E-008  0.2933225E+04  0.7816531E-02  0.8263060E-01
         -2   -1    0    0    0  501 -0.00000000000E+00  0.00000000000E+00  0.14099036977E+04  0.14099036977E+04  0.00000000000E+00 0. -1.
          2   -1    0    0  501    0  0.00000000000E+00 -0.00000000000E+00 -0.15256024499E+04  0.15256024499E+04  0.00000000000E+00 0.  1.
    2000013    1    1    2    0    0  0.36980250763E+03 -0.67810111064E+03 -0.86586654509E+03  0.14995999082E+04  0.95000000000E+03 0.  0.
   -2000013    1    1    2    0    0 -0.36980250763E+03  0.67810111064E+03  0.75016779289E+03  0.14359062394E+04  0.95000000000E+03 0.  0.
<mgrwt>
<rscale>  0 0.29332252E+04</rscale>
<asrwt>0</asrwt>
<pdfrwt beam="2">  1        2 0.23470807E+00 0.29332252E+04</pdfrwt>
<pdfrwt beam="1">  1       -2 0.21690826E+00 0.29332252E+04</pdfrwt>
<totfact> 0.10929429E+00</totfact>
</mgrwt>
</event>
<event>
 4    1  0.2019612E-008  0.3645236E+04  0.7816531E-02  0.8080208E-01
         -2   -1    0    0    0  501 -0.00000000000E+00  0.00000000000E+00  0.12247682525E+04  0.12247682525E+04  0.00000000000E+00 0. -1.
          2   -1    0    0  501    0  0.00000000000E+00 -0.00000000000E+00 -0.27122975246E+04  0.27122975246E+04  0.00000000000E+00 0.  1.
    2000013    1    1    2    0    0  0.13404591677E+04  0.56273667548E+03 -0.13411573157E+04  0.21942438997E+04  0.95000000000E+03 0.  0.
   -2000013    1    1    2    0    0 -0.13404591677E+04 -0.56273667548E+03 -0.14637195644E+03  0.17428218773E+04  0.95000000000E+03 0.  0.
<mgrwt>
<rscale>  0 0.36452357E+04</rscale>
<asrwt>0</asrwt>
<pdfrwt beam="2">  1        2 0.41727654E+00 0.36452357E+04</pdfrwt>
<pdfrwt beam="1">  1       -2 0.18842589E+00 0.36452357E+04</pdfrwt>
<totfact> 0.33665870E-01</totfact>
</mgrwt>
</event>
<event>
 4    1  0.2019612E-008  0.2903961E+04  0.7816531E-02  0.8271700E-01
         -3   -1    0    0    0  501 -0.00000000000E+00  0.00000000000E+00  0.20629056278E+04  0.20629056278E+04  0.00000000000E+00 0. -1.
          3   -1    0    0  501    0  0.00000000000E+00 -0.00000000000E+00 -0.10219792031E+04  0.10219792031E+04  0.00000000000E+00 0.  1.
    2000013    1    1    2    0    0 -0.53436330362E+02  0.10841078431E+04  0.69695062937E+03  0.16019942062E+04  0.95000000000E+03 0.  0.
   -2000013    1    1    2    0    0  0.53436330362E+02 -0.10841078431E+04  0.34397579531E+03  0.14828906247E+04  0.95000000000E+03 0.  0.
<mgrwt>
<rscale>  0 0.29039605E+04</rscale>
<asrwt>0</asrwt>
<pdfrwt beam="2">  1        3 0.15722757E+00 0.29039605E+04</pdfrwt>
<pdfrwt beam="1">  1       -3 0.31737010E+00 0.29039605E+04</pdfrwt>
<totfact> 0.19475702E-02</totfact>
</mgrwt>
</event>
<event>
 4    1  0.2019612E-008  0.2147529E+04  0.7816531E-02  0.8540591E-01
          2   -1    0    0  501    0  0.00000000000E+00  0.00000000000E+00  0.26813356170E+04  0.26813356170E+04  0.00000000000E+00 0.  1.
         -2   -1    0    0    0  501 -0.00000000000E+00 -0.00000000000E+00 -0.42999833555E+03  0.42999833555E+03  0.00000000000E+00 0. -1.
    2000013    1    1    2    0    0 -0.45527596104E+03 -0.20505155866E+03  0.10765907504E+04  0.15201545929E+04  0.95000000000E+03 0.  0.
   -2000013    1    1    2    0    0  0.45527596104E+03  0.20505155866E+03  0.11747465311E+04  0.15911793597E+04  0.95000000000E+03 0.  0.
<mgrwt>
<rscale>  0 0.21475287E+04</rscale>
<asrwt>0</asrwt>
<pdfrwt beam="1">  1        2 0.41251316E+00 0.21475287E+04</pdfrwt>
<pdfrwt beam="2">  1       -2 0.66153592E-01 0.21475287E+04</pdfrwt>
<totfact> 0.52594577E+00</totfact>
</mgrwt>
</event>
<event>
 4    1  0.2019612E-008  0.2915025E+04  0.7816531E-02  0.8268421E-01
         -2   -1    0    0    0  501 -0.00000000000E+00  0.00000000000E+00  0.14925802689E+04  0.14925802689E+04  0.00000000000E+00 0. -1.
          2   -1    0    0  501    0  0.00000000000E+00 -0.00000000000E+00 -0.14232689394E+04  0.14232689394E+04  0.00000000000E+00 0.  1.
    2000013    1    1    2    0    0 -0.93838263303E+03 -0.41504256367E+02 -0.54822557462E+03  0.14440691985E+04  0.95000000000E+03 0.  0.
   -2000013    1    1    2    0    0  0.93838263303E+03  0.41504256367E+02  0.61753690417E+03  0.14717800098E+04  0.95000000000E+03 0.  0.
<mgrwt>
<rscale>  0 0.29150253E+04</rscale>
<asrwt>0</asrwt>
<pdfrwt beam="2">  1        2 0.21896445E+00 0.29150253E+04</pdfrwt>
<pdfrwt beam="1">  1       -2 0.22962774E+00 0.29150253E+04</pdfrwt>
<totfact> 0.10399140E+00</totfact>
</mgrwt>
</event>
<event>
 4    1  0.2019612E-008  0.3232983E+04  0.7816531E-02  0.8180160E-01
         -2   -1    0    0    0  501 -0.00000000000E+00  0.00000000000E+00  0.16882218395E+04  0.16882218395E+04  0.00000000000E+00 0. -1.
          2   -1    0    0  501    0  0.00000000000E+00 -0.00000000000E+00 -0.15478091993E+04  0.15478091993E+04  0.00000000000E+00 0.  1.
    2000013    1    1    2    0    0 -0.12462521560E+04  0.26788362012E+03  0.36312399222E+03  0.16307253307E+04  0.95000000000E+03 0.  0.
   -2000013    1    1    2    0    0  0.12462521560E+04 -0.26788362012E+03 -0.22271135201E+03  0.16053057082E+04  0.95000000000E+03 0.  0.
<mgrwt>
<rscale>  0 0.32329833E+04</rscale>
<asrwt>0</asrwt>
<pdfrwt beam="2">  1        2 0.23812449E+00 0.32329833E+04</pdfrwt>
<pdfrwt beam="1">  1       -2 0.25972644E+00 0.32329833E+04</pdfrwt>
<totfact> 0.56112402E-01</totfact>
</mgrwt>
</event>
<event>
 4    1  0.2019612E-008  0.2902287E+04  0.7816531E-02  0.8272197E-01
          2   -1    0    0  501    0  0.00000000000E+00  0.00000000000E+00  0.23803094292E+04  0.23803094292E+04  0.00000000000E+00 0.  1.
         -2   -1    0    0    0  501 -0.00000000000E+00 -0.00000000000E+00 -0.88468215741E+03  0.88468215741E+03  0.00000000000E+00 0. -1.
    2000013    1    1    2    0    0 -0.14431157212E+03  0.91203963365E+03  0.14139976834E+04  0.19376613666E+04  0.95000000000E+03 0.  0.
   -2000013    1    1    2    0    0  0.14431157212E+03 -0.91203963365E+03  0.81629588464E+02  0.13273302200E+04  0.95000000000E+03 0.  0.
<mgrwt>
<rscale>  0 0.29022869E+04</rscale>
<asrwt>0</asrwt>
<pdfrwt beam="1">  1        2 0.36620145E+00 0.29022869E+04</pdfrwt>
<pdfrwt beam="2">  1       -2 0.13610495E+00 0.29022869E+04</pdfrwt>
<totfact> 0.13600958E+00</totfact>
</mgrwt>
</event>
<event>
 4    1  0.2019612E-008  0.3377664E+04  0.7816531E-02  0.8143410E-01
          2   -1    0    0  501    0  0.00000000000E+00  0.00000000000E+00  0.28432686583E+04  0.28432686583E+04  0.00000000000E+00 0. -1.
         -2   -1    0    0    0  501 -0.00000000000E+00 -0.00000000000E+00 -0.10031247880E+04  0.10031247880E+04  0.00000000000E+00 0.  1.
    2000013    1    1    2    0    0 -0.12345612544E+04 -0.58950615511E+03  0.60204153525E+03  0.17710485617E+04  0.95000000000E+03 0.  0.
   -2000013    1    1    2    0    0  0.12345612544E+04  0.58950615511E+03  0.12381023351E+04  0.20753448846E+04  0.95000000000E+03 0.  0.
<mgrwt>
<rscale>  0 0.33776638E+04</rscale>
<asrwt>0</asrwt>
<pdfrwt beam="1">  1        2 0.43742594E+00 0.33776638E+04</pdfrwt>
<pdfrwt beam="2">  1       -2 0.15432689E+00 0.33776638E+04</pdfrwt>
<totfact> 0.50146596E-01</totfact>
</mgrwt>
</event>
<event>
 4    1  0.2019612E-008  0.2898567E+04  0.7816531E-02  0.8273304E-01
         -1   -1    0    0    0  501 -0.00000000000E+00  0.00000000000E+00  0.12118711261E+04  0.12118711261E+04  0.00000000000E+00 0.  1.
          1   -1    0    0  501    0  0.00000000000E+00 -0.00000000000E+00 -0.17332057711E+04  0.17332057711E+04  0.00000000000E+00 0. -1.
    2000013    1    1    2    0    0 -0.73341294577E+03 -0.74703018817E+03 -0.58512403618E+03  0.15299734602E+04  0.95000000000E+03 0.  0.
   -2000013    1    1    2    0    0  0.73341294577E+03  0.74703018817E+03  0.63789391267E+02  0.14151034370E+04  0.95000000000E+03 0.  0.
<mgrwt>
<rscale>  0 0.28985666E+04</rscale>
<asrwt>0</asrwt>
<pdfrwt beam="2">  1        1 0.26664704E+00 0.28985666E+04</pdfrwt>
<pdfrwt beam="1">  1       -1 0.18644171E+00 0.28985666E+04</pdfrwt>
<totfact> 0.72706492E-01</totfact>
</mgrwt>
</event>
<event>
 4    1  0.2019612E-008  0.1997599E+04  0.7816531E-02  0.8607744E-01
         -2   -1    0    0    0  501 -0.00000000000E+00  0.00000000000E+00  0.13427679105E+04  0.13427679105E+04  0.00000000000E+00 0. -1.
          2   -1    0    0  501    0  0.00000000000E+00 -0.00000000000E+00 -0.74294301513E+03  0.74294301513E+03  0.00000000000E+00 0.  1.
    2000013    1    1    2    0    0 -0.30581708795E+03  0.39577366516E+02  0.29668062555E+03  0.10419260304E+04  0.95000000000E+03 0.  0.
   -2000013    1    1    2    0    0  0.30581708795E+03 -0.39577366516E+02  0.30314426984E+03  0.10437848953E+04  0.95000000000E+03 0.  0.
<mgrwt>
<rscale>  0 0.19975986E+04</rscale>
<asrwt>0</asrwt>
<pdfrwt beam="2">  1        2 0.11429893E+00 0.19975986E+04</pdfrwt>
<pdfrwt beam="1">  1       -2 0.20657968E+00 0.19975986E+04</pdfrwt>
<totfact> 0.42477730E+00</totfact>
</mgrwt>
</event>
<event>
 4    1  0.2019612E-008  0.3380204E+04  0.7816531E-02  0.8142782E-01
         -2   -1    0    0    0  501 -0.00000000000E+00  0.00000000000E+00  0.20046191960E+04  0.20046191960E+04  0.00000000000E+00 0. -1.
          2   -1    0    0  501    0  0.00000000000E+00 -0.00000000000E+00 -0.14249310873E+04  0.14249310873E+04  0.00000000000E+00 0.  1.
    2000013    1    1    2    0    0  0.66885778217E+03 -0.44566510811E+03 -0.87051097241E+03  0.15186433006E+04  0.95000000000E+03 0.  0.
   -2000013    1    1    2    0    0 -0.66885778217E+03  0.44566510811E+03  0.14501990812E+04  0.19109069827E+04  0.95000000000E+03 0.  0.
<mgrwt>
<rscale>  0 0.33802037E+04</rscale>
<asrwt>0</asrwt>
<pdfrwt beam="2">  1        2 0.21922017E+00 0.33802037E+04</pdfrwt>
<pdfrwt beam="1">  1       -2 0.30840295E+00 0.33802037E+04</pdfrwt>
<totfact> 0.32792434E-01</totfact>
</mgrwt>
</event>
<event>
 4    1  0.2019612E-008  0.2198125E+04  0.7816531E-02  0.8519209E-01
          2   -1    0    0  501    0  0.00000000000E+00  0.00000000000E+00  0.22511409946E+04  0.22511409946E+04  0.00000000000E+00 0.  1.
         -2   -1    0    0    0  501 -0.00000000000E+00 -0.00000000000E+00 -0.53658935844E+03  0.53658935844E+03  0.00000000000E+00 0. -1.
    2000013    1    1    2    0    0  0.23055106471E+03 -0.48154964336E+03  0.67616083214E+03  0.12824731277E+04  0.95000000000E+03 0.  0.
   -2000013    1    1    2    0    0 -0.23055106471E+03  0.48154964336E+03  0.10383908040E+04  0.15052572253E+04  0.95000000000E+03 0.  0.
<mgrwt>
<rscale>  0 0.21981249E+04</rscale>
<asrwt>0</asrwt>
<pdfrwt beam="1">  1        2 0.34632938E+00 0.21981249E+04</pdfrwt>
<pdfrwt beam="2">  1       -2 0.82552210E-01 0.21981249E+04</pdfrwt>
<totfact> 0.56872665E+00</totfact>
</mgrwt>
</event>
<event>
 4    1  0.2019612E-008  0.2704170E+04  0.7816531E-02  0.8333653E-01
         -2   -1    0    0    0  501 -0.00000000000E+00  0.00000000000E+00  0.78778648727E+03  0.78778648727E+03  0.00000000000E+00 0. -1.
          2   -1    0    0  501    0  0.00000000000E+00 -0.00000000000E+00 -0.23205950748E+04  0.23205950748E+04  0.00000000000E+00 0.  1.
    2000013    1    1    2    0    0  0.63418893197E+03 -0.37202063999E+03 -0.53136768201E+02  0.12024635022E+04  0.95000000000E+03 0.  0.
   -2000013    1    1    2    0    0 -0.63418893197E+03  0.37202063999E+03 -0.14796718193E+04  0.19059180599E+04  0.95000000000E+03 0.  0.
<mgrwt>
<rscale>  0 0.27041697E+04</rscale>
<asrwt>0</asrwt>
<pdfrwt beam="2">  1        2 0.35701462E+00 0.27041697E+04</pdfrwt>
<pdfrwt beam="1">  1       -2 0.12119792E+00 0.27041697E+04</pdfrwt>
<totfact> 0.20045905E+00</totfact>
</mgrwt>
</event>
<event>
 4    1  0.2019612E-008  0.3018202E+04  0.7816531E-02  0.8238552E-01
          2   -1    0    0  501    0  0.00000000000E+00  0.00000000000E+00  0.12825079497E+04  0.12825079497E+04  0.00000000000E+00 0.  1.
         -2   -1    0    0    0  501 -0.00000000000E+00 -0.00000000000E+00 -0.17757284991E+04  0.17757284991E+04  0.00000000000E+00 0. -1.
    2000013    1    1    2    0    0  0.68192647268E+03  0.85287979241E+03 -0.67942747958E+03  0.15989213096E+04  0.95000000000E+03 0.  0.
   -2000013    1    1    2    0    0 -0.68192647268E+03 -0.85287979241E+03  0.18620693018E+03  0.14593151391E+04  0.95000000000E+03 0.  0.
<mgrwt>
<rscale>  0 0.30182021E+04</rscale>
<asrwt>0</asrwt>
<pdfrwt beam="1">  1        2 0.19730892E+00 0.30182021E+04</pdfrwt>
<pdfrwt beam="2">  1       -2 0.27318900E+00 0.30182021E+04</pdfrwt>
<totfact> 0.67040584E-01</totfact>
</mgrwt>
</event>
<event>
 4    1  0.2019612E-008  0.2409864E+04  0.7816531E-02  0.8435820E-01
          2   -1    0    0  501    0  0.00000000000E+00  0.00000000000E+00  0.31719137225E+04  0.31719137225E+04  0.00000000000E+00 0.  1.
         -2   -1    0    0    0  501 -0.00000000000E+00 -0.00000000000E+00 -0.45772417169E+03  0.45772417169E+03  0.00000000000E+00 0. -1.
    2000013    1    1    2    0    0 -0.34110830125E+02 -0.73004613950E+03  0.11712158484E+04  0.16758214338E+04  0.95000000000E+03 0.  0.
   -2000013    1    1    2    0    0  0.34110830125E+02  0.73004613950E+03  0.15429737024E+04  0.19538164604E+04  0.95000000000E+03 0.  0.
<mgrwt>
<rscale>  0 0.24098644E+04</rscale>
<asrwt>0</asrwt>
<pdfrwt beam="1">  1        2 0.48798671E+00 0.24098644E+04</pdfrwt>
<pdfrwt beam="2">  1       -2 0.70419105E-01 0.24098644E+04</pdfrwt>
<totfact> 0.22315950E+00</totfact>
</mgrwt>
</event>
<event>
 4    1  0.2019612E-008  0.2598958E+04  0.7816531E-02  0.8368555E-01
         -2   -1    0    0    0  501 -0.00000000000E+00  0.00000000000E+00  0.13953692185E+04  0.13953692185E+04  0.00000000000E+00 0. -1.
          2   -1    0    0  501    0  0.00000000000E+00 -0.00000000000E+00 -0.12101784631E+04  0.12101784631E+04  0.00000000000E+00 0.  1.
    2000013    1    1    2    0    0 -0.83894112835E+03 -0.26010917537E+03 -0.28818152137E+02  0.12941443064E+04  0.95000000000E+03 0.  0.
   -2000013    1    1    2    0    0  0.83894112835E+03  0.26010917537E+03  0.21400890755E+03  0.13114033752E+04  0.95000000000E+03 0.  0.
<mgrwt>
<rscale>  0 0.25989581E+04</rscale>
<asrwt>0</asrwt>
<pdfrwt beam="2">  1        2 0.18618130E+00 0.25989581E+04</pdfrwt>
<pdfrwt beam="1">  1       -2 0.21467219E+00 0.25989581E+04</pdfrwt>
<totfact> 0.17656569E+00</totfact>
</mgrwt>
</event>
<event>
 4    1  0.2019612E-008  0.2613102E+04  0.7816531E-02  0.8363764E-01
          2   -1    0    0  501    0  0.00000000000E+00  0.00000000000E+00  0.27379454204E+04  0.27379454204E+04  0.00000000000E+00 0.  1.
         -2   -1    0    0    0  501 -0.00000000000E+00 -0.00000000000E+00 -0.62348788119E+03  0.62348788119E+03  0.00000000000E+00 0. -1.
    2000013    1    1    2    0    0  0.31247654330E+03 -0.66678953865E+03  0.39837551557E+03  0.12662752190E+04  0.95000000000E+03 0.  0.
   -2000013    1    1    2    0    0 -0.31247654330E+03  0.66678953865E+03  0.17160820236E+04  0.20951580825E+04  0.95000000000E+03 0.  0.
<mgrwt>
<rscale>  0 0.26131022E+04</rscale>
<asrwt>0</asrwt>
<pdfrwt beam="1">  1        2 0.42122237E+00 0.26131022E+04</pdfrwt>
<pdfrwt beam="2">  1       -2 0.95921214E-01 0.26131022E+04</pdfrwt>
<totfact> 0.20287238E+00</totfact>
</mgrwt>
</event>
<event>
 4    1  0.2019612E-008  0.3464074E+04  0.7816531E-02  0.8122357E-01
         -2   -1    0    0    0  501 -0.00000000000E+00  0.00000000000E+00  0.14805016940E+04  0.14805016940E+04  0.00000000000E+00 0. -1.
          2   -1    0    0  501    0  0.00000000000E+00 -0.00000000000E+00 -0.20263081668E+04  0.20263081668E+04  0.00000000000E+00 0.  1.
    2000013    1    1    2    0    0  0.84875686853E+03  0.14889937717E+03  0.90545567255E+03  0.15700029367E+04  0.95000000000E+03 0.  0.
   -2000013    1    1    2    0    0 -0.84875686853E+03 -0.14889937717E+03 -0.14512621454E+04  0.19368069240E+04  0.95000000000E+03 0.  0.
<mgrwt>
<rscale>  0 0.34640743E+04</rscale>
<asrwt>0</asrwt>
<pdfrwt beam="2">  1        2 0.31173972E+00 0.34640743E+04</pdfrwt>
<pdfrwt beam="1">  1       -2 0.22776949E+00 0.34640743E+04</pdfrwt>
<totfact> 0.47007327E-01</totfact>
</mgrwt>
</event>
<event>
 4    1  0.2019612E-008  0.3127838E+04  0.7816531E-02  0.8208139E-01
          2   -1    0    0  501    0  0.00000000000E+00  0.00000000000E+00  0.26946458993E+04  0.26946458993E+04  0.00000000000E+00 0.  1.
         -2   -1    0    0    0  501 -0.00000000000E+00 -0.00000000000E+00 -0.90766761818E+03  0.90766761818E+03  0.00000000000E+00 0. -1.
    2000013    1    1    2    0    0  0.93427403271E+03  0.31023662521E+03  0.20760039688E+02  0.13682272147E+04  0.95000000000E+03 0.  0.
   -2000013    1    1    2    0    0 -0.93427403271E+03 -0.31023662521E+03  0.17662182414E+04  0.22340863027E+04  0.95000000000E+03 0.  0.
<mgrwt>
<rscale>  0 0.31278381E+04</rscale>
<asrwt>0</asrwt>
<pdfrwt beam="1">  1        2 0.41456090E+00 0.31278381E+04</pdfrwt>
<pdfrwt beam="2">  1       -2 0.13964117E+00 0.31278381E+04</pdfrwt>
<totfact> 0.81900535E-01</totfact>
</mgrwt>
</event>
<event>
 4    1  0.2019612E-008  0.2353871E+04  0.7816531E-02  0.8456978E-01
         -2   -1    0    0    0  501 -0.00000000000E+00  0.00000000000E+00  0.22247319868E+04  0.22247319868E+04  0.00000000000E+00 0. -1.
          2   -1    0    0  501    0  0.00000000000E+00 -0.00000000000E+00 -0.62262660097E+03  0.62262660097E+03  0.00000000000E+00 0.  1.
    2000013    1    1    2    0    0  0.35914537843E+03  0.42204812151E+03  0.13079048425E+04  0.17088666117E+04  0.95000000000E+03 0.  0.
   -2000013    1    1    2    0    0 -0.35914537843E+03 -0.42204812151E+03  0.29420054331E+03  0.11384919760E+04  0.95000000000E+03 0.  0.
<mgrwt>
<rscale>  0 0.23538711E+04</rscale>
<asrwt>0</asrwt>
<pdfrwt beam="2">  1        2 0.95788709E-01 0.23538711E+04</pdfrwt>
<pdfrwt beam="1">  1       -2 0.34226646E+00 0.23538711E+04</pdfrwt>
<totfact> 0.74531404E-01</totfact>
</mgrwt>
</event>
<event>
 4    1  0.2019612E-008  0.2726219E+04  0.7816531E-02  0.8326548E-01
         -1   -1    0    0    0  501 -0.00000000000E+00  0.00000000000E+00  0.90267376963E+03  0.90267376963E+03  0.00000000000E+00 0. -1.
          1   -1    0    0  501    0  0.00000000000E+00 -0.00000000000E+00 -0.20584046240E+04  0.20584046240E+04  0.00000000000E+00 0.  1.
    2000013    1    1    2    0    0  0.89673560260E+03  0.35034505357E+03 -0.76184325099E+03  0.15523471057E+04  0.95000000000E+03 0.  0.
   -2000013    1    1    2    0    0 -0.89673560260E+03 -0.35034505357E+03 -0.39388760341E+03  0.14087312880E+04  0.95000000000E+03 0.  0.
<mgrwt>
<rscale>  0 0.27262193E+04</rscale>
<asrwt>0</asrwt>
<pdfrwt beam="2">  1        1 0.31667763E+00 0.27262193E+04</pdfrwt>
<pdfrwt beam="1">  1       -1 0.13887289E+00 0.27262193E+04</pdfrwt>
<totfact> 0.10142862E+00</totfact>
</mgrwt>
</event>
<event>
 4    1  0.2019612E-008  0.2308639E+04  0.7816531E-02  0.8474523E-01
         -2   -1    0    0    0  501 -0.00000000000E+00  0.00000000000E+00  0.44636313407E+03  0.44636313407E+03  0.00000000000E+00 0. -1.
          2   -1    0    0  501    0  0.00000000000E+00 -0.00000000000E+00 -0.29851335299E+04  0.29851335299E+04  0.00000000000E+00 0.  1.
    2000013    1    1    2    0    0 -0.34244134722E+03  0.53095354122E+03 -0.10086303730E+04  0.15228305778E+04  0.95000000000E+03 0.  0.
   -2000013    1    1    2    0    0  0.34244134722E+03 -0.53095354122E+03 -0.15301400228E+04  0.19086660862E+04  0.95000000000E+03 0.  0.
<mgrwt>
<rscale>  0 0.23086390E+04</rscale>
<asrwt>0</asrwt>
<pdfrwt beam="2">  1        2 0.45925130E+00 0.23086390E+04</pdfrwt>
<pdfrwt beam="1">  1       -2 0.68671253E-01 0.23086390E+04</pdfrwt>
<totfact> 0.31261546E+00</totfact>
</mgrwt>
</event>
<event>
 4    1  0.2019612E-008  0.4657541E+04  0.7816531E-02  0.7883622E-01
         -2   -1    0    0    0  501 -0.00000000000E+00  0.00000000000E+00  0.24856568888E+04  0.24856568888E+04  0.00000000000E+00 0. -1.
          2   -1    0    0  501    0  0.00000000000E+00 -0.00000000000E+00 -0.21817858061E+04  0.21817858061E+04  0.00000000000E+00 0.  1.
    2000013    1    1    2    0    0  0.91977705240E+03  0.16359323128E+04 -0.84939177963E+03  0.22685305273E+04  0.95000000000E+03 0.  0.
   -2000013    1    1    2    0    0 -0.91977705240E+03 -0.16359323128E+04  0.11532628624E+04  0.23989121676E+04  0.95000000000E+03 0.  0.
<mgrwt>
<rscale>  0 0.46575405E+04</rscale>
<asrwt>0</asrwt>
<pdfrwt beam="2">  1        2 0.33565935E+00 0.46575405E+04</pdfrwt>
<pdfrwt beam="1">  1       -2 0.38240875E+00 0.46575405E+04</pdfrwt>
<totfact> 0.38214726E-02</totfact>
</mgrwt>
</event>
<event>
 4    1  0.2019612E-008  0.2581133E+04  0.7816531E-02  0.8374638E-01
         -1   -1    0    0    0  501 -0.00000000000E+00  0.00000000000E+00  0.10892530727E+04  0.10892530727E+04  0.00000000000E+00 0. -1.
          1   -1    0    0  501    0  0.00000000000E+00 -0.00000000000E+00 -0.15290860934E+04  0.15290860934E+04  0.00000000000E+00 0.  1.
    2000013    1    1    2    0    0 -0.62127723264E+03  0.59413474675E+03 -0.62501608389E+02  0.12827267629E+04  0.95000000000E+03 0.  0.
   -2000013    1    1    2    0    0  0.62127723264E+03 -0.59413474675E+03 -0.37733141225E+03  0.13356124033E+04  0.95000000000E+03 0.  0.
<mgrwt>
<rscale>  0 0.25811329E+04</rscale>
<asrwt>0</asrwt>
<pdfrwt beam="2">  1        1 0.23524401E+00 0.25811329E+04</pdfrwt>
<pdfrwt beam="1">  1       -1 0.16757740E+00 0.25811329E+04</pdfrwt>
<totfact> 0.14127134E+00</totfact>
</mgrwt>
</event>
<event>
 4    1  0.2019612E-008  0.2294207E+04  0.7816531E-02  0.8480209E-01
         -1   -1    0    0    0  501 -0.00000000000E+00  0.00000000000E+00  0.84694856045E+03  0.84694856045E+03  0.00000000000E+00 0. -1.
          1   -1    0    0  501    0  0.00000000000E+00 -0.00000000000E+00 -0.15536324565E+04  0.15536324565E+04  0.00000000000E+00 0.  1.
    2000013    1    1    2    0    0 -0.25891039818E+03  0.58750691325E+03 -0.38879207391E+03  0.12107263292E+04  0.95000000000E+03 0.  0.
   -2000013    1    1    2    0    0  0.25891039818E+03 -0.58750691325E+03 -0.31789182212E+03  0.11898546878E+04  0.95000000000E+03 0.  0.
<mgrwt>
<rscale>  0 0.22942073E+04</rscale>
<asrwt>0</asrwt>
<pdfrwt beam="2">  1        1 0.23902038E+00 0.22942073E+04</pdfrwt>
<pdfrwt beam="1">  1       -1 0.13029978E+00 0.22942073E+04</pdfrwt>
<totfact> 0.27384480E+00</totfact>
</mgrwt>
</event>
<event>
 4    1  0.2019612E-008  0.2461277E+04  0.7816531E-02  0.8416912E-01
         -2   -1    0    0    0  501 -0.00000000000E+00  0.00000000000E+00  0.70719537422E+03  0.70719537422E+03  0.00000000000E+00 0. -1.
          2   -1    0    0  501    0  0.00000000000E+00 -0.00000000000E+00 -0.21415172895E+04  0.21415172895E+04  0.00000000000E+00 0.  1.
    2000013    1    1    2    0    0 -0.68511218156E+02  0.75103515080E+03 -0.95779014245E+03  0.15455127116E+04  0.95000000000E+03 0.  0.
   -2000013    1    1    2    0    0  0.68511218156E+02 -0.75103515080E+03 -0.47653177288E+03  0.13031999522E+04  0.95000000000E+03 0.  0.
<mgrwt>
<rscale>  0 0.24612770E+04</rscale>
<asrwt>0</asrwt>
<pdfrwt beam="2">  1        2 0.32946420E+00 0.24612770E+04</pdfrwt>
<pdfrwt beam="1">  1       -2 0.10879929E+00 0.24612770E+04</pdfrwt>
<totfact> 0.33619504E+00</totfact>
</mgrwt>
</event>
<event>
 4    1  0.2019612E-008  0.2304008E+04  0.7816531E-02  0.8476343E-01
          2   -1    0    0  501    0  0.00000000000E+00  0.00000000000E+00  0.16286044208E+04  0.16286044208E+04  0.00000000000E+00 0.  1.
         -2   -1    0    0    0  501 -0.00000000000E+00 -0.00000000000E+00 -0.81487752140E+03  0.81487752140E+03  0.00000000000E+00 0. -1.
    2000013    1    1    2    0    0 -0.25816292220E+03  0.59796262931E+03  0.42822562577E+03  0.12288549902E+04  0.95000000000E+03 0.  0.
   -2000013    1    1    2    0    0  0.25816292220E+03 -0.59796262931E+03  0.38550127362E+03  0.12146269520E+04  0.95000000000E+03 0.  0.
<mgrwt>
<rscale>  0 0.23040079E+04</rscale>
<asrwt>0</asrwt>
<pdfrwt beam="1">  1        2 0.25055452E+00 0.23040079E+04</pdfrwt>
<pdfrwt beam="2">  1       -2 0.12536577E+00 0.23040079E+04</pdfrwt>
<totfact> 0.46374052E+00</totfact>
</mgrwt>
</event>
<event>
 4    1  0.2019612E-008  0.3947053E+04  0.7816531E-02  0.8015314E-01
          1   -1    0    0  501    0  0.00000000000E+00  0.00000000000E+00  0.15063205908E+04  0.15063205908E+04  0.00000000000E+00 0.  1.
         -1   -1    0    0    0  501 -0.00000000000E+00 -0.00000000000E+00 -0.25856422976E+04  0.25856422976E+04  0.00000000000E+00 0. -1.
    2000013    1    1    2    0    0 -0.75430555084E+03 -0.15543545623E+04 -0.45101569957E+03  0.20225998444E+04  0.95000000000E+03 0.  0.
   -2000013    1    1    2    0    0  0.75430555084E+03  0.15543545623E+04 -0.62830600721E+03  0.20693630440E+04  0.95000000000E+03 0.  0.
<mgrwt>
<rscale>  0 0.39470527E+04</rscale>
<asrwt>0</asrwt>
<pdfrwt beam="1">  1        1 0.23174163E+00 0.39470527E+04</pdfrwt>
<pdfrwt beam="2">  1       -1 0.39779112E+00 0.39470527E+04</pdfrwt>
<totfact> 0.37676195E-02</totfact>
</mgrwt>
</event>
<event>
 4    1  0.2019612E-008  0.2361806E+04  0.7816531E-02  0.8453943E-01
         -2   -1    0    0    0  501 -0.00000000000E+00  0.00000000000E+00  0.11157541242E+04  0.11157541242E+04  0.00000000000E+00 0. -1.
          2   -1    0    0  501    0  0.00000000000E+00 -0.00000000000E+00 -0.12498563341E+04  0.12498563341E+04  0.00000000000E+00 0.  1.
    2000013    1    1    2    0    0  0.42460783622E+03 -0.46560917190E+03 -0.37568478770E+03  0.12003011186E+04  0.95000000000E+03 0.  0.
   -2000013    1    1    2    0    0 -0.42460783622E+03  0.46560917190E+03  0.24158257781E+03  0.11653093398E+04  0.95000000000E+03 0.  0.
<mgrwt>
<rscale>  0 0.23618064E+04</rscale>
<asrwt>0</asrwt>
<pdfrwt beam="2">  1        2 0.19228559E+00 0.23618064E+04</pdfrwt>
<pdfrwt beam="1">  1       -2 0.17165448E+00 0.23618064E+04</pdfrwt>
<totfact> 0.33106543E+00</totfact>
</mgrwt>
</event>
<event>
 4    1  0.2019612E-008  0.3037076E+04  0.7816531E-02  0.8233222E-01
         -2   -1    0    0    0  501 -0.00000000000E+00  0.00000000000E+00  0.87423970641E+03  0.87423970641E+03  0.00000000000E+00 0. -1.
          2   -1    0    0  501    0  0.00000000000E+00 -0.00000000000E+00 -0.26376722308E+04  0.26376722308E+04  0.00000000000E+00 0.  1.
    2000013    1    1    2    0    0  0.96313042357E+03 -0.21865781987E+03 -0.12519142128E+03  0.13760829724E+04  0.95000000000E+03 0.  0.
   -2000013    1    1    2    0    0 -0.96313042357E+03  0.21865781987E+03 -0.16382411031E+04  0.21358289648E+04  0.95000000000E+03 0.  0.
<mgrwt>
<rscale>  0 0.30370761E+04</rscale>
<asrwt>0</asrwt>
<pdfrwt beam="2">  1        2 0.40579572E+00 0.30370761E+04</pdfrwt>
<pdfrwt beam="1">  1       -2 0.13449842E+00 0.30370761E+04</pdfrwt>
<totfact> 0.98255134E-01</totfact>
</mgrwt>
</event>
<event>
 4    1  0.2019612E-008  0.2158401E+04  0.7816531E-02  0.8535945E-01
         -2   -1    0    0    0  501 -0.00000000000E+00  0.00000000000E+00  0.93852830758E+03  0.93852830758E+03  0.00000000000E+00 0. -1.
          2   -1    0    0  501    0  0.00000000000E+00 -0.00000000000E+00 -0.12409579860E+04  0.12409579860E+04  0.00000000000E+00 0.  1.
    2000013    1    1    2    0    0 -0.38617055115E+03 -0.33470939623E+03 -0.18340293285E+03  0.10942096281E+04  0.95000000000E+03 0.  0.
   -2000013    1    1    2    0    0  0.38617055115E+03  0.33470939623E+03 -0.11902674560E+03  0.10852766655E+04  0.95000000000E+03 0.  0.
<mgrwt>
<rscale>  0 0.21584014E+04</rscale>
<asrwt>0</asrwt>
<pdfrwt beam="2">  1        2 0.19091661E+00 0.21584014E+04</pdfrwt>
<pdfrwt beam="1">  1       -2 0.14438897E+00 0.21584014E+04</pdfrwt>
<totfact> 0.54422717E+00</totfact>
</mgrwt>
</event>
<event>
 4    1  0.2019612E-008  0.2412631E+04  0.7816531E-02  0.8434790E-01
         -2   -1    0    0    0  501 -0.00000000000E+00  0.00000000000E+00  0.17676884861E+04  0.17676884861E+04  0.00000000000E+00 0. -1.
          2   -1    0    0  501    0  0.00000000000E+00 -0.00000000000E+00 -0.82322065154E+03  0.82322065154E+03  0.00000000000E+00 0.  1.
    2000013    1    1    2    0    0 -0.67967155655E+03  0.72157251298E+02  0.78631346382E+03  0.14099464377E+04  0.95000000000E+03 0.  0.
   -2000013    1    1    2    0    0  0.67967155655E+03 -0.72157251298E+02  0.15815437073E+03  0.11809627000E+04  0.95000000000E+03 0.  0.
<mgrwt>
<rscale>  0 0.24126315E+04</rscale>
<asrwt>0</asrwt>
<pdfrwt beam="2">  1        2 0.12664933E+00 0.24126315E+04</pdfrwt>
<pdfrwt beam="1">  1       -2 0.27195207E+00 0.24126315E+04</pdfrwt>
<totfact> 0.14041625E+00</totfact>
</mgrwt>
</event>
<event>
 4    1  0.2019612E-008  0.2404832E+04  0.7816531E-02  0.8437697E-01
          2   -1    0    0  501    0  0.00000000000E+00  0.00000000000E+00  0.24683765911E+04  0.24683765911E+04  0.00000000000E+00 0.  1.
         -2   -1    0    0    0  501 -0.00000000000E+00 -0.00000000000E+00 -0.58573062275E+03  0.58573062275E+03  0.00000000000E+00 0. -1.
    2000013    1    1    2    0    0 -0.33674547309E+03 -0.64201903603E+03  0.77227712944E+03  0.14228485235E+04  0.95000000000E+03 0.  0.
   -2000013    1    1    2    0    0  0.33674547309E+03  0.64201903603E+03  0.11103688389E+04  0.16312586903E+04  0.95000000000E+03 0.  0.
<mgrwt>
<rscale>  0 0.24048316E+04</rscale>
<asrwt>0</asrwt>
<pdfrwt beam="1">  1        2 0.37975024E+00 0.24048316E+04</pdfrwt>
<pdfrwt beam="2">  1       -2 0.90112405E-01 0.24048316E+04</pdfrwt>
<totfact> 0.34388906E+00</totfact>
</mgrwt>
</event>
<event>
 4    1  0.2019612E-008  0.2346794E+04  0.7816531E-02  0.8459696E-01
         -2   -1    0    0    0  501 -0.00000000000E+00  0.00000000000E+00  0.66723093045E+03  0.66723093045E+03  0.00000000000E+00 0. -1.
          2   -1    0    0  501    0  0.00000000000E+00 -0.00000000000E+00 -0.20635438255E+04  0.20635438255E+04  0.00000000000E+00 0.  1.
    2000013    1    1    2    0    0 -0.68395364793E+03  0.80780418280E+02 -0.69059755765E+03  0.13615223300E+04  0.95000000000E+03 0.  0.
   -2000013    1    1    2    0    0  0.68395364793E+03 -0.80780418280E+02 -0.70571533741E+03  0.13692524259E+04  0.95000000000E+03 0.  0.
<mgrwt>
<rscale>  0 0.23467938E+04</rscale>
<asrwt>0</asrwt>
<pdfrwt beam="2">  1        2 0.31746828E+00 0.23467938E+04</pdfrwt>
<pdfrwt beam="1">  1       -2 0.10265091E+00 0.23467938E+04</pdfrwt>
<totfact> 0.43157812E+00</totfact>
</mgrwt>
</event>
<event>
 4    1  0.2019612E-008  0.3515134E+04  0.7816531E-02  0.8110213E-01
          1   -1    0    0  501    0  0.00000000000E+00  0.00000000000E+00  0.16841640013E+04  0.16841640013E+04  0.00000000000E+00 0.  1.
         -1   -1    0    0    0  501 -0.00000000000E+00 -0.00000000000E+00 -0.18341694661E+04  0.18341694661E+04  0.00000000000E+00 0. -1.
    2000013    1    1    2    0    0 -0.83090412927E+03  0.11879301091E+04  0.21674595233E+03  0.17467279193E+04  0.95000000000E+03 0.  0.
   -2000013    1    1    2    0    0  0.83090412927E+03 -0.11879301091E+04 -0.36675141713E+03  0.17716055481E+04  0.95000000000E+03 0.  0.
<mgrwt>
<rscale>  0 0.35151342E+04</rscale>
<asrwt>0</asrwt>
<pdfrwt beam="1">  1        1 0.25910215E+00 0.35151342E+04</pdfrwt>
<pdfrwt beam="2">  1       -1 0.28217992E+00 0.35151342E+04</pdfrwt>
<totfact> 0.17152381E-01</totfact>
</mgrwt>
</event>
<event>
 4    1  0.2019612E-008  0.3141088E+04  0.7816531E-02  0.8204551E-01
          2   -1    0    0  501    0  0.00000000000E+00  0.00000000000E+00  0.15311653668E+04  0.15311653668E+04  0.00000000000E+00 0.  1.
         -2   -1    0    0    0  501 -0.00000000000E+00 -0.00000000000E+00 -0.16109356878E+04  0.16109356878E+04  0.00000000000E+00 0. -1.
    2000013    1    1    2    0    0 -0.12171281796E+04 -0.12686904759E+03 -0.29806171559E+03  0.15776050035E+04  0.95000000000E+03 0.  0.
   -2000013    1    1    2    0    0  0.12171281796E+04  0.12686904759E+03  0.21829139461E+03  0.15644960511E+04  0.95000000000E+03 0.  0.
<mgrwt>
<rscale>  0 0.31410883E+04</rscale>
<asrwt>0</asrwt>
<pdfrwt beam="1">  1        2 0.23556390E+00 0.31410883E+04</pdfrwt>
<pdfrwt beam="2">  1       -2 0.24783626E+00 0.31410883E+04</pdfrwt>
<totfact> 0.68351853E-01</totfact>
</mgrwt>
</event>
<event>
 4    1  0.2019612E-008  0.2417422E+04  0.7816531E-02  0.8433010E-01
          2   -1    0    0  501    0  0.00000000000E+00  0.00000000000E+00  0.99632367175E+03  0.99632367175E+03  0.00000000000E+00 0.  1.
         -2   -1    0    0    0  501 -0.00000000000E+00 -0.00000000000E+00 -0.14663734187E+04  0.14663734187E+04  0.00000000000E+00 0. -1.
    2000013    1    1    2    0    0  0.65638787154E+03  0.33585717769E+03 -0.11093442041E+03  0.12076636648E+04  0.95000000000E+03 0.  0.
   -2000013    1    1    2    0    0 -0.65638787154E+03 -0.33585717769E+03 -0.35911532656E+03  0.12550334256E+04  0.95000000000E+03 0.  0.
<mgrwt>
<rscale>  0 0.24174222E+04</rscale>
<asrwt>0</asrwt>
<pdfrwt beam="1">  1        2 0.15328057E+00 0.24174222E+04</pdfrwt>
<pdfrwt beam="2">  1       -2 0.22559591E+00 0.24174222E+04</pdfrwt>
<totfact> 0.20716873E+00</totfact>
</mgrwt>
</event>
<event>
 4    1  0.2019612E-008  0.2270175E+04  0.7816531E-02  0.8489774E-01
         -2   -1    0    0    0  501 -0.00000000000E+00  0.00000000000E+00  0.92576024537E+03  0.92576024537E+03  0.00000000000E+00 0. -1.
          2   -1    0    0  501    0  0.00000000000E+00 -0.00000000000E+00 -0.13917469334E+04  0.13917469334E+04  0.00000000000E+00 0.  1.
    2000013    1    1    2    0    0  0.40552977651E+03  0.42630304063E+02 -0.71143557923E+03  0.12549551091E+04  0.95000000000E+03 0.  0.
   -2000013    1    1    2    0    0 -0.40552977651E+03 -0.42630304063E+02  0.24544889125E+03  0.10625520696E+04  0.95000000000E+03 0.  0.
<mgrwt>
<rscale>  0 0.22701753E+04</rscale>
<asrwt>0</asrwt>
<pdfrwt beam="2">  1        2 0.21411491E+00 0.22701753E+04</pdfrwt>
<pdfrwt beam="1">  1       -2 0.14242465E+00 0.22701753E+04</pdfrwt>
<totfact> 0.45668415E+00</totfact>
</mgrwt>
</event>
<event>
 4    1  0.2019612E-008  0.2005867E+04  0.7816531E-02  0.8603883E-01
         -2   -1    0    0    0  501 -0.00000000000E+00  0.00000000000E+00  0.23600581278E+03  0.23600581278E+03  0.00000000000E+00 0. -1.
          2   -1    0    0  501    0  0.00000000000E+00 -0.00000000000E+00 -0.42620784569E+04  0.42620784569E+04  0.00000000000E+00 0.  1.
    2000013    1    1    2    0    0  0.25583831346E+03  0.19132162297E+03 -0.20944499512E+04  0.23219125316E+04  0.95000000000E+03 0.  0.
   -2000013    1    1    2    0    0 -0.25583831346E+03 -0.19132162297E+03 -0.19316226928E+04  0.21761717381E+04  0.95000000000E+03 0.  0.
<mgrwt>
<rscale>  0 0.20058667E+04</rscale>
<asrwt>0</asrwt>
<pdfrwt beam="2">  1        2 0.65570434E+00 0.20058667E+04</pdfrwt>
<pdfrwt beam="1">  1       -2 0.36308589E-01 0.20058667E+04</pdfrwt>
<totfact> 0.13780871E+00</totfact>
</mgrwt>
</event>
<event>
 4    1  0.2019612E-008  0.2549553E+04  0.7816531E-02  0.8385542E-01
          2   -1    0    0  501    0  0.00000000000E+00  0.00000000000E+00  0.91421171885E+03  0.91421171885E+03  0.00000000000E+00 0.  1.
         -2   -1    0    0    0  501 -0.00000000000E+00 -0.00000000000E+00 -0.17775485383E+04  0.17775485383E+04  0.00000000000E+00 0. -1.
    2000013    1    1    2    0    0 -0.69881174260E+03  0.48333854055E+03 -0.40577047053E+03  0.13375738003E+04  0.95000000000E+03 0.  0.
   -2000013    1    1    2    0    0  0.69881174260E+03 -0.48333854055E+03 -0.45756634892E+03  0.13541864569E+04  0.95000000000E+03 0.  0.
<mgrwt>
<rscale>  0 0.25495535E+04</rscale>
<asrwt>0</asrwt>
<pdfrwt beam="1">  1        2 0.14064796E+00 0.25495535E+04</pdfrwt>
<pdfrwt beam="2">  1       -2 0.27346900E+00 0.25495535E+04</pdfrwt>
<totfact> 0.11759261E+00</totfact>
</mgrwt>
</event>
<event>
 4    1  0.2019612E-008  0.2235741E+04  0.7816531E-02  0.8503698E-01
          2   -1    0    0  501    0  0.00000000000E+00  0.00000000000E+00  0.72389590506E+03  0.72389590506E+03  0.00000000000E+00 0.  1.
         -2   -1    0    0    0  501 -0.00000000000E+00 -0.00000000000E+00 -0.17262619363E+04  0.17262619363E+04  0.00000000000E+00 0. -1.
    2000013    1    1    2    0    0 -0.13890898537E+03  0.25101686105E+03 -0.10651520340E+04  0.14558001326E+04  0.95000000000E+03 0.  0.
   -2000013    1    1    2    0    0  0.13890898537E+03 -0.25101686105E+03  0.62786002720E+02  0.99435770872E+03  0.95000000000E+03 0.  0.
<mgrwt>
<rscale>  0 0.22357405E+04</rscale>
<asrwt>0</asrwt>
<pdfrwt beam="1">  1        2 0.11136860E+00 0.22357405E+04</pdfrwt>
<pdfrwt beam="2">  1       -2 0.26557876E+00 0.22357405E+04</pdfrwt>
<totfact> 0.18452164E+00</totfact>
</mgrwt>
</event>
<event>
 4    1  0.2019612E-008  0.2265028E+04  0.7816531E-02  0.8491839E-01
          2   -1    0    0  501    0  0.00000000000E+00  0.00000000000E+00  0.17750405340E+04  0.17750405340E+04  0.00000000000E+00 0.  1.
         -2   -1    0    0    0  501 -0.00000000000E+00 -0.00000000000E+00 -0.72256824379E+03  0.72256824379E+03  0.00000000000E+00 0. -1.
    2000013    1    1    2    0    0 -0.45820201477E+03 -0.40482997109E+03  0.61342158938E+03  0.12855436353E+04  0.95000000000E+03 0.  0.
   -2000013    1    1    2    0    0  0.45820201477E+03  0.40482997109E+03  0.43905070084E+03  0.12120651425E+04  0.95000000000E+03 0.  0.
<mgrwt>
<rscale>  0 0.22650280E+04</rscale>
<asrwt>0</asrwt>
<pdfrwt beam="1">  1        2 0.27308316E+00 0.22650280E+04</pdfrwt>
<pdfrwt beam="2">  1       -2 0.11116435E+00 0.22650280E+04</pdfrwt>
<totfact> 0.51877397E+00</totfact>
</mgrwt>
</event>
<event>
 4    1  0.2019612E-008  0.2424395E+04  0.7816531E-02  0.8430427E-01
          2   -1    0    0  501    0  0.00000000000E+00  0.00000000000E+00  0.27183848261E+04  0.27183848261E+04  0.00000000000E+00 0.  1.
         -2   -1    0    0    0  501 -0.00000000000E+00 -0.00000000000E+00 -0.54054976626E+03  0.54054976626E+03  0.00000000000E+00 0. -1.
    2000013    1    1    2    0    0  0.52190442593E+03  0.10805328708E+03  0.37399323440E+03  0.11517077242E+04  0.95000000000E+03 0.  0.
   -2000013    1    1    2    0    0 -0.52190442593E+03 -0.10805328708E+03  0.18038418255E+04  0.21072268682E+04  0.95000000000E+03 0.  0.
<mgrwt>
<rscale>  0 0.24243946E+04</rscale>
<asrwt>0</asrwt>
<pdfrwt beam="1">  1        2 0.41821304E+00 0.24243946E+04</pdfrwt>
<pdfrwt beam="2">  1       -2 0.83161505E-01 0.24243946E+04</pdfrwt>
<totfact> 0.29425673E+00</totfact>
</mgrwt>
</event>
<event>
 4    1  0.2019612E-008  0.2042012E+04  0.7816531E-02  0.8587227E-01
         -2   -1    0    0    0  501 -0.00000000000E+00  0.00000000000E+00  0.27117836511E+04  0.27117836511E+04  0.00000000000E+00 0. -1.
          2   -1    0    0  501    0  0.00000000000E+00 -0.00000000000E+00 -0.38441590108E+03  0.38441590108E+03  0.00000000000E+00 0.  1.
    2000013    1    1    2    0    0 -0.10206226532E+03  0.42041772534E+02  0.62170454775E+03  0.11407018722E+04  0.95000000000E+03 0.  0.
   -2000013    1    1    2    0    0  0.10206226532E+03 -0.42041772534E+02  0.17056632023E+04  0.19554976799E+04  0.95000000000E+03 0.  0.
<mgrwt>
<rscale>  0 0.20420115E+04</rscale>
<asrwt>0</asrwt>
<pdfrwt beam="2">  1        2 0.59140909E-01 0.20420115E+04</pdfrwt>
<pdfrwt beam="1">  1       -2 0.41719747E+00 0.20420115E+04</pdfrwt>
<totfact> 0.44166106E-01</totfact>
</mgrwt>
</event>
<event>
 4    1  0.2019612E-008  0.2141884E+04  0.7816531E-02  0.8543014E-01
          2   -1    0    0  501    0  0.00000000000E+00  0.00000000000E+00  0.88978779488E+03  0.88978779488E+03  0.00000000000E+00 0.  1.
         -2   -1    0    0    0  501 -0.00000000000E+00 -0.00000000000E+00 -0.12889782701E+04  0.12889782701E+04  0.00000000000E+00 0. -1.
    2000013    1    1    2    0    0  0.77406779287E+02 -0.48824333091E+03 -0.19286520310E+03  0.10881499650E+04  0.95000000000E+03 0.  0.
   -2000013    1    1    2    0    0 -0.77406779287E+02  0.48824333091E+03 -0.20632527209E+03  0.10906161000E+04  0.95000000000E+03 0.  0.
<mgrwt>
<rscale>  0 0.21418843E+04</rscale>
<asrwt>0</asrwt>
<pdfrwt beam="1">  1        2 0.13689043E+00 0.21418843E+04</pdfrwt>
<pdfrwt beam="2">  1       -2 0.19830435E+00 0.21418843E+04</pdfrwt>
<totfact> 0.37326591E+00</totfact>
</mgrwt>
</event>
<event>
 4    1  0.2019612E-008  0.2380449E+04  0.7816531E-02  0.8446860E-01
         -2   -1    0    0    0  501 -0.00000000000E+00  0.00000000000E+00  0.85441078829E+03  0.85441078829E+03  0.00000000000E+00 0. -1.
          2   -1    0    0  501    0  0.00000000000E+00 -0.00000000000E+00 -0.16580243805E+04  0.16580243805E+04  0.00000000000E+00 0.  1.
    2000013    1    1    2    0    0  0.17653233722E+03  0.69489768016E+03 -0.39193592045E+03  0.12530603408E+04  0.95000000000E+03 0.  0.
   -2000013    1    1    2    0    0 -0.17653233722E+03 -0.69489768016E+03 -0.41167767178E+03  0.12593748280E+04  0.95000000000E+03 0.  0.
<mgrwt>
<rscale>  0 0.23804486E+04</rscale>
<asrwt>0</asrwt>
<pdfrwt beam="2">  1        2 0.25508067E+00 0.23804486E+04</pdfrwt>
<pdfrwt beam="1">  1       -2 0.13144781E+00 0.23804486E+04</pdfrwt>
<totfact> 0.39367582E+00</totfact>
</mgrwt>
</event>
<event>
 4    1  0.2019612E-008  0.2190135E+04  0.7816531E-02  0.8522545E-01
          2   -1    0    0  501    0  0.00000000000E+00  0.00000000000E+00  0.13810530643E+04  0.13810530643E+04  0.00000000000E+00 0.  1.
         -2   -1    0    0    0  501 -0.00000000000E+00 -0.00000000000E+00 -0.86830346422E+03  0.86830346422E+03  0.00000000000E+00 0. -1.
    2000013    1    1    2    0    0 -0.32406597884E+03  0.30905688380E+03 -0.62070940911E+02  0.10520873147E+04  0.95000000000E+03 0.  0.
   -2000013    1    1    2    0    0  0.32406597884E+03 -0.30905688380E+03  0.57482054104E+03  0.11972692139E+04  0.95000000000E+03 0.  0.
<mgrwt>
<rscale>  0 0.21901353E+04</rscale>
<asrwt>0</asrwt>
<pdfrwt beam="1">  1        2 0.21246970E+00 0.21901353E+04</pdfrwt>
<pdfrwt beam="2">  1       -2 0.13358515E+00 0.21901353E+04</pdfrwt>
<totfact> 0.55018343E+00</totfact>
</mgrwt>
</event>
<event>
 4    1  0.2019612E-008  0.2347671E+04  0.7816531E-02  0.8459359E-01
          1   -1    0    0  501    0  0.00000000000E+00  0.00000000000E+00  0.46990592645E+04  0.46990592645E+04  0.00000000000E+00 0. -1.
         -1   -1    0    0    0  501 -0.00000000000E+00 -0.00000000000E+00 -0.29322684031E+03  0.29322684031E+03  0.00000000000E+00 0.  1.
    2000013    1    1    2    0    0  0.78326069009E+02  0.63830919436E+03  0.16742092156E+04  0.20295443080E+04  0.95000000000E+03 0.  0.
   -2000013    1    1    2    0    0 -0.78326069009E+02 -0.63830919436E+03  0.27316232086E+04  0.29627417968E+04  0.95000000000E+03 0.  0.
<mgrwt>
<rscale>  0 0.23476714E+04</rscale>
<asrwt>0</asrwt>
<pdfrwt beam="1">  1        1 0.72293214E+00 0.23476714E+04</pdfrwt>
<pdfrwt beam="2">  1       -1 0.45111825E-01 0.23476714E+04</pdfrwt>
<totfact> 0.87412320E-02</totfact>
</mgrwt>
</event>
<event>
 4    1  0.2019612E-008  0.3103024E+04  0.7816531E-02  0.8214908E-01
         -2   -1    0    0    0  501 -0.00000000000E+00  0.00000000000E+00  0.87299445541E+03  0.87299445541E+03  0.00000000000E+00 0. -1.
          2   -1    0    0  501    0  0.00000000000E+00 -0.00000000000E+00 -0.27573944531E+04  0.27573944531E+04  0.00000000000E+00 0.  1.
    2000013    1    1    2    0    0  0.41866602477E+03  0.58097419231E+03  0.22299081798E+03  0.12103871931E+04  0.95000000000E+03 0.  0.
   -2000013    1    1    2    0    0 -0.41866602477E+03 -0.58097419231E+03 -0.21073908157E+04  0.24200017154E+04  0.95000000000E+03 0.  0.
<mgrwt>
<rscale>  0 0.31030244E+04</rscale>
<asrwt>0</asrwt>
<pdfrwt beam="2">  1        2 0.42421453E+00 0.31030244E+04</pdfrwt>
<pdfrwt beam="1">  1       -2 0.13430684E+00 0.31030244E+04</pdfrwt>
<totfact> 0.83210528E-01</totfact>
</mgrwt>
</event>
<event>
 4    1  0.2019612E-008  0.2869433E+04  0.7816531E-02  0.8282031E-01
          1   -1    0    0  501    0  0.00000000000E+00  0.00000000000E+00  0.18792685240E+04  0.18792685240E+04  0.00000000000E+00 0.  1.
         -1   -1    0    0    0  501 -0.00000000000E+00 -0.00000000000E+00 -0.10953258965E+04  0.10953258965E+04  0.00000000000E+00 0. -1.
    2000013    1    1    2    0    0 -0.86638669384E+03  0.31627397961E+03  0.96471988851E+03  0.16382428381E+04  0.95000000000E+03 0.  0.
   -2000013    1    1    2    0    0  0.86638669384E+03 -0.31627397961E+03 -0.18077726096E+03  0.13363515823E+04  0.95000000000E+03 0.  0.
<mgrwt>
<rscale>  0 0.28694330E+04</rscale>
<asrwt>0</asrwt>
<pdfrwt beam="1">  1        1 0.28911823E+00 0.28694330E+04</pdfrwt>
<pdfrwt beam="2">  1       -1 0.16851168E+00 0.28694330E+04</pdfrwt>
<totfact> 0.78160897E-01</totfact>
</mgrwt>
</event>
<event>
 4    1  0.2019612E-008  0.2218418E+04  0.7816531E-02  0.8510801E-01
          2   -1    0    0  501    0  0.00000000000E+00  0.00000000000E+00  0.13397057495E+04  0.13397057495E+04  0.00000000000E+00 0. -1.
         -2   -1    0    0    0  501 -0.00000000000E+00 -0.00000000000E+00 -0.91836925790E+03  0.91836925790E+03  0.00000000000E+00 0.  1.
    2000013    1    1    2    0    0 -0.34308302242E+03 -0.88867725443E+02  0.66841971151E+03  0.12144498111E+04  0.95000000000E+03 0.  0.
   -2000013    1    1    2    0    0  0.34308302242E+03  0.88867725443E+02 -0.24708321988E+03  0.10436251963E+04  0.95000000000E+03 0.  0.
<mgrwt>
<rscale>  0 0.22184180E+04</rscale>
<asrwt>0</asrwt>
<pdfrwt beam="1">  1        2 0.20610858E+00 0.22184180E+04</pdfrwt>
<pdfrwt beam="2">  1       -2 0.14128758E+00 0.22184180E+04</pdfrwt>
<totfact> 0.50180321E+00</totfact>
</mgrwt>
</event>
<event>
 4    1  0.2019612E-008  0.2272692E+04  0.7816531E-02  0.8488767E-01
         -2   -1    0    0    0  501 -0.00000000000E+00  0.00000000000E+00  0.37837867291E+03  0.37837867291E+03  0.00000000000E+00 0. -1.
          2   -1    0    0  501    0  0.00000000000E+00 -0.00000000000E+00 -0.34126718539E+04  0.34126718539E+04  0.00000000000E+00 0.  1.
    2000013    1    1    2    0    0 -0.49930013639E+03  0.59044542047E+02 -0.90199657796E+03  0.14031695232E+04  0.95000000000E+03 0.  0.
   -2000013    1    1    2    0    0  0.49930013639E+03 -0.59044542047E+02 -0.21322966030E+04  0.23878810036E+04  0.95000000000E+03 0.  0.
<mgrwt>
<rscale>  0 0.22726920E+04</rscale>
<asrwt>0</asrwt>
<pdfrwt beam="2">  1        2 0.52502644E+00 0.22726920E+04</pdfrwt>
<pdfrwt beam="1">  1       -2 0.58212103E-01 0.22726920E+04</pdfrwt>
<totfact> 0.23500785E+00</totfact>
</mgrwt>
</event>
<event>
 4    1  0.2019612E-008  0.2490813E+04  0.7816531E-02  0.8406266E-01
         -2   -1    0    0    0  501 -0.00000000000E+00  0.00000000000E+00  0.12863809615E+04  0.12863809615E+04  0.00000000000E+00 0.  1.
          2   -1    0    0  501    0  0.00000000000E+00 -0.00000000000E+00 -0.12057372234E+04  0.12057372234E+04  0.00000000000E+00 0. -1.
    2000013    1    1    2    0    0 -0.78176406951E+03 -0.16714286346E+03  0.13756132968E+03  0.12492057143E+04  0.95000000000E+03 0.  0.
   -2000013    1    1    2    0    0  0.78176406951E+03  0.16714286346E+03 -0.56917591584E+02  0.12429124705E+04  0.95000000000E+03 0.  0.
<mgrwt>
<rscale>  0 0.24908130E+04</rscale>
<asrwt>0</asrwt>
<pdfrwt beam="2">  1        2 0.18549803E+00 0.24908130E+04</pdfrwt>
<pdfrwt beam="1">  1       -2 0.19790476E+00 0.24908130E+04</pdfrwt>
<totfact> 0.23027526E+00</totfact>
</mgrwt>
</event>
<event>
 4    1  0.2019612E-008  0.2295792E+04  0.7816531E-02  0.8479582E-01
          2   -1    0    0  501    0  0.00000000000E+00  0.00000000000E+00  0.12912912645E+04  0.12912912645E+04  0.00000000000E+00 0.  1.
         -2   -1    0    0    0  501 -0.00000000000E+00 -0.00000000000E+00 -0.10204244448E+04  0.10204244448E+04  0.00000000000E+00 0. -1.
    2000013    1    1    2    0    0 -0.27864959600E+03 -0.46909327736E+03 -0.20968439082E+03  0.11154199406E+04  0.95000000000E+03 0.  0.
   -2000013    1    1    2    0    0  0.27864959600E+03  0.46909327736E+03  0.48055121050E+03  0.11962957687E+04  0.95000000000E+03 0.  0.
<mgrwt>
<rscale>  0 0.22957920E+04</rscale>
<asrwt>0</asrwt>
<pdfrwt beam="1">  1        2 0.19866020E+00 0.22957920E+04</pdfrwt>
<pdfrwt beam="2">  1       -2 0.15698837E+00 0.22957920E+04</pdfrwt>
<totfact> 0.40239487E+00</totfact>
</mgrwt>
</event>
<event>
 4    1  0.2019612E-008  0.2489992E+04  0.7816531E-02  0.8406560E-01
          2   -1    0    0  501    0  0.00000000000E+00  0.00000000000E+00  0.19648315207E+04  0.19648315207E+04  0.00000000000E+00 0.  1.
         -2   -1    0    0    0  501 -0.00000000000E+00 -0.00000000000E+00 -0.78887955000E+03  0.78887955000E+03  0.00000000000E+00 0. -1.
    2000013    1    1    2    0    0  0.56114707757E+03 -0.53359046274E+03  0.34590870691E+03  0.12734824923E+04  0.95000000000E+03 0.  0.
   -2000013    1    1    2    0    0 -0.56114707757E+03  0.53359046274E+03  0.83004326377E+03  0.14802285784E+04  0.95000000000E+03 0.  0.
<mgrwt>
<rscale>  0 0.24899923E+04</rscale>
<asrwt>0</asrwt>
<pdfrwt beam="1">  1        2 0.30228177E+00 0.24899923E+04</pdfrwt>
<pdfrwt beam="2">  1       -2 0.12136609E+00 0.24899923E+04</pdfrwt>
<totfact> 0.32206263E+00</totfact>
</mgrwt>
</event>
<event>
 4    1  0.2019612E-008  0.2192385E+04  0.7816531E-02  0.8521604E-01
         -2   -1    0    0    0  501 -0.00000000000E+00  0.00000000000E+00  0.23347285564E+04  0.23347285564E+04  0.00000000000E+00 0. -1.
          2   -1    0    0  501    0  0.00000000000E+00 -0.00000000000E+00 -0.51467980081E+03  0.51467980081E+03  0.00000000000E+00 0.  1.
    2000013    1    1    2    0    0  0.46173549343E+03 -0.24152951064E+03  0.69409886996E+03  0.12867825814E+04  0.95000000000E+03 0.  0.
   -2000013    1    1    2    0    0 -0.46173549343E+03  0.24152951064E+03  0.11259498857E+04  0.15626257759E+04  0.95000000000E+03 0.  0.
<mgrwt>
<rscale>  0 0.21923847E+04</rscale>
<asrwt>0</asrwt>
<pdfrwt beam="2">  1        2 0.79181509E-01 0.21923847E+04</pdfrwt>
<pdfrwt beam="1">  1       -2 0.35918900E+00 0.21923847E+04</pdfrwt>
<totfact> 0.74210965E-01</totfact>
</mgrwt>
</event>
<event>
 4    1  0.2019612E-008  0.2326987E+04  0.7816531E-02  0.8467356E-01
         -2   -1    0    0    0  501 -0.00000000000E+00  0.00000000000E+00  0.63525493446E+03  0.63525493446E+03  0.00000000000E+00 0. -1.
          2   -1    0    0  501    0  0.00000000000E+00 -0.00000000000E+00 -0.21309829206E+04  0.21309829206E+04  0.00000000000E+00 0.  1.
    2000013    1    1    2    0    0 -0.55177707296E+03  0.36948368955E+03 -0.86816593733E+03  0.14481671968E+04  0.95000000000E+03 0.  0.
   -2000013    1    1    2    0    0  0.55177707296E+03 -0.36948368955E+03 -0.62756204881E+03  0.13180706583E+04  0.95000000000E+03 0.  0.
<mgrwt>
<rscale>  0 0.23269873E+04</rscale>
<asrwt>0</asrwt>
<pdfrwt beam="2">  1        2 0.32784352E+00 0.23269873E+04</pdfrwt>
<pdfrwt beam="1">  1       -2 0.97731530E-01 0.23269873E+04</pdfrwt>
<totfact> 0.44531898E+00</totfact>
</mgrwt>
</event>
<event>
 4    1  0.2019612E-008  0.3300486E+04  0.7816531E-02  0.8162772E-01
         -3   -1    0    0    0  501 -0.00000000000E+00  0.00000000000E+00  0.13794536752E+04  0.13794536752E+04  0.00000000000E+00 0. -1.
          3   -1    0    0  501    0  0.00000000000E+00 -0.00000000000E+00 -0.19741890342E+04  0.19741890342E+04  0.00000000000E+00 0.  1.
    2000013    1    1    2    0    0 -0.26791266933E+03  0.10832974514E+04  0.47346198590E+03  0.15401223389E+04  0.95000000000E+03 0.  0.
   -2000013    1    1    2    0    0  0.26791266933E+03 -0.10832974514E+04 -0.10681973449E+04  0.18135203705E+04  0.95000000000E+03 0.  0.
<mgrwt>
<rscale>  0 0.33004862E+04</rscale>
<asrwt>0</asrwt>
<pdfrwt beam="2">  1        3 0.30372139E+00 0.33004862E+04</pdfrwt>
<pdfrwt beam="1">  1       -3 0.21222364E+00 0.33004862E+04</pdfrwt>
<totfact> 0.97935763E-03</totfact>
</mgrwt>
</event>
<event>
 4    1  0.2019612E-008  0.4439548E+04  0.7816531E-02  0.7921307E-01
         -2   -1    0    0    0  501 -0.00000000000E+00  0.00000000000E+00  0.18740813908E+04  0.18740813908E+04  0.00000000000E+00 0. -1.
          2   -1    0    0  501    0  0.00000000000E+00 -0.00000000000E+00 -0.26292324667E+04  0.26292324667E+04  0.00000000000E+00 0.  1.
    2000013    1    1    2    0    0  0.13158880595E+04  0.99113564791E+03 -0.15390034573E+04  0.24464142943E+04  0.95000000000E+03 0.  0.
   -2000013    1    1    2    0    0 -0.13158880595E+04 -0.99113564791E+03  0.78385238144E+03  0.20568995633E+04  0.95000000000E+03 0.  0.
<mgrwt>
<rscale>  0 0.44395476E+04</rscale>
<asrwt>0</asrwt>
<pdfrwt beam="2">  1        2 0.40449730E+00 0.44395476E+04</pdfrwt>
<pdfrwt beam="1">  1       -2 0.28832022E+00 0.44395476E+04</pdfrwt>
<totfact> 0.83433138E-02</totfact>
</mgrwt>
</event>
<event>
 4    1  0.2019612E-008  0.2940892E+04  0.7816531E-02  0.8260814E-01
         -2   -1    0    0    0  501 -0.00000000000E+00  0.00000000000E+00  0.30829602114E+04  0.30829602114E+04  0.00000000000E+00 0. -1.
          2   -1    0    0  501    0  0.00000000000E+00 -0.00000000000E+00 -0.70134257135E+03  0.70134257135E+03  0.00000000000E+00 0.  1.
    2000013    1    1    2    0    0  0.74395904382E+03 -0.67630129581E+03  0.54889306541E+03  0.14881673625E+04  0.95000000000E+03 0.  0.
   -2000013    1    1    2    0    0 -0.74395904382E+03  0.67630129581E+03  0.18327245747E+04  0.22961354203E+04  0.95000000000E+03 0.  0.
<mgrwt>
<rscale>  0 0.29408919E+04</rscale>
<asrwt>0</asrwt>
<pdfrwt beam="2">  1        2 0.10789886E+00 0.29408919E+04</pdfrwt>
<pdfrwt beam="1">  1       -2 0.47430156E+00 0.29408919E+04</pdfrwt>
<totfact> 0.84331780E-02</totfact>
</mgrwt>
</event>
<event>
 4    1  0.2019612E-008  0.2506981E+04  0.7816531E-02  0.8400503E-01
          1   -1    0    0  501    0  0.00000000000E+00  0.00000000000E+00  0.17218814440E+04  0.17218814440E+04  0.00000000000E+00 0.  1.
         -1   -1    0    0    0  501 -0.00000000000E+00 -0.00000000000E+00 -0.91251264204E+03  0.91251264204E+03  0.00000000000E+00 0. -1.
    2000013    1    1    2    0    0 -0.80841422229E+03 -0.12330759692E+03  0.40522784416E+03  0.13173640059E+04  0.95000000000E+03 0.  0.
   -2000013    1    1    2    0    0  0.80841422229E+03  0.12330759692E+03  0.40414095776E+03  0.13170300801E+04  0.95000000000E+03 0.  0.
<mgrwt>
<rscale>  0 0.25069811E+04</rscale>
<asrwt>0</asrwt>
<pdfrwt beam="1">  1        1 0.26490484E+00 0.25069811E+04</pdfrwt>
<pdfrwt beam="2">  1       -1 0.14038656E+00 0.25069811E+04</pdfrwt>
<totfact> 0.17013612E+00</totfact>
</mgrwt>
</event>
<event>
 4    1  0.2019612E-008  0.2137915E+04  0.7816531E-02  0.8544723E-01
          1   -1    0    0  501    0  0.00000000000E+00  0.00000000000E+00  0.26140923015E+04  0.26140923015E+04  0.00000000000E+00 0.  1.
         -1   -1    0    0    0  501 -0.00000000000E+00 -0.00000000000E+00 -0.43711933253E+03  0.43711933253E+03  0.00000000000E+00 0. -1.
    2000013    1    1    2    0    0  0.46994811368E+03 -0.10087016032E+03  0.12249624670E+04  0.16229784547E+04  0.95000000000E+03 0.  0.
   -2000013    1    1    2    0    0 -0.46994811368E+03  0.10087016032E+03  0.95201050204E+03  0.14282331794E+04  0.95000000000E+03 0.  0.
<mgrwt>
<rscale>  0 0.21379151E+04</rscale>
<asrwt>0</asrwt>
<pdfrwt beam="1">  1        1 0.40216804E+00 0.21379151E+04</pdfrwt>
<pdfrwt beam="2">  1       -1 0.67249130E-01 0.21379151E+04</pdfrwt>
<totfact> 0.23164110E+00</totfact>
</mgrwt>
</event>
<event>
 4    1  0.2019612E-008  0.2177075E+04  0.7816531E-02  0.8528031E-01
          2   -1    0    0  501    0  0.00000000000E+00  0.00000000000E+00  0.40792319112E+04  0.40792319112E+04  0.00000000000E+00 0. -1.
         -2   -1    0    0    0  501 -0.00000000000E+00 -0.00000000000E+00 -0.29047474761E+03  0.29047474761E+03  0.00000000000E+00 0.  1.
    2000013    1    1    2    0    0 -0.43715235746E+03  0.30217509491E+03  0.18971366696E+04  0.21872447314E+04  0.95000000000E+03 0.  0.
   -2000013    1    1    2    0    0  0.43715235746E+03 -0.30217509491E+03  0.18916204940E+04  0.21824619275E+04  0.95000000000E+03 0.  0.
<mgrwt>
<rscale>  0 0.21770750E+04</rscale>
<asrwt>0</asrwt>
<pdfrwt beam="1">  1        2 0.62757410E+00 0.21770750E+04</pdfrwt>
<pdfrwt beam="2">  1       -2 0.44688426E-01 0.21770750E+04</pdfrwt>
<totfact> 0.12914032E+00</totfact>
</mgrwt>
</event>
<event>
 4    1  0.2019612E-008  0.2257544E+04  0.7816531E-02  0.8494852E-01
          2   -1    0    0  501    0  0.00000000000E+00  0.00000000000E+00  0.94706477576E+03  0.94706477576E+03  0.00000000000E+00 0. -1.
         -2   -1    0    0    0  501 -0.00000000000E+00 -0.00000000000E+00 -0.13453423561E+04  0.13453423561E+04  0.00000000000E+00 0.  1.
    2000013    1    1    2    0    0 -0.51476004575E+03  0.11632118898E+03  0.11072579002E+03  0.10923684014E+04  0.95000000000E+03 0.  0.
   -2000013    1    1    2    0    0  0.51476004575E+03 -0.11632118898E+03 -0.50900337038E+03  0.12000387305E+04  0.95000000000E+03 0.  0.
<mgrwt>
<rscale>  0 0.22575441E+04</rscale>
<asrwt>0</asrwt>
<pdfrwt beam="1">  1        2 0.14570227E+00 0.22575441E+04</pdfrwt>
<pdfrwt beam="2">  1       -2 0.20697575E+00 0.22575441E+04</pdfrwt>
<totfact> 0.29707497E+00</totfact>
</mgrwt>
</event>
<event>
 4    1  0.2019612E-008  0.3000111E+04  0.7816531E-02  0.8243699E-01
          2   -1    0    0  501    0  0.00000000000E+00  0.00000000000E+00  0.14902718126E+04  0.14902718126E+04  0.00000000000E+00 0.  1.
         -2   -1    0    0    0  501 -0.00000000000E+00 -0.00000000000E+00 -0.15099033624E+04  0.15099033624E+04  0.00000000000E+00 0. -1.
    2000013    1    1    2    0    0  0.96571768377E+03 -0.28029400468E+03  0.57027512745E+03  0.14962917813E+04  0.95000000000E+03 0.  0.
   -2000013    1    1    2    0    0 -0.96571768377E+03  0.28029400468E+03 -0.58990667728E+03  0.15038833937E+04  0.95000000000E+03 0.  0.
<mgrwt>
<rscale>  0 0.30001109E+04</rscale>
<asrwt>0</asrwt>
<pdfrwt beam="1">  1        2 0.22927259E+00 0.30001109E+04</pdfrwt>
<pdfrwt beam="2">  1       -2 0.23229282E+00 0.30001109E+04</pdfrwt>
<totfact> 0.91035981E-01</totfact>
</mgrwt>
</event>
<event>
 4    1  0.2019612E-008  0.2877976E+04  0.7816531E-02  0.8279461E-01
          2   -1    0    0  501    0  0.00000000000E+00  0.00000000000E+00  0.14105495470E+04  0.14105495470E+04  0.00000000000E+00 0.  1.
         -2   -1    0    0    0  501 -0.00000000000E+00 -0.00000000000E+00 -0.14679999552E+04  0.14679999552E+04  0.00000000000E+00 0. -1.
    2000013    1    1    2    0    0  0.10011351175E+04  0.26438498500E+03 -0.33865098381E+03  0.14454602840E+04  0.95000000000E+03 0.  0.
   -2000013    1    1    2    0    0 -0.10011351175E+04 -0.26438498500E+03  0.28120057564E+03  0.14330892183E+04  0.95000000000E+03 0.  0.
<mgrwt>
<rscale>  0 0.28779761E+04</rscale>
<asrwt>0</asrwt>
<pdfrwt beam="1">  1        2 0.21700762E+00 0.28779761E+04</pdfrwt>
<pdfrwt beam="2">  1       -2 0.22584615E+00 0.28779761E+04</pdfrwt>
<totfact> 0.11202289E+00</totfact>
</mgrwt>
</event>
<event>
 4    1  0.2019612E-008  0.2566703E+04  0.7816531E-02  0.8379600E-01
         -2   -1    0    0    0  501 -0.00000000000E+00  0.00000000000E+00  0.17200337353E+04  0.17200337353E+04  0.00000000000E+00 0. -1.
          2   -1    0    0  501    0  0.00000000000E+00 -0.00000000000E+00 -0.95753414778E+03  0.95753414778E+03  0.00000000000E+00 0.  1.
    2000013    1    1    2    0    0 -0.82863057990E+03 -0.37014999207E+02  0.62919713839E+03  0.14093927015E+04  0.95000000000E+03 0.  0.
   -2000013    1    1    2    0    0  0.82863057990E+03  0.37014999207E+02  0.13330244909E+03  0.12681751815E+04  0.95000000000E+03 0.  0.
<mgrwt>
<rscale>  0 0.25667030E+04</rscale>
<asrwt>0</asrwt>
<pdfrwt beam="2">  1        2 0.14731295E+00 0.25667030E+04</pdfrwt>
<pdfrwt beam="1">  1       -2 0.26462057E+00 0.25667030E+04</pdfrwt>
<totfact> 0.12445895E+00</totfact>
</mgrwt>
</event>
<event>
 4    1  0.2019612E-008  0.2493128E+04  0.7816531E-02  0.8405438E-01
         -2   -1    0    0    0  501 -0.00000000000E+00  0.00000000000E+00  0.12393017190E+04  0.12393017190E+04  0.00000000000E+00 0. -1.
          2   -1    0    0  501    0  0.00000000000E+00 -0.00000000000E+00 -0.12538689240E+04  0.12538689240E+04  0.00000000000E+00 0.  1.
    2000013    1    1    2    0    0  0.76375464760E+03 -0.12436680138E+03 -0.23670776627E+03  0.12479258110E+04  0.95000000000E+03 0.  0.
   -2000013    1    1    2    0    0 -0.76375464760E+03  0.12436680138E+03  0.22214056127E+03  0.12452448321E+04  0.95000000000E+03 0.  0.
<mgrwt>
<rscale>  0 0.24931281E+04</rscale>
<asrwt>0</asrwt>
<pdfrwt beam="2">  1        2 0.19290291E+00 0.24931281E+04</pdfrwt>
<pdfrwt beam="1">  1       -2 0.19066180E+00 0.24931281E+04</pdfrwt>
<totfact> 0.24090180E+00</totfact>
</mgrwt>
</event>
<event>
 4    1  0.2019612E-008  0.2566568E+04  0.7816531E-02  0.8379647E-01
         -2   -1    0    0    0  501 -0.00000000000E+00  0.00000000000E+00  0.12051815978E+04  0.12051815978E+04  0.00000000000E+00 0. -1.
          2   -1    0    0  501    0  0.00000000000E+00 -0.00000000000E+00 -0.13664476994E+04  0.13664476994E+04  0.00000000000E+00 0.  1.
    2000013    1    1    2    0    0 -0.85000337260E+03  0.90441623347E+02  0.36354219446E+02  0.12784784120E+04  0.95000000000E+03 0.  0.
   -2000013    1    1    2    0    0  0.85000337260E+03 -0.90441623347E+02 -0.19762032097E+03  0.12931508852E+04  0.95000000000E+03 0.  0.
<mgrwt>
<rscale>  0 0.25665678E+04</rscale>
<asrwt>0</asrwt>
<pdfrwt beam="2">  1        2 0.21022272E+00 0.25665678E+04</pdfrwt>
<pdfrwt beam="1">  1       -2 0.18541256E+00 0.25665678E+04</pdfrwt>
<totfact> 0.22339570E+00</totfact>
</mgrwt>
</event>
<event>
 4    1  0.2019612E-008  0.2731455E+04  0.7816531E-02  0.8324871E-01
          2   -1    0    0  501    0  0.00000000000E+00  0.00000000000E+00  0.22035396979E+04  0.22035396979E+04  0.00000000000E+00 0.  1.
         -2   -1    0    0    0  501 -0.00000000000E+00 -0.00000000000E+00 -0.84646136095E+03  0.84646136095E+03  0.00000000000E+00 0. -1.
    2000013    1    1    2    0    0 -0.17718920169E+03  0.94134027632E+03  0.44115877167E+03  0.14193796500E+04  0.95000000000E+03 0.  0.
   -2000013    1    1    2    0    0  0.17718920169E+03 -0.94134027632E+03  0.91591956531E+03  0.16306214089E+04  0.95000000000E+03 0.  0.
<mgrwt>
<rscale>  0 0.27314547E+04</rscale>
<asrwt>0</asrwt>
<pdfrwt beam="1">  1        2 0.33900611E+00 0.27314547E+04</pdfrwt>
<pdfrwt beam="2">  1       -2 0.13022483E+00 0.27314547E+04</pdfrwt>
<totfact> 0.19447658E+00</totfact>
</mgrwt>
</event>
<event>
 4    1  0.2019612E-008  0.2427799E+04  0.7816531E-02  0.8429169E-01
          2   -1    0    0  501    0  0.00000000000E+00  0.00000000000E+00  0.14975024373E+04  0.14975024373E+04  0.00000000000E+00 0.  1.
         -2   -1    0    0    0  501 -0.00000000000E+00 -0.00000000000E+00 -0.98400659953E+03  0.98400659953E+03  0.00000000000E+00 0. -1.
    2000013    1    1    2    0    0 -0.19230457563E+03 -0.60733844119E+03  0.67220187448E+03  0.13267239321E+04  0.95000000000E+03 0.  0.
   -2000013    1    1    2    0    0  0.19230457563E+03  0.60733844119E+03 -0.15870603673E+03  0.11547851047E+04  0.95000000000E+03 0.  0.
<mgrwt>
<rscale>  0 0.24277992E+04</rscale>
<asrwt>0</asrwt>
<pdfrwt beam="1">  1        2 0.23038499E+00 0.24277992E+04</pdfrwt>
<pdfrwt beam="2">  1       -2 0.15138563E+00 0.24277992E+04</pdfrwt>
<totfact> 0.33412869E+00</totfact>
</mgrwt>
</event>
<event>
 4    1  0.2019612E-008  0.2061712E+04  0.7816531E-02  0.8578300E-01
         -2   -1    0    0    0  501 -0.00000000000E+00  0.00000000000E+00  0.50990621542E+03  0.50990621542E+03  0.00000000000E+00 0. -1.
          2   -1    0    0  501    0  0.00000000000E+00 -0.00000000000E+00 -0.20840384892E+04  0.20840384892E+04  0.00000000000E+00 0.  1.
    2000013    1    1    2    0    0 -0.18087957882E+03  0.30869176913E+03 -0.10126794433E+04  0.14338855203E+04  0.95000000000E+03 0.  0.
   -2000013    1    1    2    0    0  0.18087957882E+03 -0.30869176913E+03 -0.56145283051E+03  0.11600591844E+04  0.95000000000E+03 0.  0.
<mgrwt>
<rscale>  0 0.20617121E+04</rscale>
<asrwt>0</asrwt>
<pdfrwt beam="2">  1        2 0.32062130E+00 0.20617121E+04</pdfrwt>
<pdfrwt beam="1">  1       -2 0.78447111E-01 0.20617121E+04</pdfrwt>
<totfact> 0.80085614E+00</totfact>
</mgrwt>
</event>
<event>
 4    1  0.2019612E-008  0.2492600E+04  0.7816531E-02  0.8405626E-01
          2   -1    0    0  501    0  0.00000000000E+00  0.00000000000E+00  0.24497413625E+04  0.24497413625E+04  0.00000000000E+00 0.  1.
         -2   -1    0    0    0  501 -0.00000000000E+00 -0.00000000000E+00 -0.63405231683E+03  0.63405231683E+03  0.00000000000E+00 0. -1.
    2000013    1    1    2    0    0 -0.26092691423E+03  0.68656092960E+03  0.13206166108E+04  0.17849305301E+04  0.95000000000E+03 0.  0.
   -2000013    1    1    2    0    0  0.26092691423E+03 -0.68656092960E+03  0.49507243489E+03  0.12988631492E+04  0.95000000000E+03 0.  0.
<mgrwt>
<rscale>  0 0.24926004E+04</rscale>
<asrwt>0</asrwt>
<pdfrwt beam="1">  1        2 0.37688328E+00 0.24926004E+04</pdfrwt>
<pdfrwt beam="2">  1       -2 0.97546512E-01 0.24926004E+04</pdfrwt>
<totfact> 0.29090064E+00</totfact>
</mgrwt>
</event>
<event>
 4    1  0.2019612E-008  0.2277561E+04  0.7816531E-02  0.8486821E-01
         -1   -1    0    0    0  501 -0.00000000000E+00  0.00000000000E+00  0.10618656827E+04  0.10618656827E+04  0.00000000000E+00 0. -1.
          1   -1    0    0  501    0  0.00000000000E+00 -0.00000000000E+00 -0.12212667202E+04  0.12212667202E+04  0.00000000000E+00 0.  1.
    2000013    1    1    2    0    0  0.50392621499E+03  0.34819353765E+03 -0.21838940335E+03  0.11512490179E+04  0.95000000000E+03 0.  0.
   -2000013    1    1    2    0    0 -0.50392621499E+03 -0.34819353765E+03  0.58988365857E+02  0.11318833849E+04  0.95000000000E+03 0.  0.
<mgrwt>
<rscale>  0 0.22775612E+04</rscale>
<asrwt>0</asrwt>
<pdfrwt beam="2">  1        1 0.18788719E+00 0.22775612E+04</pdfrwt>
<pdfrwt beam="1">  1       -1 0.16336395E+00 0.22775612E+04</pdfrwt>
<totfact> 0.25740384E+00</totfact>
</mgrwt>
</event>
<event>
 4    1  0.2019612E-008  0.2749802E+04  0.7816531E-02  0.8319024E-01
         -2   -1    0    0    0  501 -0.00000000000E+00  0.00000000000E+00  0.90933651433E+03  0.90933651433E+03  0.00000000000E+00 0. -1.
          2   -1    0    0  501    0  0.00000000000E+00 -0.00000000000E+00 -0.20788269493E+04  0.20788269493E+04  0.00000000000E+00 0.  1.
    2000013    1    1    2    0    0  0.54545164598E+03 -0.82771499462E+03 -0.66328497516E+03  0.15248201759E+04  0.95000000000E+03 0.  0.
   -2000013    1    1    2    0    0 -0.54545164598E+03  0.82771499462E+03 -0.50620545985E+03  0.14633432878E+04  0.95000000000E+03 0.  0.
<mgrwt>
<rscale>  0 0.27498024E+04</rscale>
<asrwt>0</asrwt>
<pdfrwt beam="2">  1        2 0.31981953E+00 0.27498024E+04</pdfrwt>
<pdfrwt beam="1">  1       -2 0.13989793E+00 0.27498024E+04</pdfrwt>
<totfact> 0.18984795E+00</totfact>
</mgrwt>
</event>
<event>
 4    1  0.2019612E-008  0.2391018E+04  0.7816531E-02  0.8442874E-01
         -2   -1    0    0    0  501 -0.00000000000E+00  0.00000000000E+00  0.10852601491E+04  0.10852601491E+04  0.00000000000E+00 0. -1.
          2   -1    0    0  501    0  0.00000000000E+00 -0.00000000000E+00 -0.13169577675E+04  0.13169577675E+04  0.00000000000E+00 0.  1.
    2000013    1    1    2    0    0 -0.22146565806E+03  0.53147788005E+03  0.32806473046E+03  0.11582928136E+04  0.95000000000E+03 0.  0.
   -2000013    1    1    2    0    0  0.22146565806E+03 -0.53147788005E+03 -0.55976234879E+03  0.12439251030E+04  0.95000000000E+03 0.  0.
<mgrwt>
<rscale>  0 0.23910180E+04</rscale>
<asrwt>0</asrwt>
<pdfrwt beam="2">  1        2 0.20260889E+00 0.23910180E+04</pdfrwt>
<pdfrwt beam="1">  1       -2 0.16696310E+00 0.23910180E+04</pdfrwt>
<totfact> 0.32587934E+00</totfact>
</mgrwt>
</event>
<event>
 4    1  0.2019612E-008  0.2695592E+04  0.7816531E-02  0.8336437E-01
          2   -1    0    0  501    0  0.00000000000E+00  0.00000000000E+00  0.22583856569E+04  0.22583856569E+04  0.00000000000E+00 0.  1.
         -2   -1    0    0    0  501 -0.00000000000E+00 -0.00000000000E+00 -0.80435974996E+03  0.80435974996E+03  0.00000000000E+00 0. -1.
    2000013    1    1    2    0    0  0.49748100310E+03 -0.77537233670E+03  0.10175015095E+04  0.16692809622E+04  0.95000000000E+03 0.  0.
   -2000013    1    1    2    0    0 -0.49748100310E+03  0.77537233670E+03  0.43652439745E+03  0.13934644447E+04  0.95000000000E+03 0.  0.
<mgrwt>
<rscale>  0 0.26955923E+04</rscale>
<asrwt>0</asrwt>
<pdfrwt beam="1">  1        2 0.34744394E+00 0.26955923E+04</pdfrwt>
<pdfrwt beam="2">  1       -2 0.12374765E+00 0.26955923E+04</pdfrwt>
<totfact> 0.20654964E+00</totfact>
</mgrwt>
</event>
<event>
 4    1  0.2019612E-008  0.2700797E+04  0.7816531E-02  0.8334746E-01
          2   -1    0    0  501    0  0.00000000000E+00  0.00000000000E+00  0.10841600428E+04  0.10841600428E+04  0.00000000000E+00 0.  1.
         -2   -1    0    0    0  501 -0.00000000000E+00 -0.00000000000E+00 -0.16820178945E+04  0.16820178945E+04  0.00000000000E+00 0. -1.
    2000013    1    1    2    0    0  0.38628840060E+03  0.82439782452E+03  0.12110193356E+02  0.13158636549E+04  0.95000000000E+03 0.  0.
   -2000013    1    1    2    0    0 -0.38628840060E+03 -0.82439782452E+03 -0.60996804509E+03  0.14503142823E+04  0.95000000000E+03 0.  0.
<mgrwt>
<rscale>  0 0.27007974E+04</rscale>
<asrwt>0</asrwt>
<pdfrwt beam="1">  1        2 0.16679385E+00 0.27007974E+04</pdfrwt>
<pdfrwt beam="2">  1       -2 0.25877198E+00 0.27007974E+04</pdfrwt>
<totfact> 0.11096667E+00</totfact>
</mgrwt>
</event>
<event>
 4    1  0.2019612E-008  0.2374715E+04  0.7816531E-02  0.8449031E-01
          1   -1    0    0  501    0  0.00000000000E+00  0.00000000000E+00  0.14173651724E+04  0.14173651724E+04  0.00000000000E+00 0.  1.
         -1   -1    0    0    0  501 -0.00000000000E+00 -0.00000000000E+00 -0.99467479387E+03  0.99467479387E+03  0.00000000000E+00 0. -1.
    2000013    1    1    2    0    0  0.65347304580E+03 -0.11695828457E+03  0.47349317849E+03  0.12519592853E+04  0.95000000000E+03 0.  0.
   -2000013    1    1    2    0    0 -0.65347304580E+03  0.11695828457E+03 -0.50802799972E+02  0.11600806810E+04  0.95000000000E+03 0.  0.
<mgrwt>
<rscale>  0 0.23747146E+04</rscale>
<asrwt>0</asrwt>
<pdfrwt beam="1">  1        1 0.21805618E+00 0.23747146E+04</pdfrwt>
<pdfrwt beam="2">  1       -1 0.15302689E+00 0.23747146E+04</pdfrwt>
<totfact> 0.22173586E+00</totfact>
</mgrwt>
</event>
<event>
 4    1  0.2019612E-008  0.2736458E+04  0.7816531E-02  0.8323272E-01
         -2   -1    0    0    0  501 -0.00000000000E+00  0.00000000000E+00  0.47799087141E+03  0.47799087141E+03  0.00000000000E+00 0. -1.
          2   -1    0    0  501    0  0.00000000000E+00 -0.00000000000E+00 -0.39164987497E+04  0.39164987497E+04  0.00000000000E+00 0.  1.
    2000013    1    1    2    0    0 -0.10693550685E+03  0.82435027355E+03 -0.25668338288E+04  0.28604413088E+04  0.95000000000E+03 0.  0.
   -2000013    1    1    2    0    0  0.10693550685E+03 -0.82435027355E+03 -0.87167404951E+03  0.15340483124E+04  0.95000000000E+03 0.  0.
<mgrwt>
<rscale>  0 0.27364580E+04</rscale>
<asrwt>0</asrwt>
<pdfrwt beam="2">  1        2 0.60253826E+00 0.27364580E+04</pdfrwt>
<pdfrwt beam="1">  1       -2 0.73537059E-01 0.27364580E+04</pdfrwt>
<totfact> 0.58264302E-01</totfact>
</mgrwt>
</event>
<event>
 4    1  0.2019612E-008  0.2366102E+04  0.7816531E-02  0.8452305E-01
         -2   -1    0    0    0  501 -0.00000000000E+00  0.00000000000E+00  0.11434295122E+04  0.11434295122E+04  0.00000000000E+00 0. -1.
          2   -1    0    0  501    0  0.00000000000E+00 -0.00000000000E+00 -0.12240450827E+04  0.12240450827E+04  0.00000000000E+00 0.  1.
    2000013    1    1    2    0    0 -0.41460688717E+03 -0.43119296040E+03 -0.41373075814E+03  0.11964528324E+04  0.95000000000E+03 0.  0.
   -2000013    1    1    2    0    0  0.41460688717E+03  0.43119296040E+03  0.33311518762E+03  0.11710217625E+04  0.95000000000E+03 0.  0.
<mgrwt>
<rscale>  0 0.23661017E+04</rscale>
<asrwt>0</asrwt>
<pdfrwt beam="2">  1        2 0.18831463E+00 0.23661017E+04</pdfrwt>
<pdfrwt beam="1">  1       -2 0.17591223E+00 0.23661017E+04</pdfrwt>
<totfact> 0.31993245E+00</totfact>
</mgrwt>
</event>
<event>
 4    1  0.2019612E-008  0.2533779E+04  0.7816531E-02  0.8391049E-01
         -1   -1    0    0    0  501 -0.00000000000E+00  0.00000000000E+00  0.65915589863E+03  0.65915589863E+03  0.00000000000E+00 0. -1.
          1   -1    0    0  501    0  0.00000000000E+00 -0.00000000000E+00 -0.24349466825E+04  0.24349466825E+04  0.00000000000E+00 0.  1.
    2000013    1    1    2    0    0  0.83025526001E+03  0.72329847912E+02 -0.99680356678E+03  0.16095566950E+04  0.95000000000E+03 0.  0.
   -2000013    1    1    2    0    0 -0.83025526001E+03 -0.72329847912E+02 -0.77898721710E+03  0.14845458861E+04  0.95000000000E+03 0.  0.
<mgrwt>
<rscale>  0 0.25337794E+04</rscale>
<asrwt>0</asrwt>
<pdfrwt beam="2">  1        1 0.37460718E+00 0.25337794E+04</pdfrwt>
<pdfrwt beam="1">  1       -1 0.10140860E+00 0.25337794E+04</pdfrwt>
<totfact> 0.12282446E+00</totfact>
</mgrwt>
</event>
<event>
 4    1  0.2019612E-008  0.2611787E+04  0.7816531E-02  0.8364208E-01
          2   -1    0    0  501    0  0.00000000000E+00  0.00000000000E+00  0.10360377873E+04  0.10360377873E+04  0.00000000000E+00 0.  1.
         -2   -1    0    0    0  501 -0.00000000000E+00 -0.00000000000E+00 -0.16460388117E+04  0.16460388117E+04  0.00000000000E+00 0. -1.
    2000013    1    1    2    0    0  0.67087058003E+03 -0.33766441556E+03 -0.80679593740E+03  0.14551646908E+04  0.95000000000E+03 0.  0.
   -2000013    1    1    2    0    0 -0.67087058003E+03  0.33766441556E+03  0.19679491306E+03  0.12269119082E+04  0.95000000000E+03 0.  0.
<mgrwt>
<rscale>  0 0.26117874E+04</rscale>
<asrwt>0</asrwt>
<pdfrwt beam="1">  1        2 0.15939043E+00 0.26117874E+04</pdfrwt>
<pdfrwt beam="2">  1       -2 0.25323674E+00 0.26117874E+04</pdfrwt>
<totfact> 0.12957191E+00</totfact>
</mgrwt>
</event>
<event>
 4    1  0.2019612E-008  0.2451848E+04  0.7816531E-02  0.8420344E-01
         -2   -1    0    0    0  501 -0.00000000000E+00  0.00000000000E+00  0.88462452018E+03  0.88462452018E+03  0.00000000000E+00 0. -1.
          2   -1    0    0  501    0  0.00000000000E+00 -0.00000000000E+00 -0.16989005741E+04  0.16989005741E+04  0.00000000000E+00 0.  1.
    2000013    1    1    2    0    0  0.53341960320E+03  0.39457685792E+03  0.14557120321E+02  0.11588525703E+04  0.95000000000E+03 0.  0.
   -2000013    1    1    2    0    0 -0.53341960320E+03 -0.39457685792E+03 -0.82883317422E+03  0.14246725240E+04  0.95000000000E+03 0.  0.
<mgrwt>
<rscale>  0 0.24518476E+04</rscale>
<asrwt>0</asrwt>
<pdfrwt beam="2">  1        2 0.26136932E+00 0.24518476E+04</pdfrwt>
<pdfrwt beam="1">  1       -2 0.13609608E+00 0.24518476E+04</pdfrwt>
<totfact> 0.33986237E+00</totfact>
</mgrwt>
</event>
<event>
 4    1  0.2019612E-008  0.2140712E+04  0.7816531E-02  0.8543518E-01
          2   -1    0    0  501    0  0.00000000000E+00  0.00000000000E+00  0.15831031471E+04  0.15831031471E+04  0.00000000000E+00 0.  1.
         -2   -1    0    0    0  501 -0.00000000000E+00 -0.00000000000E+00 -0.72368130616E+03  0.72368130616E+03  0.00000000000E+00 0. -1.
    2000013    1    1    2    0    0 -0.40538875561E+03 -0.27075183353E+02  0.12858801550E+03  0.10412050646E+04  0.95000000000E+03 0.  0.
   -2000013    1    1    2    0    0  0.40538875561E+03  0.27075183353E+02  0.73083382548E+03  0.12655793887E+04  0.95000000000E+03 0.  0.
<mgrwt>
<rscale>  0 0.21407122E+04</rscale>
<asrwt>0</asrwt>
<pdfrwt beam="1">  1        2 0.24355433E+00 0.21407122E+04</pdfrwt>
<pdfrwt beam="2">  1       -2 0.11133559E+00 0.21407122E+04</pdfrwt>
<totfact> 0.66804477E+00</totfact>
</mgrwt>
</event>
<event>
 4    1  0.2019612E-008  0.2514454E+04  0.7816531E-02  0.8397854E-01
         -2   -1    0    0    0  501 -0.00000000000E+00  0.00000000000E+00  0.46803773542E+03  0.46803773542E+03  0.00000000000E+00 0. -1.
          2   -1    0    0  501    0  0.00000000000E+00 -0.00000000000E+00 -0.33771197711E+04  0.33771197711E+04  0.00000000000E+00 0.  1.
    2000013    1    1    2    0    0  0.67170498258E+03 -0.38525986794E+03 -0.18830144963E+04  0.22467434973E+04  0.95000000000E+03 0.  0.
   -2000013    1    1    2    0    0 -0.67170498258E+03  0.38525986794E+03 -0.10260675394E+04  0.15984140092E+04  0.95000000000E+03 0.  0.
<mgrwt>
<rscale>  0 0.25144538E+04</rscale>
<asrwt>0</asrwt>
<pdfrwt beam="2">  1        2 0.51955690E+00 0.25144538E+04</pdfrwt>
<pdfrwt beam="1">  1       -2 0.72005804E-01 0.25144538E+04</pdfrwt>
<totfact> 0.15395278E+00</totfact>
</mgrwt>
</event>
<event>
 4    1  0.2019612E-008  0.4219949E+04  0.7816531E-02  0.7961588E-01
         -2   -1    0    0    0  501 -0.00000000000E+00  0.00000000000E+00  0.17696858747E+04  0.17696858747E+04  0.00000000000E+00 0. -1.
          2   -1    0    0  501    0  0.00000000000E+00 -0.00000000000E+00 -0.25156969180E+04  0.25156969180E+04  0.00000000000E+00 0.  1.
    2000013    1    1    2    0    0  0.74816685864E+03  0.16146227706E+04  0.25524131043E+03  0.20333244862E+04  0.95000000000E+03 0.  0.
   -2000013    1    1    2    0    0 -0.74816685864E+03 -0.16146227706E+04 -0.10012523538E+04  0.22520583065E+04  0.95000000000E+03 0.  0.
<mgrwt>
<rscale>  0 0.42199494E+04</rscale>
<asrwt>0</asrwt>
<pdfrwt beam="2">  1        2 0.38703029E+00 0.42199494E+04</pdfrwt>
<pdfrwt beam="1">  1       -2 0.27225937E+00 0.42199494E+04</pdfrwt>
<totfact> 0.12404085E-01</totfact>
</mgrwt>
</event>
<event>
 4    1  0.2019612E-008  0.2976117E+04  0.7816531E-02  0.8250584E-01
         -2   -1    0    0    0  501 -0.00000000000E+00  0.00000000000E+00  0.16525124900E+04  0.16525124900E+04  0.00000000000E+00 0. -1.
          2   -1    0    0  501    0  0.00000000000E+00 -0.00000000000E+00 -0.13399709096E+04  0.13399709096E+04  0.00000000000E+00 0.  1.
    2000013    1    1    2    0    0  0.10452141635E+04  0.16285641449E+03  0.59780262108E+03  0.15423562601E+04  0.95000000000E+03 0.  0.
   -2000013    1    1    2    0    0 -0.10452141635E+04 -0.16285641449E+03 -0.28526104065E+03  0.14501271395E+04  0.95000000000E+03 0.  0.
<mgrwt>
<rscale>  0 0.29761174E+04</rscale>
<asrwt>0</asrwt>
<pdfrwt beam="2">  1        2 0.20614937E+00 0.29761174E+04</pdfrwt>
<pdfrwt beam="1">  1       -2 0.25423269E+00 0.29761174E+04</pdfrwt>
<totfact> 0.81345450E-01</totfact>
</mgrwt>
</event>
<event>
 4    1  0.2019612E-008  0.3201683E+04  0.7816531E-02  0.8188373E-01
          2   -1    0    0  501    0  0.00000000000E+00  0.00000000000E+00  0.11655284790E+04  0.11655284790E+04  0.00000000000E+00 0.  1.
         -2   -1    0    0    0  501 -0.00000000000E+00 -0.00000000000E+00 -0.21987388376E+04  0.21987388376E+04  0.00000000000E+00 0. -1.
    2000013    1    1    2    0    0 -0.49566369733E+02 -0.11516755658E+04 -0.11214931108E+04  0.18679026290E+04  0.95000000000E+03 0.  0.
   -2000013    1    1    2    0    0  0.49566369733E+02  0.11516755658E+04  0.88282752130E+02  0.14963646876E+04  0.95000000000E+03 0.  0.
<mgrwt>
<rscale>  0 0.32016825E+04</rscale>
<asrwt>0</asrwt>
<pdfrwt beam="1">  1        2 0.17931207E+00 0.32016825E+04</pdfrwt>
<pdfrwt beam="2">  1       -2 0.33826751E+00 0.32016825E+04</pdfrwt>
<totfact> 0.30827370E-01</totfact>
</mgrwt>
</event>
<event>
 4    1  0.2019612E-008  0.2509612E+04  0.7816531E-02  0.8399569E-01
         -2   -1    0    0    0  501 -0.00000000000E+00  0.00000000000E+00  0.13221943789E+04  0.13221943789E+04  0.00000000000E+00 0. -1.
          2   -1    0    0  501    0  0.00000000000E+00 -0.00000000000E+00 -0.11908524376E+04  0.11908524376E+04  0.00000000000E+00 0.  1.
    2000013    1    1    2    0    0  0.21987235711E+03  0.71832137836E+03  0.39431052843E+03  0.12736994343E+04  0.95000000000E+03 0.  0.
   -2000013    1    1    2    0    0 -0.21987235711E+03 -0.71832137836E+03 -0.26296858708E+03  0.12393473822E+04  0.95000000000E+03 0.  0.
<mgrwt>
<rscale>  0 0.25096122E+04</rscale>
<asrwt>0</asrwt>
<pdfrwt beam="2">  1        2 0.18320807E+00 0.25096122E+04</pdfrwt>
<pdfrwt beam="1">  1       -2 0.20341452E+00 0.25096122E+04</pdfrwt>
<totfact> 0.21593562E+00</totfact>
</mgrwt>
</event>
<event>
 4    1  0.2019612E-008  0.3041954E+04  0.7816531E-02  0.8231851E-01
          2   -1    0    0  501    0  0.00000000000E+00  0.00000000000E+00  0.16534747980E+04  0.16534747980E+04  0.00000000000E+00 0. -1.
         -2   -1    0    0    0  501 -0.00000000000E+00 -0.00000000000E+00 -0.13990968320E+04  0.13990968320E+04  0.00000000000E+00 0.  1.
    2000013    1    1    2    0    0  0.82365683068E+03  0.59666778202E+03  0.74288434440E+03  0.15775931560E+04  0.95000000000E+03 0.  0.
   -2000013    1    1    2    0    0 -0.82365683068E+03 -0.59666778202E+03 -0.48850637837E+03  0.14749784739E+04  0.95000000000E+03 0.  0.
<mgrwt>
<rscale>  0 0.30419542E+04</rscale>
<asrwt>0</asrwt>
<pdfrwt beam="1">  1        2 0.25438074E+00 0.30419542E+04</pdfrwt>
<pdfrwt beam="2">  1       -2 0.21524567E+00 0.30419542E+04</pdfrwt>
<totfact> 0.94115010E-01</totfact>
</mgrwt>
</event>
<event>
 4    1  0.2019612E-008  0.3080749E+04  0.7816531E-02  0.8221041E-01
          2   -1    0    0  501    0  0.00000000000E+00  0.00000000000E+00  0.17710987836E+04  0.17710987836E+04  0.00000000000E+00 0.  1.
         -2   -1    0    0    0  501 -0.00000000000E+00 -0.00000000000E+00 -0.13397070081E+04  0.13397070081E+04  0.00000000000E+00 0. -1.
    2000013    1    1    2    0    0 -0.24910649738E+02  0.11538486120E+04  0.59116546653E+03  0.16074712342E+04  0.95000000000E+03 0.  0.
   -2000013    1    1    2    0    0  0.24910649738E+02 -0.11538486120E+04 -0.15977369105E+03  0.15033345576E+04  0.95000000000E+03 0.  0.
<mgrwt>
<rscale>  0 0.30807489E+04</rscale>
<asrwt>0</asrwt>
<pdfrwt beam="1">  1        2 0.27247674E+00 0.30807489E+04</pdfrwt>
<pdfrwt beam="2">  1       -2 0.20610877E+00 0.30807489E+04</pdfrwt>
<totfact> 0.92389808E-01</totfact>
</mgrwt>
</event>
<event>
 4    1  0.2019612E-008  0.3318505E+04  0.7816531E-02  0.8158203E-01
          2   -1    0    0  501    0  0.00000000000E+00  0.00000000000E+00  0.17164585809E+04  0.17164585809E+04  0.00000000000E+00 0.  1.
         -2   -1    0    0    0  501 -0.00000000000E+00 -0.00000000000E+00 -0.16039529576E+04  0.16039529576E+04  0.00000000000E+00 0. -1.
    2000013    1    1    2    0    0  0.12752724209E+04 -0.30243114944E+03 -0.30842121674E+03  0.16478495060E+04  0.95000000000E+03 0.  0.
   -2000013    1    1    2    0    0 -0.12752724209E+04  0.30243114944E+03  0.42092684003E+03  0.16725620324E+04  0.95000000000E+03 0.  0.
<mgrwt>
<rscale>  0 0.33185050E+04</rscale>
<asrwt>0</asrwt>
<pdfrwt beam="1">  1        2 0.26407055E+00 0.33185050E+04</pdfrwt>
<pdfrwt beam="2">  1       -2 0.24676199E+00 0.33185050E+04</pdfrwt>
<totfact> 0.53881433E-01</totfact>
</mgrwt>
</event>
<event>
 4    1  0.2019612E-008  0.2584572E+04  0.7816531E-02  0.8373461E-01
          1   -1    0    0  501    0  0.00000000000E+00  0.00000000000E+00  0.69808472383E+03  0.69808472383E+03  0.00000000000E+00 0. -1.
         -1   -1    0    0    0  501 -0.00000000000E+00 -0.00000000000E+00 -0.23922638488E+04  0.23922638488E+04  0.00000000000E+00 0.  1.
    2000013    1    1    2    0    0 -0.46800106587E+01  0.59949298680E+03 -0.83260169866E+02  0.11264306457E+04  0.95000000000E+03 0.  0.
   -2000013    1    1    2    0    0  0.46800106587E+01 -0.59949298680E+03 -0.16109189551E+04  0.19639179269E+04  0.95000000000E+03 0.  0.
<mgrwt>
<rscale>  0 0.25845718E+04</rscale>
<asrwt>0</asrwt>
<pdfrwt beam="1">  1        1 0.10739765E+00 0.25845718E+04</pdfrwt>
<pdfrwt beam="2">  1       -1 0.36804059E+00 0.25845718E+04</pdfrwt>
<totfact> 0.28418877E-01</totfact>
</mgrwt>
</event>
<event>
 4    1  0.2019612E-008  0.2098028E+04  0.7816531E-02  0.8562112E-01
         -2   -1    0    0    0  501 -0.00000000000E+00  0.00000000000E+00  0.76540977819E+03  0.76540977819E+03  0.00000000000E+00 0. -1.
          2   -1    0    0  501    0  0.00000000000E+00 -0.00000000000E+00 -0.14377013021E+04  0.14377013021E+04  0.00000000000E+00 0.  1.
    2000013    1    1    2    0    0  0.40759761091E+03  0.14345361172E+03 -0.44735524190E+03  0.11354917277E+04  0.95000000000E+03 0.  0.
   -2000013    1    1    2    0    0 -0.40759761091E+03 -0.14345361172E+03 -0.22493628201E+03  0.10676193526E+04  0.95000000000E+03 0.  0.
<mgrwt>
<rscale>  0 0.20980283E+04</rscale>
<asrwt>0</asrwt>
<pdfrwt beam="2">  1        2 0.22118482E+00 0.20980283E+04</pdfrwt>
<pdfrwt beam="1">  1       -2 0.11775535E+00 0.20980283E+04</pdfrwt>
<totfact> 0.70633723E+00</totfact>
</mgrwt>
</event>
<event>
 4    1  0.2019612E-008  0.2458195E+04  0.7816531E-02  0.8418032E-01
          2   -1    0    0  501    0  0.00000000000E+00  0.00000000000E+00  0.19707456947E+04  0.19707456947E+04  0.00000000000E+00 0.  1.
         -2   -1    0    0    0  501 -0.00000000000E+00 -0.00000000000E+00 -0.76655284932E+03  0.76655284932E+03  0.00000000000E+00 0. -1.
    2000013    1    1    2    0    0  0.13885213077E+03 -0.67108994434E+03  0.10165653789E+04  0.15509825264E+04  0.95000000000E+03 0.  0.
   -2000013    1    1    2    0    0 -0.13885213077E+03  0.67108994434E+03  0.18762746655E+03  0.11863160177E+04  0.95000000000E+03 0.  0.
<mgrwt>
<rscale>  0 0.24581951E+04</rscale>
<asrwt>0</asrwt>
<pdfrwt beam="1">  1        2 0.30319164E+00 0.24581951E+04</pdfrwt>
<pdfrwt beam="2">  1       -2 0.11793121E+00 0.24581951E+04</pdfrwt>
<totfact> 0.34414826E+00</totfact>
</mgrwt>
</event>
<event>
 4    1  0.2019612E-008  0.2446989E+04  0.7816531E-02  0.8422118E-01
         -2   -1    0    0    0  501 -0.00000000000E+00  0.00000000000E+00  0.38368729317E+03  0.38368729317E+03  0.00000000000E+00 0. -1.
          2   -1    0    0  501    0  0.00000000000E+00 -0.00000000000E+00 -0.39014558381E+04  0.39014558381E+04  0.00000000000E+00 0.  1.
    2000013    1    1    2    0    0  0.47620656762E+03  0.60499262236E+03 -0.16877449536E+04  0.20841717291E+04  0.95000000000E+03 0.  0.
   -2000013    1    1    2    0    0 -0.47620656762E+03 -0.60499262236E+03 -0.18300235913E+04  0.22009714021E+04  0.95000000000E+03 0.  0.
<mgrwt>
<rscale>  0 0.24469892E+04</rscale>
<asrwt>0</asrwt>
<pdfrwt beam="2">  1        2 0.60022403E+00 0.24469892E+04</pdfrwt>
<pdfrwt beam="1">  1       -2 0.59028809E-01 0.24469892E+04</pdfrwt>
<totfact> 0.98800359E-01</totfact>
</mgrwt>
</event>
<event>
 4    1  0.2019612E-008  0.2236836E+04  0.7816531E-02  0.8503251E-01
          2   -1    0    0  501    0  0.00000000000E+00  0.00000000000E+00  0.25434336656E+04  0.25434336656E+04  0.00000000000E+00 0.  1.
         -2   -1    0    0    0  501 -0.00000000000E+00 -0.00000000000E+00 -0.49179916313E+03  0.49179916313E+03  0.00000000000E+00 0. -1.
    2000013    1    1    2    0    0  0.28731701728E+03  0.49236136578E+03  0.81830092123E+03  0.13773478793E+04  0.95000000000E+03 0.  0.
   -2000013    1    1    2    0    0 -0.28731701728E+03 -0.49236136578E+03  0.12333335813E+04  0.16578849494E+04  0.95000000000E+03 0.  0.
<mgrwt>
<rscale>  0 0.22368358E+04</rscale>
<asrwt>0</asrwt>
<pdfrwt beam="1">  1        2 0.39129748E+00 0.22368358E+04</pdfrwt>
<pdfrwt beam="2">  1       -2 0.75661411E-01 0.22368358E+04</pdfrwt>
<totfact> 0.46873915E+00</totfact>
</mgrwt>
</event>
<event>
 4    1  0.2019612E-008  0.2736499E+04  0.7816531E-02  0.8323258E-01
         -2   -1    0    0    0  501 -0.00000000000E+00  0.00000000000E+00  0.10566462109E+04  0.10566462109E+04  0.00000000000E+00 0. -1.
          2   -1    0    0  501    0  0.00000000000E+00 -0.00000000000E+00 -0.17717444237E+04  0.17717444237E+04  0.00000000000E+00 0.  1.
    2000013    1    1    2    0    0 -0.76424739447E+03  0.78292971145E+02 -0.99418999949E+03  0.15751563809E+04  0.95000000000E+03 0.  0.
   -2000013    1    1    2    0    0  0.76424739447E+03 -0.78292971145E+02  0.27909178670E+03  0.12532342537E+04  0.95000000000E+03 0.  0.
<mgrwt>
<rscale>  0 0.27364992E+04</rscale>
<asrwt>0</asrwt>
<pdfrwt beam="2">  1        2 0.27257606E+00 0.27364992E+04</pdfrwt>
<pdfrwt beam="1">  1       -2 0.16256096E+00 0.27364992E+04</pdfrwt>
<totfact> 0.18876508E+00</totfact>
</mgrwt>
</event>
<event>
 4    1  0.2019612E-008  0.2104756E+04  0.7816531E-02  0.8559151E-01
          2   -1    0    0  501    0  0.00000000000E+00  0.00000000000E+00  0.81946678340E+03  0.81946678340E+03  0.00000000000E+00 0.  1.
         -2   -1    0    0    0  501 -0.00000000000E+00 -0.00000000000E+00 -0.13514883508E+04  0.13514883508E+04  0.00000000000E+00 0. -1.
    2000013    1    1    2    0    0  0.38566183501E+03 -0.12028000451E+03 -0.47688528941E+03  0.11371551828E+04  0.95000000000E+03 0.  0.
   -2000013    1    1    2    0    0 -0.38566183501E+03  0.12028000451E+03 -0.55136278031E+02  0.10337999515E+04  0.95000000000E+03 0.  0.
<mgrwt>
<rscale>  0 0.21047563E+04</rscale>
<asrwt>0</asrwt>
<pdfrwt beam="1">  1        2 0.12607181E+00 0.21047563E+04</pdfrwt>
<pdfrwt beam="2">  1       -2 0.20792128E+00 0.21047563E+04</pdfrwt>
<totfact> 0.36270209E+00</totfact>
</mgrwt>
</event>
<event>
 4    1  0.2019612E-008  0.2583197E+04  0.7816531E-02  0.8373931E-01
         -2   -1    0    0    0  501 -0.00000000000E+00  0.00000000000E+00  0.13055800469E+04  0.13055800469E+04  0.00000000000E+00 0. -1.
          2   -1    0    0  501    0  0.00000000000E+00 -0.00000000000E+00 -0.12777663999E+04  0.12777663999E+04  0.00000000000E+00 0.  1.
    2000013    1    1    2    0    0  0.11373657386E+03  0.18463492292E+03  0.86171787157E+03  0.13008011966E+04  0.95000000000E+03 0.  0.
   -2000013    1    1    2    0    0 -0.11373657386E+03 -0.18463492292E+03 -0.83390422460E+03  0.12825452502E+04  0.95000000000E+03 0.  0.
<mgrwt>
<rscale>  0 0.25831967E+04</rscale>
<asrwt>0</asrwt>
<pdfrwt beam="2">  1        2 0.19657945E+00 0.25831967E+04</pdfrwt>
<pdfrwt beam="1">  1       -2 0.20085847E+00 0.25831967E+04</pdfrwt>
<totfact> 0.19809785E+00</totfact>
</mgrwt>
</event>
<event>
 4    1  0.2019612E-008  0.2835366E+04  0.7816531E-02  0.8292372E-01
          2   -1    0    0  501    0  0.00000000000E+00  0.00000000000E+00  0.41200566473E+04  0.41200566473E+04  0.00000000000E+00 0.  1.
         -2   -1    0    0    0  501 -0.00000000000E+00 -0.00000000000E+00 -0.48781500622E+03  0.48781500622E+03  0.00000000000E+00 0. -1.
    2000013    1    1    2    0    0 -0.38168188857E+03 -0.97825695936E+03  0.19270326136E+04  0.23913641371E+04  0.95000000000E+03 0.  0.
   -2000013    1    1    2    0    0  0.38168188857E+03  0.97825695936E+03  0.17052090275E+04  0.22165075163E+04  0.95000000000E+03 0.  0.
<mgrwt>
<rscale>  0 0.28353663E+04</rscale>
<asrwt>0</asrwt>
<pdfrwt beam="1">  1        2 0.63385485E+00 0.28353663E+04</pdfrwt>
<pdfrwt beam="2">  1       -2 0.75048465E-01 0.28353663E+04</pdfrwt>
<totfact> 0.37684845E-01</totfact>
</mgrwt>
</event>
<event>
 4    1  0.2019612E-008  0.2707362E+04  0.7816531E-02  0.8332620E-01
         -2   -1    0    0    0  501 -0.00000000000E+00  0.00000000000E+00  0.16062607529E+04  0.16062607529E+04  0.00000000000E+00 0. -1.
          2   -1    0    0  501    0  0.00000000000E+00 -0.00000000000E+00 -0.11408184881E+04  0.11408184881E+04  0.00000000000E+00 0.  1.
    2000013    1    1    2    0    0  0.39978363476E+03 -0.84771844154E+03  0.46298297878E+03  0.14125532731E+04  0.95000000000E+03 0.  0.
   -2000013    1    1    2    0    0 -0.39978363476E+03  0.84771844154E+03  0.24592860512E+01  0.13345259678E+04  0.95000000000E+03 0.  0.
<mgrwt>
<rscale>  0 0.27073618E+04</rscale>
<asrwt>0</asrwt>
<pdfrwt beam="2">  1        2 0.17551054E+00 0.27073618E+04</pdfrwt>
<pdfrwt beam="1">  1       -2 0.24711704E+00 0.27073618E+04</pdfrwt>
<totfact> 0.12070282E+00</totfact>
</mgrwt>
</event>
<event>
 4    1  0.2019612E-008  0.2172874E+04  0.7816531E-02  0.8529804E-01
          2   -1    0    0  501    0  0.00000000000E+00  0.00000000000E+00  0.89015844020E+03  0.89015844020E+03  0.00000000000E+00 0.  1.
         -2   -1    0    0    0  501 -0.00000000000E+00 -0.00000000000E+00 -0.13259947954E+04  0.13259947954E+04  0.00000000000E+00 0. -1.
    2000013    1    1    2    0    0  0.32205830228E+03  0.41621780757E+03 -0.18754849914E+03  0.11021040119E+04  0.95000000000E+03 0.  0.
   -2000013    1    1    2    0    0 -0.32205830228E+03 -0.41621780757E+03 -0.24828785602E+03  0.11140492237E+04  0.95000000000E+03 0.  0.
<mgrwt>
<rscale>  0 0.21728741E+04</rscale>
<asrwt>0</asrwt>
<pdfrwt beam="1">  1        2 0.13694745E+00 0.21728741E+04</pdfrwt>
<pdfrwt beam="2">  1       -2 0.20399920E+00 0.21728741E+04</pdfrwt>
<totfact> 0.34145777E+00</totfact>
</mgrwt>
</event>
<event>
 4    1  0.2019612E-008  0.2849895E+04  0.7816531E-02  0.8287943E-01
         -1   -1    0    0    0  501 -0.00000000000E+00  0.00000000000E+00  0.79015759604E+03  0.79015759604E+03  0.00000000000E+00 0. -1.
          1   -1    0    0  501    0  0.00000000000E+00 -0.00000000000E+00 -0.25697088230E+04  0.25697088230E+04  0.00000000000E+00 0.  1.
    2000013    1    1    2    0    0 -0.88903695984E+03 -0.47541948064E+03 -0.49599321287E+03  0.14713665980E+04  0.95000000000E+03 0.  0.
   -2000013    1    1    2    0    0  0.88903695984E+03  0.47541948064E+03 -0.12835580141E+04  0.18884998211E+04  0.95000000000E+03 0.  0.
<mgrwt>
<rscale>  0 0.28498947E+04</rscale>
<asrwt>0</asrwt>
<pdfrwt beam="2">  1        1 0.39533982E+00 0.28498947E+04</pdfrwt>
<pdfrwt beam="1">  1       -1 0.12156271E+00 0.28498947E+04</pdfrwt>
<totfact> 0.62599556E-01</totfact>
</mgrwt>
</event>
<event>
 4    1  0.2019612E-008  0.2134275E+04  0.7816531E-02  0.8546294E-01
         -1   -1    0    0    0  501 -0.00000000000E+00  0.00000000000E+00  0.83436968288E+03  0.83436968288E+03  0.00000000000E+00 0. -1.
          1   -1    0    0  501    0  0.00000000000E+00 -0.00000000000E+00 -0.13648414810E+04  0.13648414810E+04  0.00000000000E+00 0.  1.
    2000013    1    1    2    0    0  0.37985532495E+03 -0.27441907888E+03 -0.13212959902E+03  0.10674990069E+04  0.95000000000E+03 0.  0.
   -2000013    1    1    2    0    0 -0.37985532495E+03  0.27441907888E+03 -0.39834219911E+03  0.11317121570E+04  0.95000000000E+03 0.  0.
<mgrwt>
<rscale>  0 0.21342749E+04</rscale>
<asrwt>0</asrwt>
<pdfrwt beam="2">  1        1 0.20997561E+00 0.21342749E+04</pdfrwt>
<pdfrwt beam="1">  1       -1 0.12836457E+00 0.21342749E+04</pdfrwt>
<totfact> 0.39056013E+00</totfact>
</mgrwt>
</event>
<event>
 4    1  0.2019612E-008  0.3011024E+04  0.7816531E-02  0.8240590E-01
          2   -1    0    0  501    0  0.00000000000E+00  0.00000000000E+00  0.85043657657E+03  0.85043657657E+03  0.00000000000E+00 0.  1.
         -2   -1    0    0    0  501 -0.00000000000E+00 -0.00000000000E+00 -0.26651790737E+04  0.26651790737E+04  0.00000000000E+00 0. -1.
    2000013    1    1    2    0    0 -0.57671789538E+03  0.94118985755E+03 -0.46181396988E+03  0.15278134773E+04  0.95000000000E+03 0.  0.
   -2000013    1    1    2    0    0  0.57671789538E+03 -0.94118985755E+03 -0.13529285273E+04  0.19878021729E+04  0.95000000000E+03 0.  0.
<mgrwt>
<rscale>  0 0.30110236E+04</rscale>
<asrwt>0</asrwt>
<pdfrwt beam="1">  1        2 0.13083640E+00 0.30110236E+04</pdfrwt>
<pdfrwt beam="2">  1       -2 0.41002754E+00 0.30110236E+04</pdfrwt>
<totfact> 0.17288965E-01</totfact>
</mgrwt>
</event>
<event>
 4    1  0.2019612E-008  0.2757752E+04  0.7816531E-02  0.8316506E-01
          2   -1    0    0  501    0  0.00000000000E+00  0.00000000000E+00  0.18308614643E+04  0.18308614643E+04  0.00000000000E+00 0.  1.
         -2   -1    0    0    0  501 -0.00000000000E+00 -0.00000000000E+00 -0.10384720069E+04  0.10384720069E+04  0.00000000000E+00 0. -1.
    2000013    1    1    2    0    0 -0.59753404682E+03  0.78723298926E+03  0.55057498973E+03  0.14773000832E+04  0.95000000000E+03 0.  0.
   -2000013    1    1    2    0    0  0.59753404682E+03 -0.78723298926E+03  0.24181446772E+03  0.13920333880E+04  0.95000000000E+03 0.  0.
<mgrwt>
<rscale>  0 0.27577515E+04</rscale>
<asrwt>0</asrwt>
<pdfrwt beam="1">  1        2 0.28167099E+00 0.27577515E+04</pdfrwt>
<pdfrwt beam="2">  1       -2 0.15976492E+00 0.27577515E+04</pdfrwt>
<totfact> 0.18320144E+00</totfact>
</mgrwt>
</event>
<event>
 4    1  0.2019612E-008  0.2334048E+04  0.7816531E-02  0.8464616E-01
          1   -1    0    0  501    0  0.00000000000E+00  0.00000000000E+00  0.73064416537E+03  0.73064416537E+03  0.00000000000E+00 0.  1.
         -1   -1    0    0    0  501 -0.00000000000E+00 -0.00000000000E+00 -0.18640334803E+04  0.18640334803E+04  0.00000000000E+00 0. -1.
    2000013    1    1    2    0    0 -0.51632345505E+03 -0.14684373027E+03 -0.10660508824E+03  0.10963656489E+04  0.95000000000E+03 0.  0.
   -2000013    1    1    2    0    0  0.51632345505E+03  0.14684373027E+03 -0.10267842267E+04  0.14983119967E+04  0.95000000000E+03 0.  0.
<mgrwt>
<rscale>  0 0.23340481E+04</rscale>
<asrwt>0</asrwt>
<pdfrwt beam="1">  1        1 0.11240679E+00 0.23340481E+04</pdfrwt>
<pdfrwt beam="2">  1       -1 0.28677438E+00 0.23340481E+04</pdfrwt>
<totfact> 0.92502183E-01</totfact>
</mgrwt>
</event>
<event>
 4    1  0.2019612E-008  0.2211302E+04  0.7816531E-02  0.8513739E-01
          2   -1    0    0  501    0  0.00000000000E+00  0.00000000000E+00  0.98131462303E+03  0.98131462303E+03  0.00000000000E+00 0. -1.
         -2   -1    0    0    0  501 -0.00000000000E+00 -0.00000000000E+00 -0.12457409069E+04  0.12457409069E+04  0.00000000000E+00 0.  1.
    2000013    1    1    2    0    0  0.43266825673E+03  0.98252275420E+02  0.22115465056E+03  0.10715711406E+04  0.95000000000E+03 0.  0.
   -2000013    1    1    2    0    0 -0.43266825673E+03 -0.98252275420E+02 -0.48558093446E+03  0.11554843893E+04  0.95000000000E+03 0.  0.
<mgrwt>
<rscale>  0 0.22113017E+04</rscale>
<asrwt>0</asrwt>
<pdfrwt beam="1">  1        2 0.15097148E+00 0.22113017E+04</pdfrwt>
<pdfrwt beam="2">  1       -2 0.19165245E+00 0.22113017E+04</pdfrwt>
<totfact> 0.35726849E+00</totfact>
</mgrwt>
</event>
<event>
 4    1  0.2019612E-008  0.2610891E+04  0.7816531E-02  0.8364511E-01
         -2   -1    0    0    0  501 -0.00000000000E+00  0.00000000000E+00  0.44917623847E+03  0.44917623847E+03  0.00000000000E+00 0. -1.
          2   -1    0    0  501    0  0.00000000000E+00 -0.00000000000E+00 -0.37940299654E+04  0.37940299654E+04  0.00000000000E+00 0.  1.
    2000013    1    1    2    0    0 -0.24593836770E+03  0.67300438511E+03 -0.25450028087E+04  0.28094412041E+04  0.95000000000E+03 0.  0.
   -2000013    1    1    2    0    0  0.24593836770E+03 -0.67300438511E+03 -0.79985091820E+03  0.14337649997E+04  0.95000000000E+03 0.  0.
<mgrwt>
<rscale>  0 0.26108911E+04</rscale>
<asrwt>0</asrwt>
<pdfrwt beam="2">  1        2 0.58369694E+00 0.26108911E+04</pdfrwt>
<pdfrwt beam="1">  1       -2 0.69104034E-01 0.26108911E+04</pdfrwt>
<totfact> 0.83984771E-01</totfact>
</mgrwt>
</event>
<event>
 4    1  0.2019612E-008  0.2459183E+04  0.7816531E-02  0.8417673E-01
          2   -1    0    0  501    0  0.00000000000E+00  0.00000000000E+00  0.33361857698E+04  0.33361857698E+04  0.00000000000E+00 0.  1.
         -2   -1    0    0    0  501 -0.00000000000E+00 -0.00000000000E+00 -0.45318064318E+03  0.45318064318E+03  0.00000000000E+00 0. -1.
    2000013    1    1    2    0    0 -0.71747610179E+02  0.77656557778E+03  0.13882800411E+04  0.18541907369E+04  0.95000000000E+03 0.  0.
   -2000013    1    1    2    0    0  0.71747610179E+02 -0.77656557778E+03  0.14947250855E+04  0.19351756761E+04  0.95000000000E+03 0.  0.
<mgrwt>
<rscale>  0 0.24591826E+04</rscale>
<asrwt>0</asrwt>
<pdfrwt beam="1">  1        2 0.51325933E+00 0.24591826E+04</pdfrwt>
<pdfrwt beam="2">  1       -2 0.69720101E-01 0.24591826E+04</pdfrwt>
<totfact> 0.17694691E+00</totfact>
</mgrwt>
</event>
<event>
 4    1  0.2019612E-008  0.5131897E+04  0.7816531E-02  0.7808477E-01
         -2   -1    0    0    0  501 -0.00000000000E+00  0.00000000000E+00  0.22111594016E+04  0.22111594016E+04  0.00000000000E+00 0. -1.
          2   -1    0    0  501    0  0.00000000000E+00 -0.00000000000E+00 -0.29776646150E+04  0.29776646150E+04  0.00000000000E+00 0.  1.
    2000013    1    1    2    0    0 -0.20358957141E+04  0.12169471571E+04 -0.62200621537E+03  0.26296812495E+04  0.95000000000E+03 0.  0.
   -2000013    1    1    2    0    0  0.20358957141E+04 -0.12169471571E+04 -0.14449899808E+03  0.25591427671E+04  0.95000000000E+03 0.  0.
<mgrwt>
<rscale>  0 0.51318968E+04</rscale>
<asrwt>0</asrwt>
<pdfrwt beam="2">  1        2 0.45810225E+00 0.51318968E+04</pdfrwt>
<pdfrwt beam="1">  1       -2 0.34017837E+00 0.51318968E+04</pdfrwt>
<totfact> 0.23224932E-02</totfact>
</mgrwt>
</event>
<event>
 4    1  0.2019612E-008  0.3372494E+04  0.7816531E-02  0.8144690E-01
         -2   -1    0    0    0  501 -0.00000000000E+00  0.00000000000E+00  0.12396227966E+04  0.12396227966E+04  0.00000000000E+00 0. -1.
          2   -1    0    0  501    0  0.00000000000E+00 -0.00000000000E+00 -0.22937855015E+04  0.22937855015E+04  0.00000000000E+00 0.  1.
    2000013    1    1    2    0    0 -0.91502441706E+03 -0.61085433304E+03  0.36840205988E+03  0.14995441900E+04  0.95000000000E+03 0.  0.
   -2000013    1    1    2    0    0  0.91502441706E+03  0.61085433304E+03 -0.14225647648E+04  0.20338641081E+04  0.95000000000E+03 0.  0.
<mgrwt>
<rscale>  0 0.33724939E+04</rscale>
<asrwt>0</asrwt>
<pdfrwt beam="2">  1        2 0.35289008E+00 0.33724939E+04</pdfrwt>
<pdfrwt beam="1">  1       -2 0.19071120E+00 0.33724939E+04</pdfrwt>
<totfact> 0.58177676E-01</totfact>
</mgrwt>
</event>
<event>
 4    1  0.2019612E-008  0.2614358E+04  0.7816531E-02  0.8363341E-01
          2   -1    0    0  501    0  0.00000000000E+00  0.00000000000E+00  0.26813421752E+04  0.26813421752E+04  0.00000000000E+00 0.  1.
         -2   -1    0    0    0  501 -0.00000000000E+00 -0.00000000000E+00 -0.63726165011E+03  0.63726165011E+03  0.00000000000E+00 0. -1.
    2000013    1    1    2    0    0 -0.82738683094E+03 -0.30613580471E+03  0.12341759534E+04  0.17899660284E+04  0.95000000000E+03 0.  0.
   -2000013    1    1    2    0    0  0.82738683094E+03  0.30613580471E+03  0.80990457173E+03  0.15286377969E+04  0.95000000000E+03 0.  0.
<mgrwt>
<rscale>  0 0.26143577E+04</rscale>
<asrwt>0</asrwt>
<pdfrwt beam="1">  1        2 0.41251418E+00 0.26143577E+04</pdfrwt>
<pdfrwt beam="2">  1       -2 0.98040255E-01 0.26143577E+04</pdfrwt>
<totfact> 0.20828747E+00</totfact>
</mgrwt>
</event>
<event>
 4    1  0.2019612E-008  0.2803842E+04  0.7816531E-02  0.8302077E-01
          2   -1    0    0  501    0  0.00000000000E+00  0.00000000000E+00  0.10366639665E+04  0.10366639665E+04  0.00000000000E+00 0.  1.
         -2   -1    0    0    0  501 -0.00000000000E+00 -0.00000000000E+00 -0.18958716760E+04  0.18958716760E+04  0.00000000000E+00 0. -1.
    2000013    1    1    2    0    0  0.92733596610E+03 -0.28831377141E+03 -0.79161951107E+03  0.15723352935E+04  0.95000000000E+03 0.  0.
   -2000013    1    1    2    0    0 -0.92733596610E+03  0.28831377141E+03 -0.67588198375E+02  0.13602003490E+04  0.95000000000E+03 0.  0.
<mgrwt>
<rscale>  0 0.28038415E+04</rscale>
<asrwt>0</asrwt>
<pdfrwt beam="1">  1        2 0.15948676E+00 0.28038415E+04</pdfrwt>
<pdfrwt beam="2">  1       -2 0.29167257E+00 0.28038415E+04</pdfrwt>
<totfact> 0.74196876E-01</totfact>
</mgrwt>
</event>
<event>
 4    1  0.2019612E-008  0.2461499E+04  0.7816531E-02  0.8416831E-01
         -2   -1    0    0    0  501 -0.00000000000E+00  0.00000000000E+00  0.65813983619E+03  0.65813983619E+03  0.00000000000E+00 0. -1.
          2   -1    0    0  501    0  0.00000000000E+00 -0.00000000000E+00 -0.23015544019E+04  0.23015544019E+04  0.00000000000E+00 0.  1.
    2000013    1    1    2    0    0  0.37013147206E+03 -0.68718702636E+03 -0.75561578571E+03  0.14431488251E+04  0.95000000000E+03 0.  0.
   -2000013    1    1    2    0    0 -0.37013147206E+03  0.68718702636E+03 -0.88779877998E+03  0.15165454130E+04  0.95000000000E+03 0.  0.
<mgrwt>
<rscale>  0 0.24614992E+04</rscale>
<asrwt>0</asrwt>
<pdfrwt beam="2">  1        2 0.35408529E+00 0.24614992E+04</pdfrwt>
<pdfrwt beam="1">  1       -2 0.10125228E+00 0.24614992E+04</pdfrwt>
<totfact> 0.32456054E+00</totfact>
</mgrwt>
</event>
<event>
 4    1  0.2019612E-008  0.1976686E+04  0.7816531E-02  0.8617599E-01
         -2   -1    0    0    0  501 -0.00000000000E+00  0.00000000000E+00  0.94301826156E+03  0.94301826156E+03  0.00000000000E+00 0. -1.
          2   -1    0    0  501    0  0.00000000000E+00 -0.00000000000E+00 -0.10358463634E+04  0.10358463634E+04  0.00000000000E+00 0.  1.
    2000013    1    1    2    0    0  0.66597527999E+02  0.26198379349E+03 -0.11001374588E+02  0.98777111166E+03  0.95000000000E+03 0.  0.
   -2000013    1    1    2    0    0 -0.66597527999E+02 -0.26198379349E+03 -0.81826727248E+02  0.99109351329E+03  0.95000000000E+03 0.  0.
<mgrwt>
<rscale>  0 0.19766862E+04</rscale>
<asrwt>0</asrwt>
<pdfrwt beam="2">  1        2 0.15936098E+00 0.19766862E+04</pdfrwt>
<pdfrwt beam="1">  1       -2 0.14507973E+00 0.19766862E+04</pdfrwt>
<totfact> 0.72773725E+00</totfact>
</mgrwt>
</event>
<event>
 4    1  0.2019612E-008  0.2781309E+04  0.7816531E-02  0.8309095E-01
          2   -1    0    0  501    0  0.00000000000E+00  0.00000000000E+00  0.28890621312E+04  0.28890621312E+04  0.00000000000E+00 0.  1.
         -2   -1    0    0    0  501 -0.00000000000E+00 -0.00000000000E+00 -0.66939379250E+03  0.66939379250E+03  0.00000000000E+00 0. -1.
    2000013    1    1    2    0    0  0.12995035464E+03 -0.49952606337E+03 -0.92042129180E+01  0.10812021551E+04  0.95000000000E+03 0.  0.
   -2000013    1    1    2    0    0 -0.12995035464E+03  0.49952606337E+03  0.22288725516E+04  0.24772537686E+04  0.95000000000E+03 0.  0.
<mgrwt>
<rscale>  0 0.27813092E+04</rscale>
<asrwt>0</asrwt>
<pdfrwt beam="1">  1        2 0.44447109E+00 0.27813092E+04</pdfrwt>
<pdfrwt beam="2">  1       -2 0.10298366E+00 0.27813092E+04</pdfrwt>
<totfact> 0.13688271E+00</totfact>
</mgrwt>
</event>
<event>
 4    1  0.2019612E-008  0.2294132E+04  0.7816531E-02  0.8480238E-01
          2   -1    0    0  501    0  0.00000000000E+00  0.00000000000E+00  0.12507789957E+04  0.12507789957E+04  0.00000000000E+00 0.  1.
         -2   -1    0    0    0  501 -0.00000000000E+00 -0.00000000000E+00 -0.10519526953E+04  0.10519526953E+04  0.00000000000E+00 0. -1.
    2000013    1    1    2    0    0 -0.33568769726E+03 -0.37914663990E+03 -0.29807880726E+03  0.11170449319E+04  0.95000000000E+03 0.  0.
   -2000013    1    1    2    0    0  0.33568769726E+03  0.37914663990E+03  0.49690510767E+03  0.11856867591E+04  0.95000000000E+03 0.  0.
<mgrwt>
<rscale>  0 0.22941319E+04</rscale>
<asrwt>0</asrwt>
<pdfrwt beam="1">  1        2 0.19242754E+00 0.22941319E+04</pdfrwt>
<pdfrwt beam="2">  1       -2 0.16183888E+00 0.22941319E+04</pdfrwt>
<totfact> 0.39132252E+00</totfact>
</mgrwt>
</event>
<event>
 4    1  0.2019612E-008  0.3009345E+04  0.7816531E-02  0.8241067E-01
         -2   -1    0    0    0  501 -0.00000000000E+00  0.00000000000E+00  0.87368824693E+03  0.87368824693E+03  0.00000000000E+00 0. -1.
          2   -1    0    0  501    0  0.00000000000E+00 -0.00000000000E+00 -0.25913583479E+04  0.25913583479E+04  0.00000000000E+00 0.  1.
    2000013    1    1    2    0    0 -0.23939295946E+03  0.11187468457E+04 -0.11230016292E+04  0.18634742158E+04  0.95000000000E+03 0.  0.
   -2000013    1    1    2    0    0  0.23939295946E+03 -0.11187468457E+04 -0.59466847175E+03  0.16015723790E+04  0.95000000000E+03 0.  0.
<mgrwt>
<rscale>  0 0.30093450E+04</rscale>
<asrwt>0</asrwt>
<pdfrwt beam="2">  1        2 0.39867051E+00 0.30093450E+04</pdfrwt>
<pdfrwt beam="1">  1       -2 0.13441358E+00 0.30093450E+04</pdfrwt>
<totfact> 0.10503486E+00</totfact>
</mgrwt>
</event>
<event>
 4    1  0.2019612E-008  0.2708356E+04  0.7816531E-02  0.8332299E-01
         -2   -1    0    0    0  501 -0.00000000000E+00  0.00000000000E+00  0.85514614692E+03  0.85514614692E+03  0.00000000000E+00 0. -1.
          2   -1    0    0  501    0  0.00000000000E+00 -0.00000000000E+00 -0.21444272122E+04  0.21444272122E+04  0.00000000000E+00 0.  1.
    2000013    1    1    2    0    0  0.68833543161E+03  0.22451461907E+03 -0.13512783060E+04  0.18035147742E+04  0.95000000000E+03 0.  0.
   -2000013    1    1    2    0    0 -0.68833543161E+03 -0.22451461907E+03  0.61997240743E+02  0.11960585849E+04  0.95000000000E+03 0.  0.
<mgrwt>
<rscale>  0 0.27083565E+04</rscale>
<asrwt>0</asrwt>
<pdfrwt beam="2">  1        2 0.32991187E+00 0.27083565E+04</pdfrwt>
<pdfrwt beam="1">  1       -2 0.13156095E+00 0.27083565E+04</pdfrwt>
<totfact> 0.20495741E+00</totfact>
</mgrwt>
</event>
<event>
 4    1  0.2019612E-008  0.2600148E+04  0.7816531E-02  0.8368151E-01
         -2   -1    0    0    0  501 -0.00000000000E+00  0.00000000000E+00  0.87914108410E+03  0.87914108410E+03  0.00000000000E+00 0. -1.
          2   -1    0    0  501    0  0.00000000000E+00 -0.00000000000E+00 -0.19225499299E+04  0.19225499299E+04  0.00000000000E+00 0.  1.
    2000013    1    1    2    0    0 -0.14082736982E+03  0.66467734192E+03  0.93576959262E+02  0.11717017386E+04  0.95000000000E+03 0.  0.
   -2000013    1    1    2    0    0  0.14082736982E+03 -0.66467734192E+03 -0.11369858050E+04  0.16299892754E+04  0.95000000000E+03 0.  0.
<mgrwt>
<rscale>  0 0.26001482E+04</rscale>
<asrwt>0</asrwt>
<pdfrwt beam="2">  1        2 0.29577691E+00 0.26001482E+04</pdfrwt>
<pdfrwt beam="1">  1       -2 0.13525248E+00 0.26001482E+04</pdfrwt>
<totfact> 0.25624697E+00</totfact>
</mgrwt>
</event>
<event>
 4    1  0.2019612E-008  0.2677849E+04  0.7816531E-02  0.8342228E-01
         -2   -1    0    0    0  501 -0.00000000000E+00  0.00000000000E+00  0.12098833616E+04  0.12098833616E+04  0.00000000000E+00 0. -1.
          2   -1    0    0  501    0  0.00000000000E+00 -0.00000000000E+00 -0.14817286610E+04  0.14817286610E+04  0.00000000000E+00 0.  1.
    2000013    1    1    2    0    0  0.93573950789E+03  0.25667013382E+02 -0.25464674355E+03  0.13577968133E+04  0.95000000000E+03 0.  0.
   -2000013    1    1    2    0    0 -0.93573950789E+03 -0.25667013382E+02 -0.17198555880E+02  0.13338152093E+04  0.95000000000E+03 0.  0.
<mgrwt>
<rscale>  0 0.26778490E+04</rscale>
<asrwt>0</asrwt>
<pdfrwt beam="2">  1        2 0.22795825E+00 0.26778490E+04</pdfrwt>
<pdfrwt beam="1">  1       -2 0.18613590E+00 0.26778490E+04</pdfrwt>
<totfact> 0.18808220E+00</totfact>
</mgrwt>
</event>
<event>
 4    1  0.2019612E-008  0.2844102E+04  0.7816531E-02  0.8289706E-01
          2   -1    0    0  501    0  0.00000000000E+00  0.00000000000E+00  0.19871309425E+04  0.19871309425E+04  0.00000000000E+00 0.  1.
         -2   -1    0    0    0  501 -0.00000000000E+00 -0.00000000000E+00 -0.10176624594E+04  0.10176624594E+04  0.00000000000E+00 0. -1.
    2000013    1    1    2    0    0 -0.57104246278E+03 -0.26966627970E+03  0.13817762610E+04  0.17918189173E+04  0.95000000000E+03 0.  0.
   -2000013    1    1    2    0    0  0.57104246278E+03  0.26966627970E+03 -0.41230777793E+03  0.12129744847E+04  0.95000000000E+03 0.  0.
<mgrwt>
<rscale>  0 0.28441017E+04</rscale>
<asrwt>0</asrwt>
<pdfrwt beam="1">  1        2 0.30571245E+00 0.28441017E+04</pdfrwt>
<pdfrwt beam="2">  1       -2 0.15656345E+00 0.28441017E+04</pdfrwt>
<totfact> 0.15736236E+00</totfact>
</mgrwt>
</event>
<event>
 4    1  0.2019612E-008  0.2724461E+04  0.7816531E-02  0.8327112E-01
         -2   -1    0    0    0  501 -0.00000000000E+00  0.00000000000E+00  0.96842587482E+03  0.96842587482E+03  0.00000000000E+00 0. -1.
          2   -1    0    0  501    0  0.00000000000E+00 -0.00000000000E+00 -0.19161737265E+04  0.19161737265E+04  0.00000000000E+00 0.  1.
    2000013    1    1    2    0    0  0.57115878405E+03 -0.22898005023E+03 -0.12763955245E+04  0.17059717920E+04  0.95000000000E+03 0.  0.
   -2000013    1    1    2    0    0 -0.57115878405E+03  0.22898005023E+03  0.32864767287E+03  0.11786278093E+04  0.95000000000E+03 0.  0.
<mgrwt>
<rscale>  0 0.27244612E+04</rscale>
<asrwt>0</asrwt>
<pdfrwt beam="2">  1        2 0.29479595E+00 0.27244612E+04</pdfrwt>
<pdfrwt beam="1">  1       -2 0.14898860E+00 0.27244612E+04</pdfrwt>
<totfact> 0.19867303E+00</totfact>
</mgrwt>
</event>
<event>
 4    1  0.2019612E-008  0.2144966E+04  0.7816531E-02  0.8541690E-01
          2   -1    0    0  501    0  0.00000000000E+00  0.00000000000E+00  0.12929938794E+04  0.12929938794E+04  0.00000000000E+00 0.  1.
         -2   -1    0    0    0  501 -0.00000000000E+00 -0.00000000000E+00 -0.88957875302E+03  0.88957875302E+03  0.00000000000E+00 0. -1.
    2000013    1    1    2    0    0  0.27362421785E+03  0.31125355379E+03  0.48216818796E+03  0.11431251676E+04  0.95000000000E+03 0.  0.
   -2000013    1    1    2    0    0 -0.27362421785E+03 -0.31125355379E+03 -0.78753061610E+02  0.10394474648E+04  0.95000000000E+03 0.  0.
<mgrwt>
<rscale>  0 0.21449661E+04</rscale>
<asrwt>0</asrwt>
<pdfrwt beam="1">  1        2 0.19892214E+00 0.21449661E+04</pdfrwt>
<pdfrwt beam="2">  1       -2 0.13685827E+00 0.21449661E+04</pdfrwt>
<totfact> 0.58376661E+00</totfact>
</mgrwt>
</event>
<event>
 4    1  0.2019612E-008  0.2236676E+04  0.7816531E-02  0.8503316E-01
          2   -1    0    0  501    0  0.00000000000E+00  0.00000000000E+00  0.83088477592E+03  0.83088477592E+03  0.00000000000E+00 0.  1.
         -2   -1    0    0    0  501 -0.00000000000E+00 -0.00000000000E+00 -0.15052388689E+04  0.15052388689E+04  0.00000000000E+00 0. -1.
    2000013    1    1    2    0    0  0.49946384489E+03 -0.17468735901E+03 -0.64413885752E+02  0.10893249994E+04  0.95000000000E+03 0.  0.
   -2000013    1    1    2    0    0 -0.49946384489E+03  0.17468735901E+03 -0.60994020728E+03  0.12467986454E+04  0.95000000000E+03 0.  0.
<mgrwt>
<rscale>  0 0.22366762E+04</rscale>
<asrwt>0</asrwt>
<pdfrwt beam="1">  1        2 0.12782843E+00 0.22366762E+04</pdfrwt>
<pdfrwt beam="2">  1       -2 0.23157521E+00 0.22366762E+04</pdfrwt>
<totfact> 0.24926804E+00</totfact>
</mgrwt>
</event>
<event>
 4    1  0.2019612E-008  0.2334855E+04  0.7816531E-02  0.8464304E-01
         -2   -1    0    0    0  501 -0.00000000000E+00  0.00000000000E+00  0.77639132569E+03  0.77639132569E+03  0.00000000000E+00 0. -1.
          2   -1    0    0  501    0  0.00000000000E+00 -0.00000000000E+00 -0.17554126807E+04  0.17554126807E+04  0.00000000000E+00 0.  1.
    2000013    1    1    2    0    0  0.66794654022E+03 -0.10639485767E+03 -0.54805293262E+03  0.12885396631E+04  0.95000000000E+03 0.  0.
   -2000013    1    1    2    0    0 -0.66794654022E+03  0.10639485767E+03 -0.43096842240E+03  0.12432643433E+04  0.95000000000E+03 0.  0.
<mgrwt>
<rscale>  0 0.23348552E+04</rscale>
<asrwt>0</asrwt>
<pdfrwt beam="2">  1        2 0.27006349E+00 0.23348552E+04</pdfrwt>
<pdfrwt beam="1">  1       -2 0.11944482E+00 0.23348552E+04</pdfrwt>
<totfact> 0.44365574E+00</totfact>
</mgrwt>
</event>
<event>
 4    1  0.2019612E-008  0.2427236E+04  0.7816531E-02  0.8429377E-01
         -2   -1    0    0    0  501 -0.00000000000E+00  0.00000000000E+00  0.69786000438E+03  0.69786000438E+03  0.00000000000E+00 0. -1.
          2   -1    0    0  501    0  0.00000000000E+00 -0.00000000000E+00 -0.21105504686E+04  0.21105504686E+04  0.00000000000E+00 0.  1.
    2000013    1    1    2    0    0  0.31413892697E+03  0.65153671128E+03 -0.95767991249E+03  0.15306319500E+04  0.95000000000E+03 0.  0.
   -2000013    1    1    2    0    0 -0.31413892697E+03 -0.65153671128E+03 -0.45501055173E+03  0.12777785230E+04  0.95000000000E+03 0.  0.
<mgrwt>
<rscale>  0 0.24272361E+04</rscale>
<asrwt>0</asrwt>
<pdfrwt beam="2">  1        2 0.32470007E+00 0.24272361E+04</pdfrwt>
<pdfrwt beam="1">  1       -2 0.10736308E+00 0.24272361E+04</pdfrwt>
<totfact> 0.36232327E+00</totfact>
</mgrwt>
</event>
<event>
 4    1  0.2019612E-008  0.3198901E+04  0.7816531E-02  0.8189108E-01
         -2   -1    0    0    0  501 -0.00000000000E+00  0.00000000000E+00  0.13334569306E+04  0.13334569306E+04  0.00000000000E+00 0. -1.
          2   -1    0    0  501    0  0.00000000000E+00 -0.00000000000E+00 -0.19185030632E+04  0.19185030632E+04  0.00000000000E+00 0.  1.
    2000013    1    1    2    0    0  0.83369060909E+03 -0.96244644856E+03 -0.48106636452E+03  0.16599000106E+04  0.95000000000E+03 0.  0.
   -2000013    1    1    2    0    0 -0.83369060909E+03  0.96244644856E+03 -0.10397976800E+03  0.15920599832E+04  0.95000000000E+03 0.  0.
<mgrwt>
<rscale>  0 0.31989006E+04</rscale>
<asrwt>0</asrwt>
<pdfrwt beam="2">  1        2 0.29515431E+00 0.31989006E+04</pdfrwt>
<pdfrwt beam="1">  1       -2 0.20514722E+00 0.31989006E+04</pdfrwt>
<totfact> 0.76878142E-01</totfact>
</mgrwt>
</event>
<event>
 4    1  0.2019612E-008  0.3055170E+04  0.7816531E-02  0.8228150E-01
          2   -1    0    0  501    0  0.00000000000E+00  0.00000000000E+00  0.43067571003E+04  0.43067571003E+04  0.00000000000E+00 0.  1.
         -2   -1    0    0    0  501 -0.00000000000E+00 -0.00000000000E+00 -0.54182659938E+03  0.54182659938E+03  0.00000000000E+00 0. -1.
    2000013    1    1    2    0    0  0.10005721491E+04 -0.65464432615E+03  0.19399433713E+04  0.24689236730E+04  0.95000000000E+03 0.  0.
   -2000013    1    1    2    0    0 -0.10005721491E+04  0.65464432615E+03  0.18249871296E+04  0.23796600267E+04  0.95000000000E+03 0.  0.
<mgrwt>
<rscale>  0 0.30551698E+04</rscale>
<asrwt>0</asrwt>
<pdfrwt beam="1">  1        2 0.66257799E+00 0.30551698E+04</pdfrwt>
<pdfrwt beam="2">  1       -2 0.83357941E-01 0.30551698E+04</pdfrwt>
<totfact> 0.20052748E-01</totfact>
</mgrwt>
</event>
<event>
 4    1  0.2019612E-008  0.2444786E+04  0.7816531E-02  0.8422924E-01
         -2   -1    0    0    0  501 -0.00000000000E+00  0.00000000000E+00  0.99188773476E+03  0.99188773476E+03  0.00000000000E+00 0. -1.
          2   -1    0    0  501    0  0.00000000000E+00 -0.00000000000E+00 -0.15064650381E+04  0.15064650381E+04  0.00000000000E+00 0.  1.
    2000013    1    1    2    0    0 -0.54473921295E+03  0.41617060101E+03  0.99364671605E+02  0.11757177030E+04  0.95000000000E+03 0.  0.
   -2000013    1    1    2    0    0  0.54473921295E+03 -0.41617060101E+03 -0.61394197490E+03  0.13226350698E+04  0.95000000000E+03 0.  0.
<mgrwt>
<rscale>  0 0.24447856E+04</rscale>
<asrwt>0</asrwt>
<pdfrwt beam="2">  1        2 0.23176385E+00 0.24447856E+04</pdfrwt>
<pdfrwt beam="1">  1       -2 0.15259811E+00 0.24447856E+04</pdfrwt>
<totfact> 0.32285789E+00</totfact>
</mgrwt>
</event>
<event>
 4    1  0.2019612E-008  0.2717564E+04  0.7816531E-02  0.8329328E-01
          2   -1    0    0  501    0  0.00000000000E+00  0.00000000000E+00  0.13017881202E+04  0.13017881202E+04  0.00000000000E+00 0.  1.
         -2   -1    0    0    0  501 -0.00000000000E+00 -0.00000000000E+00 -0.14182713245E+04  0.14182713245E+04  0.00000000000E+00 0. -1.
    2000013    1    1    2    0    0 -0.83855431248E+03 -0.48777877939E+03 -0.63549358432E+01  0.13578077396E+04  0.95000000000E+03 0.  0.
   -2000013    1    1    2    0    0  0.83855431248E+03  0.48777877939E+03 -0.11012826845E+03  0.13622517051E+04  0.95000000000E+03 0.  0.
<mgrwt>
<rscale>  0 0.27175642E+04</rscale>
<asrwt>0</asrwt>
<pdfrwt beam="1">  1        2 0.20027510E+00 0.27175642E+04</pdfrwt>
<pdfrwt beam="2">  1       -2 0.21819559E+00 0.27175642E+04</pdfrwt>
<totfact> 0.14661179E+00</totfact>
</mgrwt>
</event>
<event>
 4    1  0.2019612E-008  0.3295757E+04  0.7816531E-02  0.8163976E-01
         -2   -1    0    0    0  501 -0.00000000000E+00  0.00000000000E+00  0.10536934403E+04  0.10536934403E+04  0.00000000000E+00 0. -1.
          2   -1    0    0  501    0  0.00000000000E+00 -0.00000000000E+00 -0.25771287276E+04  0.25771287276E+04  0.00000000000E+00 0.  1.
    2000013    1    1    2    0    0  0.76660198017E+03 -0.10210558595E+04 -0.29073792093E+03  0.16177954762E+04  0.95000000000E+03 0.  0.
   -2000013    1    1    2    0    0 -0.76660198017E+03  0.10210558595E+04 -0.12326973664E+04  0.20130266916E+04  0.95000000000E+03 0.  0.
<mgrwt>
<rscale>  0 0.32957571E+04</rscale>
<asrwt>0</asrwt>
<pdfrwt beam="2">  1        2 0.39648134E+00 0.32957571E+04</pdfrwt>
<pdfrwt beam="1">  1       -2 0.16210668E+00 0.32957571E+04</pdfrwt>
<totfact> 0.63721965E-01</totfact>
</mgrwt>
</event>
<event>
 4    1  0.2019612E-008  0.3110801E+04  0.7816531E-02  0.8212780E-01
         -2   -1    0    0    0  501 -0.00000000000E+00  0.00000000000E+00  0.85893290692E+03  0.85893290692E+03  0.00000000000E+00 0. -1.
          2   -1    0    0  501    0  0.00000000000E+00 -0.00000000000E+00 -0.28166003279E+04  0.28166003279E+04  0.00000000000E+00 0.  1.
    2000013    1    1    2    0    0  0.56451598050E+01 -0.11765379913E+04 -0.54875151290E+03  0.16086956629E+04  0.95000000000E+03 0.  0.
   -2000013    1    1    2    0    0 -0.56451598050E+01  0.11765379913E+04 -0.14089159081E+04  0.20668375720E+04  0.95000000000E+03 0.  0.
<mgrwt>
<rscale>  0 0.31108010E+04</rscale>
<asrwt>0</asrwt>
<pdfrwt beam="2">  1        2 0.43332312E+00 0.31108010E+04</pdfrwt>
<pdfrwt beam="1">  1       -2 0.13214352E+00 0.31108010E+04</pdfrwt>
<totfact> 0.79812576E-01</totfact>
</mgrwt>
</event>
<event>
 4    1  0.2019612E-008  0.2348799E+04  0.7816531E-02  0.8458925E-01
          2   -1    0    0  501    0  0.00000000000E+00  0.00000000000E+00  0.45529609210E+04  0.45529609210E+04  0.00000000000E+00 0. -1.
         -2   -1    0    0    0  501 -0.00000000000E+00 -0.00000000000E+00 -0.30292685138E+03  0.30292685138E+03  0.00000000000E+00 0.  1.
    2000013    1    1    2    0    0 -0.22083413835E+03 -0.64244814048E+03  0.18700749568E+04  0.22048101219E+04  0.95000000000E+03 0.  0.
   -2000013    1    1    2    0    0  0.22083413835E+03  0.64244814048E+03  0.23799591129E+04  0.26510776505E+04  0.95000000000E+03 0.  0.
<mgrwt>
<rscale>  0 0.23487989E+04</rscale>
<asrwt>0</asrwt>
<pdfrwt beam="1">  1        2 0.70045548E+00 0.23487989E+04</pdfrwt>
<pdfrwt beam="2">  1       -2 0.46604134E-01 0.23487989E+04</pdfrwt>
<totfact> 0.43380261E-01</totfact>
</mgrwt>
</event>
<event>
 4    1  0.2019612E-008  0.2464599E+04  0.7816531E-02  0.8415707E-01
         -2   -1    0    0    0  501 -0.00000000000E+00  0.00000000000E+00  0.16625928213E+04  0.16625928213E+04  0.00000000000E+00 0. -1.
          2   -1    0    0  501    0  0.00000000000E+00 -0.00000000000E+00 -0.91336971228E+03  0.91336971228E+03  0.00000000000E+00 0.  1.
    2000013    1    1    2    0    0 -0.92783352114E+02 -0.68951744830E+03 -0.51502566998E+01  0.11775268944E+04  0.95000000000E+03 0.  0.
   -2000013    1    1    2    0    0  0.92783352114E+02  0.68951744830E+03  0.75437336572E+03  0.13984356392E+04  0.95000000000E+03 0.  0.
<mgrwt>
<rscale>  0 0.24645989E+04</rscale>
<asrwt>0</asrwt>
<pdfrwt beam="2">  1        2 0.14051842E+00 0.24645989E+04</pdfrwt>
<pdfrwt beam="1">  1       -2 0.25578351E+00 0.24645989E+04</pdfrwt>
<totfact> 0.15208855E+00</totfact>
</mgrwt>
</event>
<event>
 4    1  0.2019612E-008  0.1912649E+04  0.7816531E-02  0.8648586E-01
          2   -1    0    0  501    0  0.00000000000E+00  0.00000000000E+00  0.25278788903E+04  0.25278788903E+04  0.00000000000E+00 0.  1.
         -2   -1    0    0    0  501 -0.00000000000E+00 -0.00000000000E+00 -0.36178822996E+03  0.36178822996E+03  0.00000000000E+00 0. -1.
    2000013    1    1    2    0    0 -0.17270694768E+02  0.99194993760E+02  0.11492272374E+04  0.14944434305E+04  0.95000000000E+03 0.  0.
   -2000013    1    1    2    0    0  0.17270694768E+02 -0.99194993760E+02  0.10168634229E+04  0.13952236898E+04  0.95000000000E+03 0.  0.
<mgrwt>
<rscale>  0 0.19126493E+04</rscale>
<asrwt>0</asrwt>
<pdfrwt beam="1">  1        2 0.38890443E+00 0.19126493E+04</pdfrwt>
<pdfrwt beam="2">  1       -2 0.55659729E-01 0.19126493E+04</pdfrwt>
<totfact> 0.95240590E+00</totfact>
</mgrwt>
</event>
<event>
 4    1  0.2019612E-008  0.2639788E+04  0.7816531E-02  0.8354810E-01
          2   -1    0    0  501    0  0.00000000000E+00  0.00000000000E+00  0.92684589577E+03  0.92684589577E+03  0.00000000000E+00 0.  1.
         -2   -1    0    0    0  501 -0.00000000000E+00 -0.00000000000E+00 -0.18796227099E+04  0.18796227099E+04  0.00000000000E+00 0. -1.
    2000013    1    1    2    0    0  0.84332068221E+03 -0.32182429736E+03 -0.30876249710E+03  0.13463264578E+04  0.95000000000E+03 0.  0.
   -2000013    1    1    2    0    0 -0.84332068221E+03  0.32182429736E+03 -0.64401431706E+03  0.14601421479E+04  0.95000000000E+03 0.  0.
<mgrwt>
<rscale>  0 0.26397883E+04</rscale>
<asrwt>0</asrwt>
<pdfrwt beam="1">  1        2 0.14259168E+00 0.26397883E+04</pdfrwt>
<pdfrwt beam="2">  1       -2 0.28917272E+00 0.26397883E+04</pdfrwt>
<totfact> 0.91802590E-01</totfact>
</mgrwt>
</event>
<event>
 4    1  0.2019612E-008  0.2547815E+04  0.7816531E-02  0.8386146E-01
          2   -1    0    0  501    0  0.00000000000E+00  0.00000000000E+00  0.15749972157E+04  0.15749972157E+04  0.00000000000E+00 0.  1.
         -2   -1    0    0    0  501 -0.00000000000E+00 -0.00000000000E+00 -0.10303768011E+04  0.10303768011E+04  0.00000000000E+00 0. -1.
    2000013    1    1    2    0    0  0.79332738086E+03 -0.29836116411E+03  0.22712051177E+03  0.12932406753E+04  0.95000000000E+03 0.  0.
   -2000013    1    1    2    0    0 -0.79332738086E+03  0.29836116411E+03  0.31749990290E+03  0.13121333415E+04  0.95000000000E+03 0.  0.
<mgrwt>
<rscale>  0 0.25478152E+04</rscale>
<asrwt>0</asrwt>
<pdfrwt beam="1">  1        2 0.24230726E+00 0.25478152E+04</pdfrwt>
<pdfrwt beam="2">  1       -2 0.15851951E+00 0.25478152E+04</pdfrwt>
<totfact> 0.26438309E+00</totfact>
</mgrwt>
</event>
<event>
 4    1  0.2019612E-008  0.2707290E+04  0.7816531E-02  0.8332643E-01
          2   -1    0    0  501    0  0.00000000000E+00  0.00000000000E+00  0.10846588030E+04  0.10846588030E+04  0.00000000000E+00 0.  1.
         -2   -1    0    0    0  501 -0.00000000000E+00 -0.00000000000E+00 -0.16893378576E+04  0.16893378576E+04  0.00000000000E+00 0. -1.
    2000013    1    1    2    0    0  0.63671858682E+03 -0.60754277594E+03  0.10149897204E+03  0.12989691393E+04  0.95000000000E+03 0.  0.
   -2000013    1    1    2    0    0 -0.63671858682E+03  0.60754277594E+03 -0.70617802663E+03  0.14750275213E+04  0.95000000000E+03 0.  0.
<mgrwt>
<rscale>  0 0.27072903E+04</rscale>
<asrwt>0</asrwt>
<pdfrwt beam="1">  1        2 0.16687059E+00 0.27072903E+04</pdfrwt>
<pdfrwt beam="2">  1       -2 0.25989813E+00 0.27072903E+04</pdfrwt>
<totfact> 0.10908317E+00</totfact>
</mgrwt>
</event>
<event>
 4    1  0.2019612E-008  0.2368532E+04  0.7816531E-02  0.8451379E-01
          2   -1    0    0  501    0  0.00000000000E+00  0.00000000000E+00  0.15339584228E+04  0.15339584228E+04  0.00000000000E+00 0.  1.
         -2   -1    0    0    0  501 -0.00000000000E+00 -0.00000000000E+00 -0.91429230203E+03  0.91429230203E+03  0.00000000000E+00 0. -1.
    2000013    1    1    2    0    0 -0.55077131719E+03  0.44118342068E+03  0.26366983908E+03  0.12124411897E+04  0.95000000000E+03 0.  0.
   -2000013    1    1    2    0    0  0.55077131719E+03 -0.44118342068E+03  0.35599628172E+03  0.12358095351E+04  0.95000000000E+03 0.  0.
<mgrwt>
<rscale>  0 0.23685324E+04</rscale>
<asrwt>0</asrwt>
<pdfrwt beam="1">  1        2 0.23599360E+00 0.23685324E+04</pdfrwt>
<pdfrwt beam="2">  1       -2 0.14066036E+00 0.23685324E+04</pdfrwt>
<totfact> 0.38856860E+00</totfact>
</mgrwt>
</event>
<event>
 4    1  0.2019612E-008  0.2635010E+04  0.7816531E-02  0.8356405E-01
          2   -1    0    0  501    0  0.00000000000E+00  0.00000000000E+00  0.11740737482E+04  0.11740737482E+04  0.00000000000E+00 0.  1.
         -2   -1    0    0    0  501 -0.00000000000E+00 -0.00000000000E+00 -0.14784590262E+04  0.14784590262E+04  0.00000000000E+00 0. -1.
    2000013    1    1    2    0    0  0.51021040340E+03 -0.75697090270E+03 -0.15276851148E+03  0.13263324702E+04  0.95000000000E+03 0.  0.
   -2000013    1    1    2    0    0 -0.51021040340E+03  0.75697090270E+03 -0.15161676652E+03  0.13262003043E+04  0.95000000000E+03 0.  0.
<mgrwt>
<rscale>  0 0.26350104E+04</rscale>
<asrwt>0</asrwt>
<pdfrwt beam="1">  1        2 0.18062673E+00 0.26350104E+04</pdfrwt>
<pdfrwt beam="2">  1       -2 0.22745523E+00 0.26350104E+04</pdfrwt>
<totfact> 0.15358177E+00</totfact>
</mgrwt>
</event>
<event>
 4    1  0.2019612E-008  0.2717059E+04  0.7816531E-02  0.8329491E-01
          2   -1    0    0  501    0  0.00000000000E+00  0.00000000000E+00  0.74488146428E+03  0.74488146428E+03  0.00000000000E+00 0.  1.
         -2   -1    0    0    0  501 -0.00000000000E+00 -0.00000000000E+00 -0.24777131794E+04  0.24777131794E+04  0.00000000000E+00 0. -1.
    2000013    1    1    2    0    0 -0.92975430611E+03  0.16478646885E+03 -0.11355886500E+04  0.17560350885E+04  0.95000000000E+03 0.  0.
   -2000013    1    1    2    0    0  0.92975430611E+03 -0.16478646885E+03 -0.59724306512E+03  0.14665595552E+04  0.95000000000E+03 0.  0.
<mgrwt>
<rscale>  0 0.27170592E+04</rscale>
<asrwt>0</asrwt>
<pdfrwt beam="1">  1        2 0.11459715E+00 0.27170592E+04</pdfrwt>
<pdfrwt beam="2">  1       -2 0.38118664E+00 0.27170592E+04</pdfrwt>
<totfact> 0.32603340E-01</totfact>
</mgrwt>
</event>
<event>
 4    1  0.2019612E-008  0.3371925E+04  0.7816531E-02  0.8144831E-01
          2   -1    0    0  501    0  0.00000000000E+00  0.00000000000E+00  0.19148604908E+04  0.19148604908E+04  0.00000000000E+00 0.  1.
         -2   -1    0    0    0  501 -0.00000000000E+00 -0.00000000000E+00 -0.14844263196E+04  0.14844263196E+04  0.00000000000E+00 0. -1.
    2000013    1    1    2    0    0 -0.81608224428E+03 -0.11056079795E+04 -0.13804900094E+02  0.16706435314E+04  0.95000000000E+03 0.  0.
   -2000013    1    1    2    0    0  0.81608224428E+03  0.11056079795E+04  0.44423907122E+03  0.17286432790E+04  0.95000000000E+03 0.  0.
<mgrwt>
<rscale>  0 0.33719249E+04</rscale>
<asrwt>0</asrwt>
<pdfrwt beam="1">  1        2 0.29459392E+00 0.33719249E+04</pdfrwt>
<pdfrwt beam="2">  1       -2 0.22837328E+00 0.33719249E+04</pdfrwt>
<totfact> 0.54153688E-01</totfact>
</mgrwt>
</event>
<event>
 4    1  0.2019612E-008  0.2977535E+04  0.7816531E-02  0.8250175E-01
         -2   -1    0    0    0  501 -0.00000000000E+00  0.00000000000E+00  0.10364925270E+04  0.10364925270E+04  0.00000000000E+00 0. -1.
          2   -1    0    0  501    0  0.00000000000E+00 -0.00000000000E+00 -0.21383930519E+04  0.21383930519E+04  0.00000000000E+00 0.  1.
    2000013    1    1    2    0    0 -0.74707017521E+03  0.72651083748E+03 -0.41812407388E+02  0.14107374387E+04  0.95000000000E+03 0.  0.
   -2000013    1    1    2    0    0  0.74707017521E+03 -0.72651083748E+03 -0.10600881175E+04  0.17641481402E+04  0.95000000000E+03 0.  0.
<mgrwt>
<rscale>  0 0.29775348E+04</rscale>
<asrwt>0</asrwt>
<pdfrwt beam="2">  1        2 0.32898354E+00 0.29775348E+04</pdfrwt>
<pdfrwt beam="1">  1       -2 0.15946039E+00 0.29775348E+04</pdfrwt>
<totfact> 0.12192072E+00</totfact>
</mgrwt>
</event>
<event>
 4    1  0.2019612E-008  0.2916968E+04  0.7816531E-02  0.8267847E-01
          1   -1    0    0  501    0  0.00000000000E+00  0.00000000000E+00  0.16116505139E+04  0.16116505139E+04  0.00000000000E+00 0.  1.
         -1   -1    0    0    0  501 -0.00000000000E+00 -0.00000000000E+00 -0.13198736515E+04  0.13198736515E+04  0.00000000000E+00 0. -1.
    2000013    1    1    2    0    0  0.98222157906E+03 -0.33151492768E+03  0.53513723565E+03  0.15045043166E+04  0.95000000000E+03 0.  0.
   -2000013    1    1    2    0    0 -0.98222157906E+03  0.33151492768E+03 -0.24336037320E+03  0.14270198488E+04  0.95000000000E+03 0.  0.
<mgrwt>
<rscale>  0 0.29169676E+04</rscale>
<asrwt>0</asrwt>
<pdfrwt beam="1">  1        1 0.24794623E+00 0.29169676E+04</pdfrwt>
<pdfrwt beam="2">  1       -1 0.20305749E+00 0.29169676E+04</pdfrwt>
<totfact> 0.67328463E-01</totfact>
</mgrwt>
</event>
<event>
 4    1  0.2019612E-008  0.2253702E+04  0.7816531E-02  0.8496403E-01
         -2   -1    0    0    0  501 -0.00000000000E+00  0.00000000000E+00  0.14170296612E+04  0.14170296612E+04  0.00000000000E+00 0. -1.
          2   -1    0    0  501    0  0.00000000000E+00 -0.00000000000E+00 -0.89609490161E+03  0.89609490161E+03  0.00000000000E+00 0.  1.
    2000013    1    1    2    0    0  0.46570300136E+01  0.58263374612E+03  0.89309278170E+02  0.11180160630E+04  0.95000000000E+03 0.  0.
   -2000013    1    1    2    0    0 -0.46570300136E+01 -0.58263374612E+03  0.43162548146E+03  0.11951084998E+04  0.95000000000E+03 0.  0.
<mgrwt>
<rscale>  0 0.22537019E+04</rscale>
<asrwt>0</asrwt>
<pdfrwt beam="2">  1        2 0.13786075E+00 0.22537019E+04</pdfrwt>
<pdfrwt beam="1">  1       -2 0.21800456E+00 0.22537019E+04</pdfrwt>
<totfact> 0.27311413E+00</totfact>
</mgrwt>
</event>
<event>
 4    1  0.2019612E-008  0.2485714E+04  0.7816531E-02  0.8408093E-01
         -1   -1    0    0    0  501 -0.00000000000E+00  0.00000000000E+00  0.62472719319E+03  0.62472719319E+03  0.00000000000E+00 0. -1.
          1   -1    0    0  501    0  0.00000000000E+00 -0.00000000000E+00 -0.24725895236E+04  0.24725895236E+04  0.00000000000E+00 0.  1.
    2000013    1    1    2    0    0 -0.52836610700E+02 -0.76397408927E+03 -0.12181296731E+04  0.17241774900E+04  0.95000000000E+03 0.  0.
   -2000013    1    1    2    0    0  0.52836610700E+02  0.76397408927E+03 -0.62973265731E+03  0.13731392268E+04  0.95000000000E+03 0.  0.
<mgrwt>
<rscale>  0 0.24857143E+04</rscale>
<asrwt>0</asrwt>
<pdfrwt beam="2">  1        1 0.38039839E+00 0.24857143E+04</pdfrwt>
<pdfrwt beam="1">  1       -1 0.96111875E-01 0.24857143E+04</pdfrwt>
<totfact> 0.13127632E+00</totfact>
</mgrwt>
</event>
<event>
 4    1  0.2019612E-008  0.2204672E+04  0.7816531E-02  0.8516486E-01
         -2   -1    0    0    0  501 -0.00000000000E+00  0.00000000000E+00  0.66565919150E+03  0.66565919150E+03  0.00000000000E+00 0. -1.
          2   -1    0    0  501    0  0.00000000000E+00 -0.00000000000E+00 -0.18254749174E+04  0.18254749174E+04  0.00000000000E+00 0.  1.
    2000013    1    1    2    0    0 -0.52365652573E+03 -0.13059567993E+03 -0.74509780765E+03  0.13224757584E+04  0.95000000000E+03 0.  0.
   -2000013    1    1    2    0    0  0.52365652573E+03  0.13059567993E+03 -0.41471791827E+03  0.11686583505E+04  0.95000000000E+03 0.  0.
<mgrwt>
<rscale>  0 0.22046715E+04</rscale>
<asrwt>0</asrwt>
<pdfrwt beam="2">  1        2 0.28084229E+00 0.22046715E+04</pdfrwt>
<pdfrwt beam="1">  1       -2 0.10240911E+00 0.22046715E+04</pdfrwt>
<totfact> 0.59559364E+00</totfact>
</mgrwt>
</event>
<event>
 4    1  0.2019612E-008  0.2824339E+04  0.7816531E-02  0.8295752E-01
         -1   -1    0    0    0  501 -0.00000000000E+00  0.00000000000E+00  0.12051425144E+04  0.12051425144E+04  0.00000000000E+00 0.  1.
          1   -1    0    0  501    0  0.00000000000E+00 -0.00000000000E+00 -0.16547604474E+04  0.16547604474E+04  0.00000000000E+00 0. -1.
    2000013    1    1    2    0    0  0.33350636353E+03 -0.98252324164E+03 -0.34941849910E+03  0.14495418940E+04  0.95000000000E+03 0.  0.
   -2000013    1    1    2    0    0 -0.33350636353E+03  0.98252324164E+03 -0.10019943388E+03  0.14103610678E+04  0.95000000000E+03 0.  0.
<mgrwt>
<rscale>  0 0.28243386E+04</rscale>
<asrwt>0</asrwt>
<pdfrwt beam="2">  1        1 0.25457853E+00 0.28243386E+04</pdfrwt>
<pdfrwt beam="1">  1       -1 0.18540654E+00 0.28243386E+04</pdfrwt>
<totfact> 0.84188392E-01</totfact>
</mgrwt>
</event>
<event>
 4    1  0.2019612E-008  0.2065526E+04  0.7816531E-02  0.8576583E-01
          2   -1    0    0  501    0  0.00000000000E+00  0.00000000000E+00  0.18802122417E+04  0.18802122417E+04  0.00000000000E+00 0.  1.
         -2   -1    0    0    0  501 -0.00000000000E+00 -0.00000000000E+00 -0.56727612169E+03  0.56727612169E+03  0.00000000000E+00 0. -1.
    2000013    1    1    2    0    0  0.33838232032E+02 -0.35028141939E+03  0.41872225421E+03  0.10962072910E+04  0.95000000000E+03 0.  0.
   -2000013    1    1    2    0    0 -0.33838232032E+02  0.35028141939E+03  0.89421386579E+03  0.13512810723E+04  0.95000000000E+03 0.  0.
<mgrwt>
<rscale>  0 0.20655261E+04</rscale>
<asrwt>0</asrwt>
<pdfrwt beam="1">  1        2 0.28926342E+00 0.20655261E+04</pdfrwt>
<pdfrwt beam="2">  1       -2 0.87273250E-01 0.20655261E+04</pdfrwt>
<totfact> 0.81635865E+00</totfact>
</mgrwt>
</event>
<event>
 4    1  0.2019612E-008  0.2788549E+04  0.7816531E-02  0.8306832E-01
         -2   -1    0    0    0  501 -0.00000000000E+00  0.00000000000E+00  0.18368328971E+04  0.18368328971E+04  0.00000000000E+00 0. -1.
          2   -1    0    0  501    0  0.00000000000E+00 -0.00000000000E+00 -0.10583438937E+04  0.10583438937E+04  0.00000000000E+00 0.  1.
    2000013    1    1    2    0    0  0.80270326542E+03  0.44819303920E+03 -0.70744494527E+02  0.13239011731E+04  0.95000000000E+03 0.  0.
   -2000013    1    1    2    0    0 -0.80270326542E+03 -0.44819303920E+03  0.84923349789E+03  0.15712756177E+04  0.95000000000E+03 0.  0.
<mgrwt>
<rscale>  0 0.27885486E+04</rscale>
<asrwt>0</asrwt>
<pdfrwt beam="2">  1        2 0.16282214E+00 0.27885486E+04</pdfrwt>
<pdfrwt beam="1">  1       -2 0.28258968E+00 0.27885486E+04</pdfrwt>
<totfact> 0.81795806E-01</totfact>
</mgrwt>
</event>
<event>
 4    1  0.2019612E-008  0.2798352E+04  0.7816531E-02  0.8303780E-01
          2   -1    0    0  501    0  0.00000000000E+00  0.00000000000E+00  0.99729653754E+03  0.99729653754E+03  0.00000000000E+00 0.  1.
         -2   -1    0    0    0  501 -0.00000000000E+00 -0.00000000000E+00 -0.19630007229E+04  0.19630007229E+04  0.00000000000E+00 0. -1.
    2000013    1    1    2    0    0 -0.26268806787E+02 -0.95039745638E+03 -0.71438717318E+02  0.13459379130E+04  0.95000000000E+03 0.  0.
   -2000013    1    1    2    0    0  0.26268806787E+02  0.95039745638E+03 -0.89426546801E+03  0.16143593474E+04  0.95000000000E+03 0.  0.
<mgrwt>
<rscale>  0 0.27983522E+04</rscale>
<asrwt>0</asrwt>
<pdfrwt beam="1">  1        2 0.15343024E+00 0.27983522E+04</pdfrwt>
<pdfrwt beam="2">  1       -2 0.30200011E+00 0.27983522E+04</pdfrwt>
<totfact> 0.68006138E-01</totfact>
</mgrwt>
</event>
<event>
 4    1  0.2019612E-008  0.2155515E+04  0.7816531E-02  0.8537175E-01
         -1   -1    0    0    0  501 -0.00000000000E+00  0.00000000000E+00  0.85437838272E+03  0.85437838272E+03  0.00000000000E+00 0. -1.
          1   -1    0    0  501    0  0.00000000000E+00 -0.00000000000E+00 -0.13595399314E+04  0.13595399314E+04  0.00000000000E+00 0.  1.
    2000013    1    1    2    0    0 -0.15611171751E+03 -0.48420249845E+03 -0.26844597882E+03  0.11105792054E+04  0.95000000000E+03 0.  0.
   -2000013    1    1    2    0    0  0.15611171751E+03  0.48420249845E+03 -0.23671556982E+03  0.11033391087E+04  0.95000000000E+03 0.  0.
<mgrwt>
<rscale>  0 0.21555153E+04</rscale>
<asrwt>0</asrwt>
<pdfrwt beam="2">  1        1 0.20915999E+00 0.21555153E+04</pdfrwt>
<pdfrwt beam="1">  1       -1 0.13144283E+00 0.21555153E+04</pdfrwt>
<totfact> 0.37035066E+00</totfact>
</mgrwt>
</event>
<event>
 4    1  0.2019612E-008  0.2442440E+04  0.7816531E-02  0.8423783E-01
         -2   -1    0    0    0  501 -0.00000000000E+00  0.00000000000E+00  0.60016600791E+03  0.60016600791E+03  0.00000000000E+00 0. -1.
          2   -1    0    0  501    0  0.00000000000E+00 -0.00000000000E+00 -0.24849431718E+04  0.24849431718E+04  0.00000000000E+00 0.  1.
    2000013    1    1    2    0    0 -0.39920722971E+03  0.64926725908E+03 -0.10551117684E+04  0.16114202524E+04  0.95000000000E+03 0.  0.
   -2000013    1    1    2    0    0  0.39920722971E+03 -0.64926725908E+03 -0.82966539541E+03  0.14736889273E+04  0.95000000000E+03 0.  0.
<mgrwt>
<rscale>  0 0.24424401E+04</rscale>
<asrwt>0</asrwt>
<pdfrwt beam="2">  1        2 0.38229895E+00 0.24424401E+04</pdfrwt>
<pdfrwt beam="1">  1       -2 0.92333232E-01 0.24424401E+04</pdfrwt>
<totfact> 0.31694977E+00</totfact>
</mgrwt>
</event>
<event>
 4    1  0.2019612E-008  0.2715484E+04  0.7816531E-02  0.8329998E-01
         -2   -1    0    0    0  501 -0.00000000000E+00  0.00000000000E+00  0.11021705292E+04  0.11021705292E+04  0.00000000000E+00 0. -1.
          2   -1    0    0  501    0  0.00000000000E+00 -0.00000000000E+00 -0.16725750618E+04  0.16725750618E+04  0.00000000000E+00 0.  1.
    2000013    1    1    2    0    0 -0.94764328559E+03 -0.28492330105E+02 -0.75483485387E+02  0.13442608996E+04  0.95000000000E+03 0.  0.
   -2000013    1    1    2    0    0  0.94764328559E+03  0.28492330105E+02 -0.49492104723E+03  0.14304846915E+04  0.95000000000E+03 0.  0.
<mgrwt>
<rscale>  0 0.27154837E+04</rscale>
<asrwt>0</asrwt>
<pdfrwt beam="2">  1        2 0.25731924E+00 0.27154837E+04</pdfrwt>
<pdfrwt beam="1">  1       -2 0.16956470E+00 0.27154837E+04</pdfrwt>
<totfact> 0.19108694E+00</totfact>
</mgrwt>
</event>
<event>
 4    1  0.2019612E-008  0.2896160E+04  0.7816531E-02  0.8274021E-01
         -2   -1    0    0    0  501 -0.00000000000E+00  0.00000000000E+00  0.18067240064E+04  0.18067240064E+04  0.00000000000E+00 0.  1.
          2   -1    0    0  501    0  0.00000000000E+00 -0.00000000000E+00 -0.11606290175E+04  0.11606290175E+04  0.00000000000E+00 0. -1.
    2000013    1    1    2    0    0  0.11868924806E+03 -0.10863568611E+04  0.30938012827E+03  0.14807006554E+04  0.95000000000E+03 0.  0.
   -2000013    1    1    2    0    0 -0.11868924806E+03  0.10863568611E+04  0.33671486067E+03  0.14866523685E+04  0.95000000000E+03 0.  0.
<mgrwt>
<rscale>  0 0.28961604E+04</rscale>
<asrwt>0</asrwt>
<pdfrwt beam="2">  1        2 0.17855831E+00 0.28961604E+04</pdfrwt>
<pdfrwt beam="1">  1       -2 0.27795754E+00 0.28961604E+04</pdfrwt>
<totfact> 0.74840590E-01</totfact>
</mgrwt>
</event>
<event>
 4    1  0.2019612E-008  0.2760727E+04  0.7816531E-02  0.8315566E-01
          2   -1    0    0  501    0  0.00000000000E+00  0.00000000000E+00  0.30454859164E+04  0.30454859164E+04  0.00000000000E+00 0.  1.
         -2   -1    0    0    0  501 -0.00000000000E+00 -0.00000000000E+00 -0.62564823205E+03  0.62564823205E+03  0.00000000000E+00 0. -1.
    2000013    1    1    2    0    0 -0.61261370715E+02  0.91516081810E+03  0.17445307697E+04  0.21879579258E+04  0.95000000000E+03 0.  0.
   -2000013    1    1    2    0    0  0.61261370715E+02 -0.91516081810E+03  0.67530691462E+03  0.14831762227E+04  0.95000000000E+03 0.  0.
<mgrwt>
<rscale>  0 0.27607266E+04</rscale>
<asrwt>0</asrwt>
<pdfrwt beam="1">  1        2 0.46853629E+00 0.27607266E+04</pdfrwt>
<pdfrwt beam="2">  1       -2 0.96253576E-01 0.27607266E+04</pdfrwt>
<totfact> 0.12855705E+00</totfact>
</mgrwt>
</event>
<event>
 4    1  0.2019612E-008  0.2020360E+04  0.7816531E-02  0.8597161E-01
         -1   -1    0    0    0  501 -0.00000000000E+00  0.00000000000E+00  0.84780665965E+03  0.84780665965E+03  0.00000000000E+00 0. -1.
          1   -1    0    0  501    0  0.00000000000E+00 -0.00000000000E+00 -0.12036507954E+04  0.12036507954E+04  0.00000000000E+00 0.  1.
    2000013    1    1    2    0    0  0.16067312837E+03  0.30722270476E+02  0.12872547038E+03  0.97253789582E+03  0.95000000000E+03 0.  0.
   -2000013    1    1    2    0    0 -0.16067312837E+03 -0.30722270476E+02 -0.48456960611E+03  0.10789195592E+04  0.95000000000E+03 0.  0.
<mgrwt>
<rscale>  0 0.20203595E+04</rscale>
<asrwt>0</asrwt>
<pdfrwt beam="2">  1        1 0.18517705E+00 0.20203595E+04</pdfrwt>
<pdfrwt beam="1">  1       -1 0.13043179E+00 0.20203595E+04</pdfrwt>
<totfact> 0.49462727E+00</totfact>
</mgrwt>
</event>
<event>
 4    1  0.2019612E-008  0.2136214E+04  0.7816531E-02  0.8545457E-01
         -1   -1    0    0    0  501 -0.00000000000E+00  0.00000000000E+00  0.29598886678E+04  0.29598886678E+04  0.00000000000E+00 0. -1.
          1   -1    0    0  501    0  0.00000000000E+00 -0.00000000000E+00 -0.38543760313E+03  0.38543760313E+03  0.00000000000E+00 0.  1.
    2000013    1    1    2    0    0 -0.13993338825E+03  0.44827221229E+03  0.14962922698E+04  0.18335538951E+04  0.95000000000E+03 0.  0.
   -2000013    1    1    2    0    0  0.13993338825E+03 -0.44827221229E+03  0.10781587948E+04  0.15117723758E+04  0.95000000000E+03 0.  0.
<mgrwt>
<rscale>  0 0.21362138E+04</rscale>
<asrwt>0</asrwt>
<pdfrwt beam="2">  1        1 0.59298095E-01 0.21362138E+04</pdfrwt>
<pdfrwt beam="1">  1       -1 0.45536747E+00 0.21362138E+04</pdfrwt>
<totfact> 0.17169910E-01</totfact>
</mgrwt>
</event>
<event>
 4    1  0.2019612E-008  0.2082358E+04  0.7816531E-02  0.8569055E-01
          2   -1    0    0  501    0  0.00000000000E+00  0.00000000000E+00  0.35671640238E+04  0.35671640238E+04  0.00000000000E+00 0.  1.
         -2   -1    0    0    0  501 -0.00000000000E+00 -0.00000000000E+00 -0.30389795628E+03  0.30389795628E+03  0.00000000000E+00 0. -1.
    2000013    1    1    2    0    0 -0.28637152326E+03 -0.18907861486E+03  0.11620998765E+04  0.15397192910E+04  0.95000000000E+03 0.  0.
   -2000013    1    1    2    0    0  0.28637152326E+03  0.18907861486E+03  0.21011661910E+04  0.23313426891E+04  0.95000000000E+03 0.  0.
<mgrwt>
<rscale>  0 0.20823581E+04</rscale>
<asrwt>0</asrwt>
<pdfrwt beam="1">  1        2 0.54879444E+00 0.20823581E+04</pdfrwt>
<pdfrwt beam="2">  1       -2 0.46753534E-01 0.20823581E+04</pdfrwt>
<totfact> 0.29321810E+00</totfact>
</mgrwt>
</event>
<event>
 4    1  0.2019612E-008  0.3000638E+04  0.7816531E-02  0.8243549E-01
          2   -1    0    0  501    0  0.00000000000E+00  0.00000000000E+00  0.18957841712E+04  0.18957841712E+04  0.00000000000E+00 0.  1.
         -2   -1    0    0    0  501 -0.00000000000E+00 -0.00000000000E+00 -0.11873484309E+04  0.11873484309E+04  0.00000000000E+00 0. -1.
    2000013    1    1    2    0    0  0.11212602259E+04 -0.14598368622E+03  0.62591267709E+03  0.16039957638E+04  0.95000000000E+03 0.  0.
   -2000013    1    1    2    0    0 -0.11212602259E+04  0.14598368622E+03  0.82523063209E+02  0.14791368384E+04  0.95000000000E+03 0.  0.
<mgrwt>
<rscale>  0 0.30006375E+04</rscale>
<asrwt>0</asrwt>
<pdfrwt beam="1">  1        2 0.29165910E+00 0.30006375E+04</pdfrwt>
<pdfrwt beam="2">  1       -2 0.18266899E+00 0.30006375E+04</pdfrwt>
<totfact> 0.11359787E+00</totfact>
</mgrwt>
</event>
<event>
 4    1  0.2019612E-008  0.3260617E+04  0.7816531E-02  0.8172989E-01
          2   -1    0    0  501    0  0.00000000000E+00  0.00000000000E+00  0.18442433012E+04  0.18442433012E+04  0.00000000000E+00 0.  1.
         -2   -1    0    0    0  501 -0.00000000000E+00 -0.00000000000E+00 -0.14411906405E+04  0.14411906405E+04  0.00000000000E+00 0. -1.
    2000013    1    1    2    0    0 -0.25363064456E+02  0.91762965946E+03 -0.76110811139E+03  0.15246222595E+04  0.95000000000E+03 0.  0.
   -2000013    1    1    2    0    0  0.25363064456E+02 -0.91762965946E+03  0.11641607720E+04  0.17608116822E+04  0.95000000000E+03 0.  0.
<mgrwt>
<rscale>  0 0.32606172E+04</rscale>
<asrwt>0</asrwt>
<pdfrwt beam="1">  1        2 0.28372974E+00 0.32606172E+04</pdfrwt>
<pdfrwt beam="2">  1       -2 0.22172164E+00 0.32606172E+04</pdfrwt>
<totfact> 0.65860124E-01</totfact>
</mgrwt>
</event>
<event>
 4    1  0.2019612E-008  0.3287831E+04  0.7816531E-02  0.8165999E-01
         -2   -1    0    0    0  501 -0.00000000000E+00  0.00000000000E+00  0.12154276316E+04  0.12154276316E+04  0.00000000000E+00 0. -1.
          2   -1    0    0  501    0  0.00000000000E+00 -0.00000000000E+00 -0.22234627016E+04  0.22234627016E+04  0.00000000000E+00 0.  1.
    2000013    1    1    2    0    0  0.27704179245E+03 -0.79283827224E+03  0.59028956986E+03  0.13986731058E+04  0.95000000000E+03 0.  0.
   -2000013    1    1    2    0    0 -0.27704179245E+03  0.79283827224E+03 -0.15983246398E+04  0.20402172274E+04  0.95000000000E+03 0.  0.
<mgrwt>
<rscale>  0 0.32878309E+04</rscale>
<asrwt>0</asrwt>
<pdfrwt beam="2">  1        2 0.34207118E+00 0.32878309E+04</pdfrwt>
<pdfrwt beam="1">  1       -2 0.18698887E+00 0.32878309E+04</pdfrwt>
<totfact> 0.68016836E-01</totfact>
</mgrwt>
</event>
<event>
 4    1  0.2019612E-008  0.2262928E+04  0.7816531E-02  0.8492683E-01
          2   -1    0    0  501    0  0.00000000000E+00  0.00000000000E+00  0.18419317926E+04  0.18419317926E+04  0.00000000000E+00 0.  1.
         -2   -1    0    0    0  501 -0.00000000000E+00 -0.00000000000E+00 -0.69503699721E+03  0.69503699721E+03  0.00000000000E+00 0. -1.
    2000013    1    1    2    0    0  0.44228516500E+03  0.22756481375E+03  0.16874915463E+03  0.10855312933E+04  0.95000000000E+03 0.  0.
   -2000013    1    1    2    0    0 -0.44228516500E+03 -0.22756481375E+03  0.97814564080E+03  0.14514374965E+04  0.95000000000E+03 0.  0.
<mgrwt>
<rscale>  0 0.22629280E+04</rscale>
<asrwt>0</asrwt>
<pdfrwt beam="1">  1        2 0.28337412E+00 0.22629280E+04</pdfrwt>
<pdfrwt beam="2">  1       -2 0.10692877E+00 0.22629280E+04</pdfrwt>
<totfact> 0.52326570E+00</totfact>
</mgrwt>
</event>
<event>
 4    1  0.2019612E-008  0.2447232E+04  0.7816531E-02  0.8422029E-01
         -1   -1    0    0    0  501 -0.00000000000E+00  0.00000000000E+00  0.16898393649E+04  0.16898393649E+04  0.00000000000E+00 0. -1.
          1   -1    0    0  501    0  0.00000000000E+00 -0.00000000000E+00 -0.88602275356E+03  0.88602275356E+03  0.00000000000E+00 0.  1.
    2000013    1    1    2    0    0 -0.61366492870E+03  0.43976962587E+03  0.56751258388E+03  0.13396090853E+04  0.95000000000E+03 0.  0.
   -2000013    1    1    2    0    0  0.61366492870E+03 -0.43976962587E+03  0.23630402743E+03  0.12362530331E+04  0.95000000000E+03 0.  0.
<mgrwt>
<rscale>  0 0.24472320E+04</rscale>
<asrwt>0</asrwt>
<pdfrwt beam="2">  1        1 0.13631119E+00 0.24472320E+04</pdfrwt>
<pdfrwt beam="1">  1       -1 0.25997529E+00 0.24472320E+04</pdfrwt>
<totfact> 0.10009626E+00</totfact>
</mgrwt>
</event>
<event>
 4    1  0.2019612E-008  0.2423313E+04  0.7816531E-02  0.8430827E-01
          2   -1    0    0  501    0  0.00000000000E+00  0.00000000000E+00  0.18566693266E+04  0.18566693266E+04  0.00000000000E+00 0.  1.
         -2   -1    0    0    0  501 -0.00000000000E+00 -0.00000000000E+00 -0.79072293953E+03  0.79072293953E+03  0.00000000000E+00 0. -1.
    2000013    1    1    2    0    0  0.56950545844E+03 -0.26819263484E+03  0.98254384383E+03  0.15047113217E+04  0.95000000000E+03 0.  0.
   -2000013    1    1    2    0    0 -0.56950545844E+03  0.26819263484E+03  0.83402543236E+02  0.11426809444E+04  0.95000000000E+03 0.  0.
<mgrwt>
<rscale>  0 0.24233126E+04</rscale>
<asrwt>0</asrwt>
<pdfrwt beam="1">  1        2 0.28564143E+00 0.24233126E+04</pdfrwt>
<pdfrwt beam="2">  1       -2 0.12164968E+00 0.24233126E+04</pdfrwt>
<totfact> 0.36972690E+00</totfact>
</mgrwt>
</event>
<event>
 4    1  0.2019612E-008  0.2528839E+04  0.7816531E-02  0.8392783E-01
          2   -1    0    0  501    0  0.00000000000E+00  0.00000000000E+00  0.11823860449E+04  0.11823860449E+04  0.00000000000E+00 0.  1.
         -2   -1    0    0    0  501 -0.00000000000E+00 -0.00000000000E+00 -0.13521440002E+04  0.13521440002E+04  0.00000000000E+00 0. -1.
    2000013    1    1    2    0    0  0.34264666168E+03 -0.21935437623E+03  0.64527494495E+03  0.12183607149E+04  0.95000000000E+03 0.  0.
   -2000013    1    1    2    0    0 -0.34264666168E+03  0.21935437623E+03 -0.81503290022E+03  0.13161693301E+04  0.95000000000E+03 0.  0.
<mgrwt>
<rscale>  0 0.25288386E+04</rscale>
<asrwt>0</asrwt>
<pdfrwt beam="1">  1        2 0.18190554E+00 0.25288386E+04</pdfrwt>
<pdfrwt beam="2">  1       -2 0.20802215E+00 0.25288386E+04</pdfrwt>
<totfact> 0.20361813E+00</totfact>
</mgrwt>
</event>
<event>
 4    1  0.2019612E-008  0.2647877E+04  0.7816531E-02  0.8352118E-01
          2   -1    0    0  501    0  0.00000000000E+00  0.00000000000E+00  0.28776442117E+04  0.28776442117E+04  0.00000000000E+00 0.  1.
         -2   -1    0    0    0  501 -0.00000000000E+00 -0.00000000000E+00 -0.60911395520E+03  0.60911395520E+03  0.00000000000E+00 0. -1.
    2000013    1    1    2    0    0 -0.82985776399E+03  0.35440830453E+02  0.16616371683E+04  0.20864941984E+04  0.95000000000E+03 0.  0.
   -2000013    1    1    2    0    0  0.82985776399E+03 -0.35440830453E+02  0.60689308818E+03  0.14002639685E+04  0.95000000000E+03 0.  0.
<mgrwt>
<rscale>  0 0.26478771E+04</rscale>
<asrwt>0</asrwt>
<pdfrwt beam="1">  1        2 0.44271449E+00 0.26478771E+04</pdfrwt>
<pdfrwt beam="2">  1       -2 0.93709841E-01 0.26478771E+04</pdfrwt>
<totfact> 0.17576427E+00</totfact>
</mgrwt>
</event>
<event>
 4    1  0.2019612E-008  0.2541877E+04  0.7816531E-02  0.8388217E-01
          2   -1    0    0  501    0  0.00000000000E+00  0.00000000000E+00  0.22803587443E+04  0.22803587443E+04  0.00000000000E+00 0.  1.
         -2   -1    0    0    0  501 -0.00000000000E+00 -0.00000000000E+00 -0.70834667858E+03  0.70834667858E+03  0.00000000000E+00 0. -1.
    2000013    1    1    2    0    0 -0.32065764753E+03  0.72014358971E+03  0.11413902588E+04  0.16812792272E+04  0.95000000000E+03 0.  0.
   -2000013    1    1    2    0    0  0.32065764753E+03 -0.72014358971E+03  0.43062180691E+03  0.13074261957E+04  0.95000000000E+03 0.  0.
<mgrwt>
<rscale>  0 0.25418769E+04</rscale>
<asrwt>0</asrwt>
<pdfrwt beam="1">  1        2 0.35082442E+00 0.25418769E+04</pdfrwt>
<pdfrwt beam="2">  1       -2 0.10897641E+00 0.25418769E+04</pdfrwt>
<totfact> 0.27780454E+00</totfact>
</mgrwt>
</event>
<event>
 4    1  0.2019612E-008  0.3175666E+04  0.7816531E-02  0.8195273E-01
         -2   -1    0    0    0  501 -0.00000000000E+00  0.00000000000E+00  0.54413019867E+03  0.54413019867E+03  0.00000000000E+00 0. -1.
          2   -1    0    0  501    0  0.00000000000E+00 -0.00000000000E+00 -0.46334743558E+04  0.46334743558E+04  0.00000000000E+00 0.  1.
    2000013    1    1    2    0    0  0.12541504885E+04 -0.12183865244E+03 -0.17577253605E+04  0.23621677646E+04  0.95000000000E+03 0.  0.
   -2000013    1    1    2    0    0 -0.12541504885E+04  0.12183865244E+03 -0.23316187967E+04  0.28154367899E+04  0.95000000000E+03 0.  0.
<mgrwt>
<rscale>  0 0.31756658E+04</rscale>
<asrwt>0</asrwt>
<pdfrwt beam="2">  1        2 0.71284219E+00 0.31756658E+04</pdfrwt>
<pdfrwt beam="1">  1       -2 0.83712340E-01 0.31756658E+04</pdfrwt>
<totfact> 0.94725565E-02</totfact>
</mgrwt>
</event>
<event>
 4    1  0.2019612E-008  0.2791582E+04  0.7816531E-02  0.8305887E-01
         -1   -1    0    0    0  501 -0.00000000000E+00  0.00000000000E+00  0.63075335894E+03  0.63075335894E+03  0.00000000000E+00 0.  1.
          1   -1    0    0  501    0  0.00000000000E+00 -0.00000000000E+00 -0.30887381782E+04  0.30887381782E+04  0.00000000000E+00 0. -1.
    2000013    1    1    2    0    0 -0.81841340943E+03  0.58855596340E+03 -0.10000166010E+04  0.17084296395E+04  0.95000000000E+03 0.  0.
   -2000013    1    1    2    0    0  0.81841340943E+03 -0.58855596340E+03 -0.14579682183E+04  0.20110618977E+04  0.95000000000E+03 0.  0.
<mgrwt>
<rscale>  0 0.27915816E+04</rscale>
<asrwt>0</asrwt>
<pdfrwt beam="2">  1        1 0.47519049E+00 0.27915816E+04</pdfrwt>
<pdfrwt beam="1">  1       -1 0.97038977E-01 0.27915816E+04</pdfrwt>
<totfact> 0.45462239E-01</totfact>
</mgrwt>
</event>
<event>
 4    1  0.2019612E-008  0.2131830E+04  0.7816531E-02  0.8547350E-01
         -2   -1    0    0    0  501 -0.00000000000E+00  0.00000000000E+00  0.12703498555E+04  0.12703498555E+04  0.00000000000E+00 0. -1.
          2   -1    0    0  501    0  0.00000000000E+00 -0.00000000000E+00 -0.89437969261E+03  0.89437969261E+03  0.00000000000E+00 0.  1.
    2000013    1    1    2    0    0  0.28884442956E+03 -0.32016281066E+03 -0.33881164851E+02  0.10438310511E+04  0.95000000000E+03 0.  0.
   -2000013    1    1    2    0    0 -0.28884442956E+03  0.32016281066E+03  0.40985132772E+03  0.11208984970E+04  0.95000000000E+03 0.  0.
<mgrwt>
<rscale>  0 0.21318303E+04</rscale>
<asrwt>0</asrwt>
<pdfrwt beam="2">  1        2 0.13759687E+00 0.21318303E+04</pdfrwt>
<pdfrwt beam="1">  1       -2 0.19543844E+00 0.21318303E+04</pdfrwt>
<totfact> 0.38745832E+00</totfact>
</mgrwt>
</event>
<event>
 4    1  0.2019612E-008  0.3201909E+04  0.7816531E-02  0.8188313E-01
          2   -1    0    0  501    0  0.00000000000E+00  0.00000000000E+00  0.23469768367E+04  0.23469768367E+04  0.00000000000E+00 0.  1.
         -2   -1    0    0    0  501 -0.00000000000E+00 -0.00000000000E+00 -0.10920666980E+04  0.10920666980E+04  0.00000000000E+00 0. -1.
    2000013    1    1    2    0    0 -0.95732958148E+03  0.79495990901E+03  0.98708740531E+03  0.18507519364E+04  0.95000000000E+03 0.  0.
   -2000013    1    1    2    0    0  0.95732958148E+03 -0.79495990901E+03  0.26782273345E+03  0.15882915982E+04  0.95000000000E+03 0.  0.
<mgrwt>
<rscale>  0 0.32019090E+04</rscale>
<asrwt>0</asrwt>
<pdfrwt beam="1">  1        2 0.36107336E+00 0.32019090E+04</pdfrwt>
<pdfrwt beam="2">  1       -2 0.16801026E+00 0.32019090E+04</pdfrwt>
<totfact> 0.79035968E-01</totfact>
</mgrwt>
</event>
<event>
 4    1  0.2019612E-008  0.3391712E+04  0.7816531E-02  0.8139943E-01
          3   -1    0    0  501    0  0.00000000000E+00  0.00000000000E+00  0.20237347240E+04  0.20237347240E+04  0.00000000000E+00 0.  1.
         -3   -1    0    0    0  501 -0.00000000000E+00 -0.00000000000E+00 -0.14210989769E+04  0.14210989769E+04  0.00000000000E+00 0. -1.
    2000013    1    1    2    0    0  0.82282260248E+03 -0.95936556552E+03 -0.32148106810E+03  0.16134650293E+04  0.95000000000E+03 0.  0.
   -2000013    1    1    2    0    0 -0.82282260248E+03  0.95936556552E+03  0.92411681522E+03  0.18313686717E+04  0.95000000000E+03 0.  0.
<mgrwt>
<rscale>  0 0.33917119E+04</rscale>
<asrwt>0</asrwt>
<pdfrwt beam="1">  1        3 0.31134380E+00 0.33917119E+04</pdfrwt>
<pdfrwt beam="2">  1       -3 0.21863061E+00 0.33917119E+04</pdfrwt>
<totfact> 0.80579962E-03</totfact>
</mgrwt>
</event>
<event>
 4    1  0.2019612E-008  0.2648844E+04  0.7816531E-02  0.8351797E-01
          2   -1    0    0  501    0  0.00000000000E+00  0.00000000000E+00  0.14366768155E+04  0.14366768155E+04  0.00000000000E+00 0.  1.
         -2   -1    0    0    0  501 -0.00000000000E+00 -0.00000000000E+00 -0.12209382802E+04  0.12209382802E+04  0.00000000000E+00 0. -1.
    2000013    1    1    2    0    0 -0.44285884365E+03  0.10337177962E+02  0.92009476391E+03  0.13947419787E+04  0.95000000000E+03 0.  0.
   -2000013    1    1    2    0    0  0.44285884365E+03 -0.10337177962E+02 -0.70435622869E+03  0.12628731170E+04  0.95000000000E+03 0.  0.
<mgrwt>
<rscale>  0 0.26488441E+04</rscale>
<asrwt>0</asrwt>
<pdfrwt beam="1">  1        2 0.22102720E+00 0.26488441E+04</pdfrwt>
<pdfrwt beam="2">  1       -2 0.18783666E+00 0.26488441E+04</pdfrwt>
<totfact> 0.19474255E+00</totfact>
</mgrwt>
</event>
<event>
 4    1  0.2019612E-008  0.2349140E+04  0.7816531E-02  0.8458794E-01
          2   -1    0    0  501    0  0.00000000000E+00  0.00000000000E+00  0.15550514939E+04  0.15550514939E+04  0.00000000000E+00 0.  1.
         -2   -1    0    0    0  501 -0.00000000000E+00 -0.00000000000E+00 -0.88718241181E+03  0.88718241181E+03  0.00000000000E+00 0. -1.
    2000013    1    1    2    0    0 -0.96125777149E+02  0.68068228184E+03  0.40402898913E+03  0.12402854340E+04  0.95000000000E+03 0.  0.
   -2000013    1    1    2    0    0  0.96125777149E+02 -0.68068228184E+03  0.26384009293E+03  0.12019484716E+04  0.95000000000E+03 0.  0.
<mgrwt>
<rscale>  0 0.23491397E+04</rscale>
<asrwt>0</asrwt>
<pdfrwt beam="1">  1        2 0.23923869E+00 0.23491397E+04</pdfrwt>
<pdfrwt beam="2">  1       -2 0.13648960E+00 0.23491397E+04</pdfrwt>
<totfact> 0.40942470E+00</totfact>
</mgrwt>
</event>
<event>
 4    1  0.2019612E-008  0.2468188E+04  0.7816531E-02  0.8414407E-01
         -2   -1    0    0    0  501 -0.00000000000E+00  0.00000000000E+00  0.40371811861E+03  0.40371811861E+03  0.00000000000E+00 0. -1.
          2   -1    0    0  501    0  0.00000000000E+00 -0.00000000000E+00 -0.37724056835E+04  0.37724056835E+04  0.00000000000E+00 0.  1.
    2000013    1    1    2    0    0  0.44954386620E+03 -0.40052516411E+03 -0.25437267694E+04  0.27812867475E+04  0.95000000000E+03 0.  0.
   -2000013    1    1    2    0    0 -0.44954386620E+03  0.40052516411E+03 -0.82496079555E+03  0.13948370546E+04  0.95000000000E+03 0.  0.
<mgrwt>
<rscale>  0 0.24681884E+04</rscale>
<asrwt>0</asrwt>
<pdfrwt beam="2">  1        2 0.58037010E+00 0.24681884E+04</pdfrwt>
<pdfrwt beam="1">  1       -2 0.62110481E-01 0.24681884E+04</pdfrwt>
<totfact> 0.11119325E+00</totfact>
</mgrwt>
</event>
<event>
 4    1  0.2019612E-008  0.2507315E+04  0.7816531E-02  0.8400384E-01
         -1   -1    0    0    0  501 -0.00000000000E+00  0.00000000000E+00  0.58800405996E+03  0.58800405996E+03  0.00000000000E+00 0. -1.
          1   -1    0    0  501    0  0.00000000000E+00 -0.00000000000E+00 -0.26728675994E+04  0.26728675994E+04  0.00000000000E+00 0.  1.
    2000013    1    1    2    0    0  0.45489423582E+03 -0.61821964773E+03 -0.14103561471E+04  0.18656711287E+04  0.95000000000E+03 0.  0.
   -2000013    1    1    2    0    0 -0.45489423582E+03  0.61821964773E+03 -0.67450739235E+03  0.13952005307E+04  0.95000000000E+03 0.  0.
<mgrwt>
<rscale>  0 0.25073149E+04</rscale>
<asrwt>0</asrwt>
<pdfrwt beam="2">  1        1 0.41121040E+00 0.25073149E+04</pdfrwt>
<pdfrwt beam="1">  1       -1 0.90462164E-01 0.25073149E+04</pdfrwt>
<totfact> 0.10872177E+00</totfact>
</mgrwt>
</event>
<event>
 4    1  0.2019612E-008  0.2801037E+04  0.7816531E-02  0.8302946E-01
          2   -1    0    0  501    0  0.00000000000E+00  0.00000000000E+00  0.16537862686E+04  0.16537862686E+04  0.00000000000E+00 0.  1.
         -2   -1    0    0    0  501 -0.00000000000E+00 -0.00000000000E+00 -0.11860375821E+04  0.11860375821E+04  0.00000000000E+00 0. -1.
    2000013    1    1    2    0    0  0.16834634054E+03  0.94617285254E+03 -0.13914579377E+03  0.13584716078E+04  0.95000000000E+03 0.  0.
   -2000013    1    1    2    0    0 -0.16834634054E+03 -0.94617285254E+03  0.60689448030E+03  0.14813522429E+04  0.95000000000E+03 0.  0.
<mgrwt>
<rscale>  0 0.28010374E+04</rscale>
<asrwt>0</asrwt>
<pdfrwt beam="1">  1        2 0.25442866E+00 0.28010374E+04</pdfrwt>
<pdfrwt beam="2">  1       -2 0.18246732E+00 0.28010374E+04</pdfrwt>
<totfact> 0.15789849E+00</totfact>
</mgrwt>
</event>
<event>
 4    1  0.2019612E-008  0.2241328E+04  0.7816531E-02  0.8501421E-01
         -2   -1    0    0    0  501 -0.00000000000E+00  0.00000000000E+00  0.13571621938E+04  0.13571621938E+04  0.00000000000E+00 0. -1.
          2   -1    0    0  501    0  0.00000000000E+00 -0.00000000000E+00 -0.92537771038E+03  0.92537771038E+03  0.00000000000E+00 0.  1.
    2000013    1    1    2    0    0 -0.53984821183E+03 -0.17354007385E+03  0.39759775605E+03  0.11756428984E+04  0.95000000000E+03 0.  0.
   -2000013    1    1    2    0    0  0.53984821183E+03  0.17354007385E+03  0.34186727410E+02  0.11068970058E+04  0.95000000000E+03 0.  0.
<mgrwt>
<rscale>  0 0.22413279E+04</rscale>
<asrwt>0</asrwt>
<pdfrwt beam="2">  1        2 0.14236580E+00 0.22413279E+04</pdfrwt>
<pdfrwt beam="1">  1       -2 0.20879418E+00 0.22413279E+04</pdfrwt>
<totfact> 0.29928538E+00</totfact>
</mgrwt>
</event>
<event>
 4    1  0.2019612E-008  0.2203620E+04  0.7816531E-02  0.8516923E-01
         -2   -1    0    0    0  501 -0.00000000000E+00  0.00000000000E+00  0.13245995561E+04  0.13245995561E+04  0.00000000000E+00 0. -1.
          2   -1    0    0  501    0  0.00000000000E+00 -0.00000000000E+00 -0.91649229716E+03  0.91649229716E+03  0.00000000000E+00 0.  1.
    2000013    1    1    2    0    0 -0.31160326743E+03 -0.40861912656E+03 -0.17408574028E+02  0.10802172214E+04  0.95000000000E+03 0.  0.
   -2000013    1    1    2    0    0  0.31160326743E+03  0.40861912656E+03  0.42551583295E+03  0.11608746319E+04  0.95000000000E+03 0.  0.
<mgrwt>
<rscale>  0 0.22036200E+04</rscale>
<asrwt>0</asrwt>
<pdfrwt beam="2">  1        2 0.14099882E+00 0.22036200E+04</pdfrwt>
<pdfrwt beam="1">  1       -2 0.20378455E+00 0.22036200E+04</pdfrwt>
<totfact> 0.32797548E+00</totfact>
</mgrwt>
</event>
<event>
 4    1  0.2019612E-008  0.2376229E+04  0.7816531E-02  0.8448457E-01
          2   -1    0    0  501    0  0.00000000000E+00  0.00000000000E+00  0.29120721564E+04  0.29120721564E+04  0.00000000000E+00 0.  1.
         -2   -1    0    0    0  501 -0.00000000000E+00 -0.00000000000E+00 -0.48474625484E+03  0.48474625484E+03  0.00000000000E+00 0. -1.
    2000013    1    1    2    0    0 -0.13982323146E+03  0.62985925053E+03  0.16492332851E+04  0.20096625688E+04  0.95000000000E+03 0.  0.
   -2000013    1    1    2    0    0  0.13982323146E+03 -0.62985925053E+03  0.77809261641E+03  0.13871558425E+04  0.95000000000E+03 0.  0.
<mgrwt>
<rscale>  0 0.23762290E+04</rscale>
<asrwt>0</asrwt>
<pdfrwt beam="1">  1        2 0.44801109E+00 0.23762290E+04</pdfrwt>
<pdfrwt beam="2">  1       -2 0.74576349E-01 0.23762290E+04</pdfrwt>
<totfact> 0.28782982E+00</totfact>
</mgrwt>
</event>
<event>
 4    1  0.2019612E-008  0.2413229E+04  0.7816531E-02  0.8434567E-01
          2   -1    0    0  501    0  0.00000000000E+00  0.00000000000E+00  0.24719694524E+04  0.24719694524E+04  0.00000000000E+00 0.  1.
         -2   -1    0    0    0  501 -0.00000000000E+00 -0.00000000000E+00 -0.58897096361E+03  0.58897096361E+03  0.00000000000E+00 0. -1.
    2000013    1    1    2    0    0  0.62490751333E+02 -0.65232569398E+03  0.13881209025E+04  0.18052184203E+04  0.95000000000E+03 0.  0.
   -2000013    1    1    2    0    0 -0.62490751333E+02  0.65232569398E+03  0.49487758624E+03  0.12557219957E+04  0.95000000000E+03 0.  0.
<mgrwt>
<rscale>  0 0.24132287E+04</rscale>
<asrwt>0</asrwt>
<pdfrwt beam="1">  1        2 0.38030299E+00 0.24132287E+04</pdfrwt>
<pdfrwt beam="2">  1       -2 0.90610919E-01 0.24132287E+04</pdfrwt>
<totfact> 0.33767744E+00</totfact>
</mgrwt>
</event>
<event>
 4    1  0.2019612E-008  0.2518671E+04  0.7816531E-02  0.8396364E-01
          2   -1    0    0  501    0  0.00000000000E+00  0.00000000000E+00  0.17500781434E+04  0.17500781434E+04  0.00000000000E+00 0.  1.
         -2   -1    0    0    0  501 -0.00000000000E+00 -0.00000000000E+00 -0.90620304027E+03  0.90620304027E+03  0.00000000000E+00 0. -1.
    2000013    1    1    2    0    0  0.52076427909E+03 -0.45518663342E+03 -0.55610910912E+02  0.11764280169E+04  0.95000000000E+03 0.  0.
   -2000013    1    1    2    0    0 -0.52076427909E+03  0.45518663342E+03  0.89948601400E+03  0.14798531667E+04  0.95000000000E+03 0.  0.
<mgrwt>
<rscale>  0 0.25186712E+04</rscale>
<asrwt>0</asrwt>
<pdfrwt beam="1">  1        2 0.26924279E+00 0.25186712E+04</pdfrwt>
<pdfrwt beam="2">  1       -2 0.13941585E+00 0.25186712E+04</pdfrwt>
<totfact> 0.29743185E+00</totfact>
</mgrwt>
</event>
<event>
 4    1  0.2019612E-008  0.2004632E+04  0.7816531E-02  0.8604458E-01
         -2   -1    0    0    0  501 -0.00000000000E+00  0.00000000000E+00  0.32148257668E+03  0.32148257668E+03  0.00000000000E+00 0. -1.
          2   -1    0    0  501    0  0.00000000000E+00 -0.00000000000E+00 -0.31250130731E+04  0.31250130731E+04  0.00000000000E+00 0.  1.
    2000013    1    1    2    0    0 -0.62470338007E+02 -0.27669906810E+03 -0.11486630151E+04  0.15173633842E+04  0.95000000000E+03 0.  0.
   -2000013    1    1    2    0    0  0.62470338007E+02  0.27669906810E+03 -0.16548674814E+04  0.19291322656E+04  0.95000000000E+03 0.  0.
<mgrwt>
<rscale>  0 0.20046319E+04</rscale>
<asrwt>0</asrwt>
<pdfrwt beam="2">  1        2 0.48077123E+00 0.20046319E+04</pdfrwt>
<pdfrwt beam="1">  1       -2 0.49458860E-01 0.20046319E+04</pdfrwt>
<totfact> 0.52272951E+00</totfact>
</mgrwt>
</event>
<event>
 4    1  0.2019612E-008  0.2160531E+04  0.7816531E-02  0.8535038E-01
          2   -1    0    0  501    0  0.00000000000E+00  0.00000000000E+00  0.12574434181E+04  0.12574434181E+04  0.00000000000E+00 0.  1.
         -2   -1    0    0    0  501 -0.00000000000E+00 -0.00000000000E+00 -0.92805268569E+03  0.92805268569E+03  0.00000000000E+00 0. -1.
    2000013    1    1    2    0    0  0.42828376362E+03 -0.10124106037E+03 -0.10445622229E+03  0.10521824162E+04  0.95000000000E+03 0.  0.
   -2000013    1    1    2    0    0 -0.42828376362E+03  0.10124106037E+03  0.43384695471E+03  0.11333136876E+04  0.95000000000E+03 0.  0.
<mgrwt>
<rscale>  0 0.21605312E+04</rscale>
<asrwt>0</asrwt>
<pdfrwt beam="1">  1        2 0.19345283E+00 0.21605312E+04</pdfrwt>
<pdfrwt beam="2">  1       -2 0.14277734E+00 0.21605312E+04</pdfrwt>
<totfact> 0.54795141E+00</totfact>
</mgrwt>
</event>
<event>
 4    1  0.2019612E-008  0.2383976E+04  0.7816531E-02  0.8445527E-01
         -2   -1    0    0    0  501 -0.00000000000E+00  0.00000000000E+00  0.67696518239E+03  0.67696518239E+03  0.00000000000E+00 0. -1.
          2   -1    0    0  501    0  0.00000000000E+00 -0.00000000000E+00 -0.20988305848E+04  0.20988305848E+04  0.00000000000E+00 0.  1.
    2000013    1    1    2    0    0  0.34423521623E+03 -0.61508670609E+03 -0.54018206077E+03  0.13004330813E+04  0.95000000000E+03 0.  0.
   -2000013    1    1    2    0    0 -0.34423521623E+03  0.61508670609E+03 -0.88168334165E+03  0.14753626859E+04  0.95000000000E+03 0.  0.
<mgrwt>
<rscale>  0 0.23839759E+04</rscale>
<asrwt>0</asrwt>
<pdfrwt beam="2">  1        2 0.32289701E+00 0.23839759E+04</pdfrwt>
<pdfrwt beam="1">  1       -2 0.10414849E+00 0.23839759E+04</pdfrwt>
<totfact> 0.39714989E+00</totfact>
</mgrwt>
</event>
<event>
 4    1  0.2019612E-008  0.2306145E+04  0.7816531E-02  0.8475502E-01
          2   -1    0    0  501    0  0.00000000000E+00  0.00000000000E+00  0.10360746940E+04  0.10360746940E+04  0.00000000000E+00 0.  1.
         -2   -1    0    0    0  501 -0.00000000000E+00 -0.00000000000E+00 -0.12832823636E+04  0.12832823636E+04  0.00000000000E+00 0. -1.
    2000013    1    1    2    0    0 -0.11679368113E+03  0.63524798002E+03 -0.22365047789E+03  0.11703419570E+04  0.95000000000E+03 0.  0.
   -2000013    1    1    2    0    0  0.11679368113E+03 -0.63524798002E+03 -0.23557191656E+02  0.11490151006E+04  0.95000000000E+03 0.  0.
<mgrwt>
<rscale>  0 0.23061452E+04</rscale>
<asrwt>0</asrwt>
<pdfrwt beam="1">  1        2 0.15939611E+00 0.23061452E+04</pdfrwt>
<pdfrwt beam="2">  1       -2 0.19742805E+00 0.23061452E+04</pdfrwt>
<totfact> 0.29929368E+00</totfact>
</mgrwt>
</event>
<event>
 4    1  0.2019612E-008  0.2007561E+04  0.7816531E-02  0.8603094E-01
          2   -1    0    0  501    0  0.00000000000E+00  0.00000000000E+00  0.26370502707E+04  0.26370502707E+04  0.00000000000E+00 0.  1.
         -2   -1    0    0    0  501 -0.00000000000E+00 -0.00000000000E+00 -0.38208438727E+03  0.38208438727E+03  0.00000000000E+00 0. -1.
    2000013    1    1    2    0    0  0.43398888631E+02 -0.21997517943E+03  0.14795428503E+04  0.17725178671E+04  0.95000000000E+03 0.  0.
   -2000013    1    1    2    0    0 -0.43398888631E+02  0.21997517943E+03  0.77542303309E+03  0.12466167909E+04  0.95000000000E+03 0.  0.
<mgrwt>
<rscale>  0 0.20075614E+04</rscale>
<asrwt>0</asrwt>
<pdfrwt beam="1">  1        2 0.40570003E+00 0.20075614E+04</pdfrwt>
<pdfrwt beam="2">  1       -2 0.58782215E-01 0.20075614E+04</pdfrwt>
<totfact> 0.72741443E+00</totfact>
</mgrwt>
</event>
<event>
 4    1  0.2019612E-008  0.2707537E+04  0.7816531E-02  0.8332564E-01
          2   -1    0    0  501    0  0.00000000000E+00  0.00000000000E+00  0.78717571411E+03  0.78717571411E+03  0.00000000000E+00 0.  1.
         -2   -1    0    0    0  501 -0.00000000000E+00 -0.00000000000E+00 -0.23281834209E+04  0.23281834209E+04  0.00000000000E+00 0. -1.
    2000013    1    1    2    0    0 -0.25338553360E+03  0.90269842878E+03 -0.51034874657E+03  0.14289942355E+04  0.95000000000E+03 0.  0.
   -2000013    1    1    2    0    0  0.25338553360E+03 -0.90269842878E+03 -0.10306589602E+04  0.16863648995E+04  0.95000000000E+03 0.  0.
<mgrwt>
<rscale>  0 0.27075372E+04</rscale>
<asrwt>0</asrwt>
<pdfrwt beam="1">  1        2 0.12110396E+00 0.27075372E+04</pdfrwt>
<pdfrwt beam="2">  1       -2 0.35818206E+00 0.27075372E+04</pdfrwt>
<totfact> 0.42615187E-01</totfact>
</mgrwt>
</event>
<event>
 4    1  0.2019612E-008  0.2327898E+04  0.7816531E-02  0.8467002E-01
         -1   -1    0    0    0  501 -0.00000000000E+00  0.00000000000E+00  0.90473495279E+03  0.90473495279E+03  0.00000000000E+00 0.  1.
          1   -1    0    0  501    0  0.00000000000E+00 -0.00000000000E+00 -0.14974304616E+04  0.14974304616E+04  0.00000000000E+00 0. -1.
    2000013    1    1    2    0    0 -0.48100054700E+03  0.46956306570E+03 -0.27503254642E+03  0.11958235240E+04  0.95000000000E+03 0.  0.
   -2000013    1    1    2    0    0  0.48100054700E+03 -0.46956306570E+03 -0.31766296237E+03  0.12063418904E+04  0.95000000000E+03 0.  0.
<mgrwt>
<rscale>  0 0.23278983E+04</rscale>
<asrwt>0</asrwt>
<pdfrwt beam="2">  1        1 0.23037391E+00 0.23278983E+04</pdfrwt>
<pdfrwt beam="1">  1       -1 0.13919000E+00 0.23278983E+04</pdfrwt>
<totfact> 0.25207256E+00</totfact>
</mgrwt>
</event>
<event>
 4    1  0.2019612E-008  0.2796016E+04  0.7816531E-02  0.8304506E-01
         -1   -1    0    0    0  501 -0.00000000000E+00  0.00000000000E+00  0.13137191212E+04  0.13137191212E+04  0.00000000000E+00 0. -1.
          1   -1    0    0  501    0  0.00000000000E+00 -0.00000000000E+00 -0.14877046215E+04  0.14877046215E+04  0.00000000000E+00 0.  1.
    2000013    1    1    2    0    0  0.95211463901E+03  0.95389456642E+02 -0.45690133203E+03  0.14236854503E+04  0.95000000000E+03 0.  0.
   -2000013    1    1    2    0    0 -0.95211463901E+03 -0.95389456642E+02  0.28291583171E+03  0.13777382923E+04  0.95000000000E+03 0.  0.
<mgrwt>
<rscale>  0 0.27960157E+04</rscale>
<asrwt>0</asrwt>
<pdfrwt beam="2">  1        1 0.22887763E+00 0.27960157E+04</pdfrwt>
<pdfrwt beam="1">  1       -1 0.20211063E+00 0.27960157E+04</pdfrwt>
<totfact> 0.84096684E-01</totfact>
</mgrwt>
</event>
<event>
 4    1  0.2019612E-008  0.2380027E+04  0.7816531E-02  0.8447019E-01
          2   -1    0    0  501    0  0.00000000000E+00  0.00000000000E+00  0.14074703642E+04  0.14074703642E+04  0.00000000000E+00 0.  1.
         -2   -1    0    0    0  501 -0.00000000000E+00 -0.00000000000E+00 -0.10061540492E+04  0.10061540492E+04  0.00000000000E+00 0. -1.
    2000013    1    1    2    0    0 -0.57295645965E+03  0.35266451134E+03  0.45108670130E+03  0.12484512703E+04  0.95000000000E+03 0.  0.
   -2000013    1    1    2    0    0  0.57295645965E+03 -0.35266451134E+03 -0.49770386283E+02  0.11651731432E+04  0.95000000000E+03 0.  0.
<mgrwt>
<rscale>  0 0.23800269E+04</rscale>
<asrwt>0</asrwt>
<pdfrwt beam="1">  1        2 0.21653390E+00 0.23800269E+04</pdfrwt>
<pdfrwt beam="2">  1       -2 0.15479293E+00 0.23800269E+04</pdfrwt>
<totfact> 0.35562686E+00</totfact>
</mgrwt>
</event>
<event>
 4    1  0.2019612E-008  0.3119541E+04  0.7816531E-02  0.8210396E-01
         -2   -1    0    0    0  501 -0.00000000000E+00  0.00000000000E+00  0.66213543147E+03  0.66213543147E+03  0.00000000000E+00 0. -1.
          2   -1    0    0  501    0  0.00000000000E+00 -0.00000000000E+00 -0.36742986908E+04  0.36742986908E+04  0.00000000000E+00 0.  1.
    2000013    1    1    2    0    0 -0.70107474931E+02 -0.12341293721E+04 -0.15740821139E+04  0.22154513911E+04  0.95000000000E+03 0.  0.
   -2000013    1    1    2    0    0  0.70107474931E+02  0.12341293721E+04 -0.14380811454E+04  0.21209827311E+04  0.95000000000E+03 0.  0.
<mgrwt>
<rscale>  0 0.31195406E+04</rscale>
<asrwt>0</asrwt>
<pdfrwt beam="2">  1        2 0.56527671E+00 0.31195406E+04</pdfrwt>
<pdfrwt beam="1">  1       -2 0.10186699E+00 0.31195406E+04</pdfrwt>
<totfact> 0.40801104E-01</totfact>
</mgrwt>
</event>
<event>
 4    1  0.2019612E-008  0.3779053E+04  0.7816531E-02  0.8050665E-01
         -2   -1    0    0    0  501 -0.00000000000E+00  0.00000000000E+00  0.15109511274E+04  0.15109511274E+04  0.00000000000E+00 0. -1.
          2   -1    0    0  501    0  0.00000000000E+00 -0.00000000000E+00 -0.23629561309E+04  0.23629561309E+04  0.00000000000E+00 0.  1.
    2000013    1    1    2    0    0 -0.13469321495E+04  0.69085184022E+02  0.51843235106E+03  0.17292400298E+04  0.95000000000E+03 0.  0.
   -2000013    1    1    2    0    0  0.13469321495E+04 -0.69085184022E+02 -0.13704373546E+04  0.21446672285E+04  0.95000000000E+03 0.  0.
<mgrwt>
<rscale>  0 0.37790534E+04</rscale>
<asrwt>0</asrwt>
<pdfrwt beam="2">  1        2 0.36353171E+00 0.37790534E+04</pdfrwt>
<pdfrwt beam="1">  1       -2 0.23245402E+00 0.37790534E+04</pdfrwt>
<totfact> 0.27671591E-01</totfact>
</mgrwt>
</event>
<event>
 4    1  0.2019612E-008  0.2548111E+04  0.7816531E-02  0.8386044E-01
         -2   -1    0    0    0  501 -0.00000000000E+00  0.00000000000E+00  0.92927006619E+03  0.92927006619E+03  0.00000000000E+00 0. -1.
          2   -1    0    0  501    0  0.00000000000E+00 -0.00000000000E+00 -0.17467657821E+04  0.17467657821E+04  0.00000000000E+00 0.  1.
    2000013    1    1    2    0    0 -0.70743142041E+03  0.18085561674E+03 -0.86355912025E+03  0.14769571161E+04  0.95000000000E+03 0.  0.
   -2000013    1    1    2    0    0  0.70743142041E+03 -0.18085561674E+03  0.46063404345E+02  0.11990787322E+04  0.95000000000E+03 0.  0.
<mgrwt>
<rscale>  0 0.25481108E+04</rscale>
<asrwt>0</asrwt>
<pdfrwt beam="2">  1        2 0.26873319E+00 0.25481108E+04</pdfrwt>
<pdfrwt beam="1">  1       -2 0.14296463E+00 0.25481108E+04</pdfrwt>
<totfact> 0.27907026E+00</totfact>
</mgrwt>
</event>
<event>
 4    1  0.2019612E-008  0.4089678E+04  0.7816531E-02  0.7986696E-01
         -2   -1    0    0    0  501 -0.00000000000E+00  0.00000000000E+00  0.24173795290E+04  0.24173795290E+04  0.00000000000E+00 0. -1.
          2   -1    0    0  501    0  0.00000000000E+00 -0.00000000000E+00 -0.17297103043E+04  0.17297103043E+04  0.00000000000E+00 0.  1.
    2000013    1    1    2    0    0 -0.38468599842E+03 -0.17045796995E+04  0.82514615111E+03  0.21533558554E+04  0.95000000000E+03 0.  0.
   -2000013    1    1    2    0    0  0.38468599842E+03  0.17045796995E+04 -0.13747692633E+03  0.19937339779E+04  0.95000000000E+03 0.  0.
<mgrwt>
<rscale>  0 0.40896779E+04</rscale>
<asrwt>0</asrwt>
<pdfrwt beam="2">  1        2 0.26610928E+00 0.40896779E+04</pdfrwt>
<pdfrwt beam="1">  1       -2 0.37190454E+00 0.40896779E+04</pdfrwt>
<totfact> 0.83436290E-02</totfact>
</mgrwt>
</event>
<event>
 4    1  0.2019612E-008  0.2389418E+04  0.7816531E-02  0.8443476E-01
          2   -1    0    0  501    0  0.00000000000E+00  0.00000000000E+00  0.13917373236E+04  0.13917373236E+04  0.00000000000E+00 0.  1.
         -2   -1    0    0    0  501 -0.00000000000E+00 -0.00000000000E+00 -0.10255741600E+04  0.10255741600E+04  0.00000000000E+00 0. -1.
    2000013    1    1    2    0    0 -0.28840824842E+03 -0.13092420546E+03  0.84223132671E+03  0.13085006966E+04  0.95000000000E+03 0.  0.
   -2000013    1    1    2    0    0  0.28840824842E+03  0.13092420546E+03 -0.47606816308E+03  0.11088107869E+04  0.95000000000E+03 0.  0.
<mgrwt>
<rscale>  0 0.23894182E+04</rscale>
<asrwt>0</asrwt>
<pdfrwt beam="1">  1        2 0.21411343E+00 0.23894182E+04</pdfrwt>
<pdfrwt beam="2">  1       -2 0.15778064E+00 0.23894182E+04</pdfrwt>
<totfact> 0.34454367E+00</totfact>
</mgrwt>
</event>
<event>
 4    1  0.2019612E-008  0.2068117E+04  0.7816531E-02  0.8575420E-01
          2   -1    0    0  501    0  0.00000000000E+00  0.00000000000E+00  0.31407584832E+04  0.31407584832E+04  0.00000000000E+00 0.  1.
         -2   -1    0    0    0  501 -0.00000000000E+00 -0.00000000000E+00 -0.34045171290E+03  0.34045171290E+03  0.00000000000E+00 0. -1.
    2000013    1    1    2    0    0 -0.24355762152E+03  0.32666476350E+03  0.13541650545E+04  0.17036118036E+04  0.95000000000E+03 0.  0.
   -2000013    1    1    2    0    0  0.24355762152E+03 -0.32666476350E+03  0.14461417159E+04  0.17775983925E+04  0.95000000000E+03 0.  0.
<mgrwt>
<rscale>  0 0.20681166E+04</rscale>
<asrwt>0</asrwt>
<pdfrwt beam="1">  1        2 0.48319359E+00 0.20681166E+04</pdfrwt>
<pdfrwt beam="2">  1       -2 0.52377189E-01 0.20681166E+04</pdfrwt>
<totfact> 0.45153138E+00</totfact>
</mgrwt>
</event>
<event>
 4    1  0.2019612E-008  0.2979450E+04  0.7816531E-02  0.8249624E-01
          2   -1    0    0  501    0  0.00000000000E+00  0.00000000000E+00  0.19281144407E+04  0.19281144407E+04  0.00000000000E+00 0.  1.
         -2   -1    0    0    0  501 -0.00000000000E+00 -0.00000000000E+00 -0.11510107843E+04  0.11510107843E+04  0.00000000000E+00 0. -1.
    2000013    1    1    2    0    0 -0.11006302210E+04  0.31134988616E+03  0.48357837947E+03  0.15635452293E+04  0.95000000000E+03 0.  0.
   -2000013    1    1    2    0    0  0.11006302210E+04 -0.31134988616E+03  0.29352527694E+03  0.15155799957E+04  0.95000000000E+03 0.  0.
<mgrwt>
<rscale>  0 0.29794500E+04</rscale>
<asrwt>0</asrwt>
<pdfrwt beam="1">  1        2 0.29663299E+00 0.29794500E+04</pdfrwt>
<pdfrwt beam="2">  1       -2 0.17707858E+00 0.29794500E+04</pdfrwt>
<totfact> 0.11935638E+00</totfact>
</mgrwt>
</event>
<event>
 4    1  0.2019612E-008  0.2580019E+04  0.7816531E-02  0.8375020E-01
         -2   -1    0    0    0  501 -0.00000000000E+00  0.00000000000E+00  0.42329966651E+03  0.42329966651E+03  0.00000000000E+00 0. -1.
          2   -1    0    0  501    0  0.00000000000E+00 -0.00000000000E+00 -0.39313160055E+04  0.39313160055E+04  0.00000000000E+00 0.  1.
    2000013    1    1    2    0    0 -0.44964335568E+03 -0.73249870471E+03 -0.20093733564E+04  0.23830263920E+04  0.95000000000E+03 0.  0.
   -2000013    1    1    2    0    0  0.44964335568E+03  0.73249870471E+03 -0.14986429826E+04  0.19715892800E+04  0.95000000000E+03 0.  0.
<mgrwt>
<rscale>  0 0.25800192E+04</rscale>
<asrwt>0</asrwt>
<pdfrwt beam="2">  1        2 0.60481784E+00 0.25800192E+04</pdfrwt>
<pdfrwt beam="1">  1       -2 0.65123027E-01 0.25800192E+04</pdfrwt>
<totfact> 0.74986775E-01</totfact>
</mgrwt>
</event>
<event>
 4    1  0.2019612E-008  0.2971133E+04  0.7816531E-02  0.8252022E-01
          2   -1    0    0  501    0  0.00000000000E+00  0.00000000000E+00  0.21290726031E+04  0.21290726031E+04  0.00000000000E+00 0.  1.
         -2   -1    0    0    0  501 -0.00000000000E+00 -0.00000000000E+00 -0.10365580917E+04  0.10365580917E+04  0.00000000000E+00 0. -1.
    2000013    1    1    2    0    0 -0.10307880487E+04  0.36690004556E+03  0.19729949607E+03  0.14623839222E+04  0.95000000000E+03 0.  0.
   -2000013    1    1    2    0    0  0.10307880487E+04 -0.36690004556E+03  0.89521501527E+03  0.17032467726E+04  0.95000000000E+03 0.  0.
<mgrwt>
<rscale>  0 0.29711327E+04</rscale>
<asrwt>0</asrwt>
<pdfrwt beam="1">  1        2 0.32754963E+00 0.29711327E+04</pdfrwt>
<pdfrwt beam="2">  1       -2 0.15947048E+00 0.29711327E+04</pdfrwt>
<totfact> 0.12343991E+00</totfact>
</mgrwt>
</event>
<event>
 4    1  0.2019612E-008  0.2889182E+04  0.7816531E-02  0.8276103E-01
         -2   -1    0    0    0  501 -0.00000000000E+00  0.00000000000E+00  0.20210426840E+04  0.20210426840E+04  0.00000000000E+00 0.  1.
          2   -1    0    0  501    0  0.00000000000E+00 -0.00000000000E+00 -0.10325576499E+04  0.10325576499E+04  0.00000000000E+00 0. -1.
    2000013    1    1    2    0    0 -0.42689286038E+03  0.91157254407E+03  0.57008020648E+02  0.13852624054E+04  0.95000000000E+03 0.  0.
   -2000013    1    1    2    0    0  0.42689286038E+03 -0.91157254407E+03  0.93147701338E+03  0.16683379285E+04  0.95000000000E+03 0.  0.
<mgrwt>
<rscale>  0 0.28891819E+04</rscale>
<asrwt>0</asrwt>
<pdfrwt beam="2">  1        2 0.15885502E+00 0.28891819E+04</pdfrwt>
<pdfrwt beam="1">  1       -2 0.31092964E+00 0.28891819E+04</pdfrwt>
<totfact> 0.56483014E-01</totfact>
</mgrwt>
</event>
<event>
 4    1  0.2019612E-008  0.3296875E+04  0.7816531E-02  0.8163691E-01
         -2   -1    0    0    0  501 -0.00000000000E+00  0.00000000000E+00  0.17958004399E+04  0.17958004399E+04  0.00000000000E+00 0. -1.
          2   -1    0    0  501    0  0.00000000000E+00 -0.00000000000E+00 -0.15131671244E+04  0.15131671244E+04  0.00000000000E+00 0.  1.
    2000013    1    1    2    0    0 -0.92748967693E+03  0.92393887603E+03 -0.17756876928E+03  0.16272463905E+04  0.95000000000E+03 0.  0.
   -2000013    1    1    2    0    0  0.92748967693E+03 -0.92393887603E+03  0.46020208478E+03  0.16817211738E+04  0.95000000000E+03 0.  0.
<mgrwt>
<rscale>  0 0.32968750E+04</rscale>
<asrwt>0</asrwt>
<pdfrwt beam="2">  1        2 0.23279494E+00 0.32968750E+04</pdfrwt>
<pdfrwt beam="1">  1       -2 0.27627699E+00 0.32968750E+04</pdfrwt>
<totfact> 0.46256416E-01</totfact>
</mgrwt>
</event>
<event>
 4    1  0.2019612E-008  0.2565469E+04  0.7816531E-02  0.8380026E-01
         -1   -1    0    0    0  501 -0.00000000000E+00  0.00000000000E+00  0.98472944559E+03  0.98472944559E+03  0.00000000000E+00 0. -1.
          1   -1    0    0  501    0  0.00000000000E+00 -0.00000000000E+00 -0.16709241117E+04  0.16709241117E+04  0.00000000000E+00 0.  1.
    2000013    1    1    2    0    0 -0.84035760111E+03 -0.10536513026E+03 -0.17745515324E+03  0.12850264744E+04  0.95000000000E+03 0.  0.
   -2000013    1    1    2    0    0  0.84035760111E+03  0.10536513026E+03 -0.50873951284E+03  0.13706270829E+04  0.95000000000E+03 0.  0.
<mgrwt>
<rscale>  0 0.25654693E+04</rscale>
<asrwt>0</asrwt>
<pdfrwt beam="2">  1        1 0.25706524E+00 0.25654693E+04</pdfrwt>
<pdfrwt beam="1">  1       -1 0.15149684E+00 0.25654693E+04</pdfrwt>
<totfact> 0.14969416E+00</totfact>
</mgrwt>
</event>
<event>
 4    1  0.2019612E-008  0.2550797E+04  0.7816531E-02  0.8385109E-01
          2   -1    0    0  501    0  0.00000000000E+00  0.00000000000E+00  0.41674432301E+04  0.41674432301E+04  0.00000000000E+00 0.  1.
         -2   -1    0    0    0  501 -0.00000000000E+00 -0.00000000000E+00 -0.39032121864E+03  0.39032121864E+03  0.00000000000E+00 0. -1.
    2000013    1    1    2    0    0 -0.79124882355E+03  0.31278065437E+03  0.19159568909E+04  0.23015858112E+04  0.95000000000E+03 0.  0.
   -2000013    1    1    2    0    0  0.79124882355E+03 -0.31278065437E+03  0.18611651206E+04  0.22561786376E+04  0.95000000000E+03 0.  0.
<mgrwt>
<rscale>  0 0.25507971E+04</rscale>
<asrwt>0</asrwt>
<pdfrwt beam="1">  1        2 0.64114508E+00 0.25507971E+04</pdfrwt>
<pdfrwt beam="2">  1       -2 0.60049421E-01 0.25507971E+04</pdfrwt>
<totfact> 0.57172154E-01</totfact>
</mgrwt>
</event>
<event>
 4    1  0.2019612E-008  0.2565010E+04  0.7816531E-02  0.8380185E-01
         -2   -1    0    0    0  501 -0.00000000000E+00  0.00000000000E+00  0.56863176861E+03  0.56863176861E+03  0.00000000000E+00 0. -1.
          2   -1    0    0  501    0  0.00000000000E+00 -0.00000000000E+00 -0.28925905555E+04  0.28925905555E+04  0.00000000000E+00 0.  1.
    2000013    1    1    2    0    0  0.56097394594E+03 -0.58475260721E+03 -0.15569905310E+04  0.19958323810E+04  0.95000000000E+03 0.  0.
   -2000013    1    1    2    0    0 -0.56097394594E+03  0.58475260721E+03 -0.76696825590E+03  0.14653899431E+04  0.95000000000E+03 0.  0.
<mgrwt>
<rscale>  0 0.25650099E+04</rscale>
<asrwt>0</asrwt>
<pdfrwt beam="2">  1        2 0.44501393E+00 0.25650099E+04</pdfrwt>
<pdfrwt beam="1">  1       -2 0.87481810E-01 0.25650099E+04</pdfrwt>
<totfact> 0.20317221E+00</totfact>
</mgrwt>
</event>
<event>
 4    1  0.2019612E-008  0.2226123E+04  0.7816531E-02  0.8507633E-01
         -2   -1    0    0    0  501 -0.00000000000E+00  0.00000000000E+00  0.70569036278E+03  0.70569036278E+03  0.00000000000E+00 0. -1.
          2   -1    0    0  501    0  0.00000000000E+00 -0.00000000000E+00 -0.17555940220E+04  0.17555940220E+04  0.00000000000E+00 0.  1.
    2000013    1    1    2    0    0  0.43837555283E+03  0.24296481534E+03 -0.84767814796E+03  0.13683067161E+04  0.95000000000E+03 0.  0.
   -2000013    1    1    2    0    0 -0.43837555283E+03 -0.24296481534E+03 -0.20222551126E+03  0.10929776687E+04  0.95000000000E+03 0.  0.
<mgrwt>
<rscale>  0 0.22261229E+04</rscale>
<asrwt>0</asrwt>
<pdfrwt beam="2">  1        2 0.27009139E+00 0.22261229E+04</pdfrwt>
<pdfrwt beam="1">  1       -2 0.10856775E+00 0.22261229E+04</pdfrwt>
<totfact> 0.56497476E+00</totfact>
</mgrwt>
</event>
<event>
 4    1  0.2019612E-008  0.2037921E+04  0.7816531E-02  0.8589094E-01
         -2   -1    0    0    0  501 -0.00000000000E+00  0.00000000000E+00  0.64580386181E+03  0.64580386181E+03  0.00000000000E+00 0. -1.
          2   -1    0    0  501    0  0.00000000000E+00 -0.00000000000E+00 -0.16077331660E+04  0.16077331660E+04  0.00000000000E+00 0.  1.
    2000013    1    1    2    0    0  0.33872486062E+03 -0.66582482207E+02 -0.33843826477E+03  0.10659306812E+04  0.95000000000E+03 0.  0.
   -2000013    1    1    2    0    0 -0.33872486062E+03  0.66582482207E+02 -0.62349103938E+03  0.11876063465E+04  0.95000000000E+03 0.  0.
<mgrwt>
<rscale>  0 0.20379208E+04</rscale>
<asrwt>0</asrwt>
<pdfrwt beam="2">  1        2 0.24734357E+00 0.20379208E+04</pdfrwt>
<pdfrwt beam="1">  1       -2 0.99354440E-01 0.20379208E+04</pdfrwt>
<totfact> 0.85784226E+00</totfact>
</mgrwt>
</event>
<event>
 4    1  0.2019612E-008  0.3585271E+04  0.7816531E-02  0.8093874E-01
          2   -1    0    0  501    0  0.00000000000E+00  0.00000000000E+00  0.13617852911E+04  0.13617852911E+04  0.00000000000E+00 0.  1.
         -2   -1    0    0    0  501 -0.00000000000E+00 -0.00000000000E+00 -0.23598001625E+04  0.23598001625E+04  0.00000000000E+00 0. -1.
    2000013    1    1    2    0    0 -0.12049500484E+04 -0.75782555522E+03 -0.10530003858E+04  0.20093566144E+04  0.95000000000E+03 0.  0.
   -2000013    1    1    2    0    0  0.12049500484E+04  0.75782555522E+03  0.54985514323E+02  0.17122288393E+04  0.95000000000E+03 0.  0.
<mgrwt>
<rscale>  0 0.35852705E+04</rscale>
<asrwt>0</asrwt>
<pdfrwt beam="1">  1        2 0.20950543E+00 0.35852705E+04</pdfrwt>
<pdfrwt beam="2">  1       -2 0.36304618E+00 0.35852705E+04</pdfrwt>
<totfact> 0.15965440E-01</totfact>
</mgrwt>
</event>
<event>
 4    1  0.2019612E-008  0.3058814E+04  0.7816531E-02  0.8227133E-01
          2   -1    0    0  501    0  0.00000000000E+00  0.00000000000E+00  0.43265021216E+04  0.43265021216E+04  0.00000000000E+00 0.  1.
         -2   -1    0    0    0  501 -0.00000000000E+00 -0.00000000000E+00 -0.54064115552E+03  0.54064115552E+03  0.00000000000E+00 0. -1.
    2000013    1    1    2    0    0 -0.14025430616E+03 -0.11486126440E+04  0.13958206786E+04  0.20468995196E+04  0.95000000000E+03 0.  0.
   -2000013    1    1    2    0    0  0.14025430616E+03  0.11486126440E+04  0.23900402874E+04  0.28202437575E+04  0.95000000000E+03 0.  0.
<mgrwt>
<rscale>  0 0.30588136E+04</rscale>
<asrwt>0</asrwt>
<pdfrwt beam="1">  1        2 0.66561569E+00 0.30588136E+04</pdfrwt>
<pdfrwt beam="2">  1       -2 0.83175565E-01 0.30588136E+04</pdfrwt>
<totfact> 0.19331381E-01</totfact>
</mgrwt>
</event>
<event>
 4    1  0.2019612E-008  0.2633552E+04  0.7816531E-02  0.8356893E-01
          2   -1    0    0  501    0  0.00000000000E+00  0.00000000000E+00  0.24963163582E+04  0.24963163582E+04  0.00000000000E+00 0.  1.
         -2   -1    0    0    0  501 -0.00000000000E+00 -0.00000000000E+00 -0.69458291147E+03  0.69458291147E+03  0.00000000000E+00 0. -1.
    2000013    1    1    2    0    0 -0.85282958149E+03 -0.15217754796E+03  0.55619506662E+03  0.14008316292E+04  0.95000000000E+03 0.  0.
   -2000013    1    1    2    0    0  0.85282958149E+03  0.15217754796E+03  0.12455383801E+04  0.17900676405E+04  0.95000000000E+03 0.  0.
<mgrwt>
<rscale>  0 0.26335517E+04</rscale>
<asrwt>0</asrwt>
<pdfrwt beam="1">  1        2 0.38404867E+00 0.26335517E+04</pdfrwt>
<pdfrwt beam="2">  1       -2 0.10685891E+00 0.26335517E+04</pdfrwt>
<totfact> 0.21740707E+00</totfact>
</mgrwt>
</event>
<event>
 4    1  0.2019612E-008  0.1995302E+04  0.7816531E-02  0.8608821E-01
         -1   -1    0    0    0  501 -0.00000000000E+00  0.00000000000E+00  0.62145556529E+03  0.62145556529E+03  0.00000000000E+00 0. -1.
          1   -1    0    0  501    0  0.00000000000E+00 -0.00000000000E+00 -0.16015739341E+04  0.16015739341E+04  0.00000000000E+00 0.  1.
    2000013    1    1    2    0    0 -0.28108643273E+03 -0.11686808475E+03 -0.50320890098E+03  0.11173123690E+04  0.95000000000E+03 0.  0.
   -2000013    1    1    2    0    0  0.28108643273E+03  0.11686808475E+03 -0.47690946779E+03  0.11057171304E+04  0.95000000000E+03 0.  0.
<mgrwt>
<rscale>  0 0.19953015E+04</rscale>
<asrwt>0</asrwt>
<pdfrwt beam="2">  1        1 0.24639599E+00 0.19953015E+04</pdfrwt>
<pdfrwt beam="1">  1       -1 0.95608549E-01 0.19953015E+04</pdfrwt>
<totfact> 0.54517581E+00</totfact>
</mgrwt>
</event>
<event>
 4    1  0.2019612E-008  0.2952980E+04  0.7816531E-02  0.8257287E-01
          1   -1    0    0  501    0  0.00000000000E+00  0.00000000000E+00  0.10214694916E+04  0.10214694916E+04  0.00000000000E+00 0. -1.
         -1   -1    0    0    0  501 -0.00000000000E+00 -0.00000000000E+00 -0.21342030328E+04  0.21342030328E+04  0.00000000000E+00 0.  1.
    2000013    1    1    2    0    0  0.90517629623E+03  0.21091653206E+03  0.13097169676E+03  0.13354712637E+04  0.95000000000E+03 0.  0.
   -2000013    1    1    2    0    0 -0.90517629623E+03 -0.21091653206E+03 -0.12437052380E+04  0.18202012608E+04  0.95000000000E+03 0.  0.
<mgrwt>
<rscale>  0 0.29529804E+04</rscale>
<asrwt>0</asrwt>
<pdfrwt beam="1">  1        1 0.15714915E+00 0.29529804E+04</pdfrwt>
<pdfrwt beam="2">  1       -1 0.32833892E+00 0.29529804E+04</pdfrwt>
<totfact> 0.26849290E-01</totfact>
</mgrwt>
</event>
<event>
 4    1  0.2019612E-008  0.3441188E+04  0.7816531E-02  0.8127871E-01
          2   -1    0    0  501    0  0.00000000000E+00  0.00000000000E+00  0.29317620485E+04  0.29317620485E+04  0.00000000000E+00 0.  1.
         -2   -1    0    0    0  501 -0.00000000000E+00 -0.00000000000E+00 -0.10097829215E+04  0.10097829215E+04  0.00000000000E+00 0. -1.
    2000013    1    1    2    0    0 -0.10586271513E+04  0.65167230054E+03  0.17810329610E+04  0.23706426641E+04  0.95000000000E+03 0.  0.
   -2000013    1    1    2    0    0  0.10586271513E+04 -0.65167230054E+03  0.14094616600E+03  0.15709023059E+04  0.95000000000E+03 0.  0.
<mgrwt>
<rscale>  0 0.34411877E+04</rscale>
<asrwt>0</asrwt>
<pdfrwt beam="1">  1        2 0.45104031E+00 0.34411877E+04</pdfrwt>
<pdfrwt beam="2">  1       -2 0.15535122E+00 0.34411877E+04</pdfrwt>
<totfact> 0.43235648E-01</totfact>
</mgrwt>
</event>
<event>
 4    1  0.2019612E-008  0.2813228E+04  0.7816531E-02  0.8299173E-01
          2   -1    0    0  501    0  0.00000000000E+00  0.00000000000E+00  0.12564284754E+04  0.12564284754E+04  0.00000000000E+00 0. -1.
         -2   -1    0    0    0  501 -0.00000000000E+00 -0.00000000000E+00 -0.15747514426E+04  0.15747514426E+04  0.00000000000E+00 0.  1.
    2000013    1    1    2    0    0 -0.84660530213E+03  0.34129736049E+03  0.33676924553E+03  0.13598301183E+04  0.95000000000E+03 0.  0.
   -2000013    1    1    2    0    0  0.84660530213E+03 -0.34129736049E+03 -0.65509221279E+03  0.14713497997E+04  0.95000000000E+03 0.  0.
<mgrwt>
<rscale>  0 0.28132277E+04</rscale>
<asrwt>0</asrwt>
<pdfrwt beam="1">  1        2 0.19329669E+00 0.28132277E+04</pdfrwt>
<pdfrwt beam="2">  1       -2 0.24226945E+00 0.28132277E+04</pdfrwt>
<totfact> 0.10930278E+00</totfact>
</mgrwt>
</event>
<event>
 4    1  0.2019612E-008  0.3172765E+04  0.7816531E-02  0.8196047E-01
          2   -1    0    0  501    0  0.00000000000E+00  0.00000000000E+00  0.21092654444E+04  0.21092654444E+04  0.00000000000E+00 0.  1.
         -2   -1    0    0    0  501 -0.00000000000E+00 -0.00000000000E+00 -0.11931213485E+04  0.11931213485E+04  0.00000000000E+00 0. -1.
    2000013    1    1    2    0    0 -0.19721145126E+03  0.84860233902E+03 -0.50441805229E+03  0.13841805727E+04  0.95000000000E+03 0.  0.
   -2000013    1    1    2    0    0  0.19721145126E+03 -0.84860233902E+03  0.14205621482E+04  0.19182062202E+04  0.95000000000E+03 0.  0.
<mgrwt>
<rscale>  0 0.31727651E+04</rscale>
<asrwt>0</asrwt>
<pdfrwt beam="1">  1        2 0.32450238E+00 0.31727651E+04</pdfrwt>
<pdfrwt beam="2">  1       -2 0.18355713E+00 0.31727651E+04</pdfrwt>
<totfact> 0.83989244E-01</totfact>
</mgrwt>
</event>
<event>
 4    1  0.2019612E-008  0.2114341E+04  0.7816531E-02  0.8554952E-01
          2   -1    0    0  501    0  0.00000000000E+00  0.00000000000E+00  0.10414749510E+04  0.10414749510E+04  0.00000000000E+00 0.  1.
         -2   -1    0    0    0  501 -0.00000000000E+00 -0.00000000000E+00 -0.10731024589E+04  0.10731024589E+04  0.00000000000E+00 0. -1.
    2000013    1    1    2    0    0 -0.39580423662E+03 -0.23053517157E+03  0.57008344799E+02  0.10561995126E+04  0.95000000000E+03 0.  0.
   -2000013    1    1    2    0    0  0.39580423662E+03  0.23053517157E+03 -0.88635852746E+02  0.10583778973E+04  0.95000000000E+03 0.  0.
<mgrwt>
<rscale>  0 0.21143409E+04</rscale>
<asrwt>0</asrwt>
<pdfrwt beam="1">  1        2 0.16022692E+00 0.21143409E+04</pdfrwt>
<pdfrwt beam="2">  1       -2 0.16509269E+00 0.21143409E+04</pdfrwt>
<totfact> 0.50422334E+00</totfact>
</mgrwt>
</event>
<event>
 4    1  0.2019612E-008  0.2571254E+04  0.7816531E-02  0.8378032E-01
         -2   -1    0    0    0  501 -0.00000000000E+00  0.00000000000E+00  0.85799661501E+03  0.85799661501E+03  0.00000000000E+00 0.  1.
          2   -1    0    0  501    0  0.00000000000E+00 -0.00000000000E+00 -0.19263906646E+04  0.19263906646E+04  0.00000000000E+00 0. -1.
    2000013    1    1    2    0    0 -0.40938787298E+03  0.18102843604E+03 -0.13372662236E+04  0.17003384010E+04  0.95000000000E+03 0.  0.
   -2000013    1    1    2    0    0  0.40938787298E+03 -0.18102843604E+03  0.26887217401E+03  0.10840488786E+04  0.95000000000E+03 0.  0.
<mgrwt>
<rscale>  0 0.25712539E+04</rscale>
<asrwt>0</asrwt>
<pdfrwt beam="2">  1        2 0.29636779E+00 0.25712539E+04</pdfrwt>
<pdfrwt beam="1">  1       -2 0.13199948E+00 0.25712539E+04</pdfrwt>
<totfact> 0.27197516E+00</totfact>
</mgrwt>
</event>
<event>
 4    1  0.2019612E-008  0.2094384E+04  0.7816531E-02  0.8563721E-01
         -2   -1    0    0    0  501 -0.00000000000E+00  0.00000000000E+00  0.61015875108E+03  0.61015875108E+03  0.00000000000E+00 0. -1.
          2   -1    0    0  501    0  0.00000000000E+00 -0.00000000000E+00 -0.17972547508E+04  0.17972547508E+04  0.00000000000E+00 0.  1.
    2000013    1    1    2    0    0  0.32364988001E+03 -0.25397533092E+03 -0.41231905963E+03  0.11143427303E+04  0.95000000000E+03 0.  0.
   -2000013    1    1    2    0    0 -0.32364988001E+03  0.25397533092E+03 -0.77477694012E+03  0.12930707716E+04  0.95000000000E+03 0.  0.
<mgrwt>
<rscale>  0 0.20943836E+04</rscale>
<asrwt>0</asrwt>
<pdfrwt beam="2">  1        2 0.27650072E+00 0.20943836E+04</pdfrwt>
<pdfrwt beam="1">  1       -2 0.93870580E-01 0.20943836E+04</pdfrwt>
<totfact> 0.76513211E+00</totfact>
</mgrwt>
</event>
<event>
 4    1  0.2019612E-008  0.2507780E+04  0.7816531E-02  0.8400219E-01
         -2   -1    0    0    0  501 -0.00000000000E+00  0.00000000000E+00  0.87197168509E+03  0.87197168509E+03  0.00000000000E+00 0. -1.
          2   -1    0    0  501    0  0.00000000000E+00 -0.00000000000E+00 -0.18030867410E+04  0.18030867410E+04  0.00000000000E+00 0.  1.
    2000013    1    1    2    0    0 -0.24730327334E+03 -0.61174994755E+03 -0.98193869490E+03  0.15172674477E+04  0.95000000000E+03 0.  0.
   -2000013    1    1    2    0    0  0.24730327334E+03  0.61174994755E+03  0.50823638999E+02  0.11577909784E+04  0.95000000000E+03 0.  0.
<mgrwt>
<rscale>  0 0.25077804E+04</rscale>
<asrwt>0</asrwt>
<pdfrwt beam="2">  1        2 0.27739796E+00 0.25077804E+04</pdfrwt>
<pdfrwt beam="1">  1       -2 0.13414949E+00 0.25077804E+04</pdfrwt>
<totfact> 0.30717904E+00</totfact>
</mgrwt>
</event>
<event>
 4    1  0.2019612E-008  0.2618477E+04  0.7816531E-02  0.8361952E-01
         -2   -1    0    0    0  501 -0.00000000000E+00  0.00000000000E+00  0.79228281088E+03  0.79228281088E+03  0.00000000000E+00 0. -1.
          2   -1    0    0  501    0  0.00000000000E+00 -0.00000000000E+00 -0.21635013250E+04  0.21635013250E+04  0.00000000000E+00 0.  1.
    2000013    1    1    2    0    0  0.59996631300E+03  0.67187686030E+03 -0.70260983480E+03  0.14857788099E+04  0.95000000000E+03 0.  0.
   -2000013    1    1    2    0    0 -0.59996631300E+03 -0.67187686030E+03 -0.66860867930E+03  0.14700053259E+04  0.95000000000E+03 0.  0.
<mgrwt>
<rscale>  0 0.26184766E+04</rscale>
<asrwt>0</asrwt>
<pdfrwt beam="2">  1        2 0.33284635E+00 0.26184766E+04</pdfrwt>
<pdfrwt beam="1">  1       -2 0.12188967E+00 0.26184766E+04</pdfrwt>
<totfact> 0.24417897E+00</totfact>
</mgrwt>
</event>
<event>
 4    1  0.2019612E-008  0.2231118E+04  0.7816531E-02  0.8505586E-01
         -2   -1    0    0    0  501 -0.00000000000E+00  0.00000000000E+00  0.68464338120E+03  0.68464338120E+03  0.00000000000E+00 0. -1.
          2   -1    0    0  501    0  0.00000000000E+00 -0.00000000000E+00 -0.18176942885E+04  0.18176942885E+04  0.00000000000E+00 0.  1.
    2000013    1    1    2    0    0 -0.45440045930E+03 -0.19666119071E+03 -0.21754667690E+03  0.10931523032E+04  0.95000000000E+03 0.  0.
   -2000013    1    1    2    0    0  0.45440045930E+03  0.19666119071E+03 -0.91550423043E+03  0.14091853665E+04  0.95000000000E+03 0.  0.
<mgrwt>
<rscale>  0 0.22311184E+04</rscale>
<asrwt>0</asrwt>
<pdfrwt beam="2">  1        2 0.27964527E+00 0.22311184E+04</pdfrwt>
<pdfrwt beam="1">  1       -2 0.10532975E+00 0.22311184E+04</pdfrwt>
<totfact> 0.56112090E+00</totfact>
</mgrwt>
</event>
<event>
 4    1  0.2019612E-008  0.2905533E+04  0.7816531E-02  0.8271233E-01
          1   -1    0    0  501    0  0.00000000000E+00  0.00000000000E+00  0.86289503177E+03  0.86289503177E+03  0.00000000000E+00 0. -1.
         -1   -1    0    0    0  501 -0.00000000000E+00 -0.00000000000E+00 -0.24458719458E+04  0.24458719458E+04  0.00000000000E+00 0.  1.
    2000013    1    1    2    0    0 -0.35172754219E+03  0.94865098522E+03 -0.30250180027E+03  0.14204429925E+04  0.95000000000E+03 0.  0.
   -2000013    1    1    2    0    0  0.35172754219E+03 -0.94865098522E+03 -0.12804751138E+04  0.18883239851E+04  0.95000000000E+03 0.  0.
<mgrwt>
<rscale>  0 0.29055332E+04</rscale>
<asrwt>0</asrwt>
<pdfrwt beam="1">  1        1 0.13275308E+00 0.29055332E+04</pdfrwt>
<pdfrwt beam="2">  1       -1 0.37628800E+00 0.29055332E+04</pdfrwt>
<totfact> 0.17364694E-01</totfact>
</mgrwt>
</event>
<event>
 4    1  0.2019612E-008  0.2284104E+04  0.7816531E-02  0.8484215E-01
         -2   -1    0    0    0  501 -0.00000000000E+00  0.00000000000E+00  0.46787018789E+03  0.46787018789E+03  0.00000000000E+00 0. -1.
          2   -1    0    0  501    0  0.00000000000E+00 -0.00000000000E+00 -0.27877031026E+04  0.27877031026E+04  0.00000000000E+00 0.  1.
    2000013    1    1    2    0    0  0.62813589287E+03 -0.74613936605E+02 -0.12180098932E+04  0.16691824464E+04  0.95000000000E+03 0.  0.
   -2000013    1    1    2    0    0 -0.62813589287E+03  0.74613936605E+02 -0.11018230214E+04  0.15863908440E+04  0.95000000000E+03 0.  0.
<mgrwt>
<rscale>  0 0.22841044E+04</rscale>
<asrwt>0</asrwt>
<pdfrwt beam="2">  1        2 0.42887741E+00 0.22841044E+04</pdfrwt>
<pdfrwt beam="1">  1       -2 0.71980027E-01 0.22841044E+04</pdfrwt>
<totfact> 0.37354969E+00</totfact>
</mgrwt>
</event>
<event>
 4    1  0.2019612E-008  0.2420010E+04  0.7816531E-02  0.8432050E-01
          2   -1    0    0  501    0  0.00000000000E+00  0.00000000000E+00  0.37994337955E+04  0.37994337955E+04  0.00000000000E+00 0. -1.
         -2   -1    0    0    0  501 -0.00000000000E+00 -0.00000000000E+00 -0.38534995635E+03  0.38534995635E+03  0.00000000000E+00 0.  1.
    2000013    1    1    2    0    0 -0.52260246345E+03 -0.27976140711E+03  0.91416604856E+03  0.14455377353E+04  0.95000000000E+03 0.  0.
   -2000013    1    1    2    0    0  0.52260246345E+03  0.27976140711E+03  0.24999177906E+04  0.27392460166E+04  0.95000000000E+03 0.  0.
<mgrwt>
<rscale>  0 0.24200096E+04</rscale>
<asrwt>0</asrwt>
<pdfrwt beam="1">  1        2 0.58452825E+00 0.24200096E+04</pdfrwt>
<pdfrwt beam="2">  1       -2 0.59284611E-01 0.24200096E+04</pdfrwt>
<totfact> 0.11761917E+00</totfact>
</mgrwt>
</event>
<event>
 4    1  0.2019612E-008  0.2651001E+04  0.7816531E-02  0.8351081E-01
          2   -1    0    0  501    0  0.00000000000E+00  0.00000000000E+00  0.11497345983E+04  0.11497345983E+04  0.00000000000E+00 0.  1.
         -2   -1    0    0    0  501 -0.00000000000E+00 -0.00000000000E+00 -0.15281371468E+04  0.15281371468E+04  0.00000000000E+00 0. -1.
    2000013    1    1    2    0    0  0.62674913154E+03 -0.42340981371E+03 -0.72596453788E+03  0.14147843845E+04  0.95000000000E+03 0.  0.
   -2000013    1    1    2    0    0 -0.62674913154E+03  0.42340981371E+03  0.34756198939E+03  0.12630873607E+04  0.95000000000E+03 0.  0.
<mgrwt>
<rscale>  0 0.26510014E+04</rscale>
<asrwt>0</asrwt>
<pdfrwt beam="1">  1        2 0.17688225E+00 0.26510014E+04</pdfrwt>
<pdfrwt beam="2">  1       -2 0.23509802E+00 0.26510014E+04</pdfrwt>
<totfact> 0.14213684E+00</totfact>
</mgrwt>
</event>
<event>
 4    1  0.2019612E-008  0.2718918E+04  0.7816531E-02  0.8328893E-01
         -2   -1    0    0    0  501 -0.00000000000E+00  0.00000000000E+00  0.78799821623E+03  0.78799821623E+03  0.00000000000E+00 0. -1.
          2   -1    0    0  501    0  0.00000000000E+00 -0.00000000000E+00 -0.23453455897E+04  0.23453455897E+04  0.00000000000E+00 0.  1.
    2000013    1    1    2    0    0  0.59625822426E+03  0.45845359885E+03 -0.68342791438E+02  0.12136203317E+04  0.95000000000E+03 0.  0.
   -2000013    1    1    2    0    0 -0.59625822426E+03 -0.45845359885E+03 -0.14890045820E+04  0.19197234742E+04  0.95000000000E+03 0.  0.
<mgrwt>
<rscale>  0 0.27189175E+04</rscale>
<asrwt>0</asrwt>
<pdfrwt beam="2">  1        2 0.36082239E+00 0.27189175E+04</pdfrwt>
<pdfrwt beam="1">  1       -2 0.12123050E+00 0.27189175E+04</pdfrwt>
<totfact> 0.19369180E+00</totfact>
</mgrwt>
</event>
<event>
 4    1  0.2019612E-008  0.2400946E+04  0.7816531E-02  0.8439150E-01
         -2   -1    0    0    0  501 -0.00000000000E+00  0.00000000000E+00  0.10171509136E+04  0.10171509136E+04  0.00000000000E+00 0. -1.
          2   -1    0    0  501    0  0.00000000000E+00 -0.00000000000E+00 -0.14168348608E+04  0.14168348608E+04  0.00000000000E+00 0.  1.
    2000013    1    1    2    0    0  0.15288311135E+03  0.71166775159E+03 -0.29489062065E+03  0.12326007920E+04  0.95000000000E+03 0.  0.
   -2000013    1    1    2    0    0 -0.15288311135E+03 -0.71166775159E+03 -0.10479332652E+03  0.12013849823E+04  0.95000000000E+03 0.  0.
<mgrwt>
<rscale>  0 0.24009455E+04</rscale>
<asrwt>0</asrwt>
<pdfrwt beam="2">  1        2 0.21797459E+00 0.24009455E+04</pdfrwt>
<pdfrwt beam="1">  1       -2 0.15648476E+00 0.24009455E+04</pdfrwt>
<totfact> 0.34053694E+00</totfact>
</mgrwt>
</event>
<event>
 4    1  0.2019612E-008  0.5382638E+04  0.7816531E-02  0.7772048E-01
         -2   -1    0    0    0  501 -0.00000000000E+00  0.00000000000E+00  0.17645462087E+04  0.17645462087E+04  0.00000000000E+00 0. -1.
          2   -1    0    0  501    0  0.00000000000E+00 -0.00000000000E+00 -0.41048495782E+04  0.41048495782E+04  0.00000000000E+00 0.  1.
    2000013    1    1    2    0    0  0.23350488548E+04 -0.97207812618E+02 -0.14793759790E+03  0.25271106121E+04  0.95000000000E+03 0.  0.
   -2000013    1    1    2    0    0 -0.23350488548E+04  0.97207812618E+02 -0.21923657716E+04  0.33422851748E+04  0.95000000000E+03 0.  0.
<mgrwt>
<rscale>  0 0.53826376E+04</rscale>
<asrwt>0</asrwt>
<pdfrwt beam="2">  1        2 0.63151532E+00 0.53826376E+04</pdfrwt>
<pdfrwt beam="1">  1       -2 0.27146865E+00 0.53826376E+04</pdfrwt>
<totfact> 0.93461636E-03</totfact>
</mgrwt>
</event>
<event>
 4    1  0.2019612E-008  0.2363910E+04  0.7816531E-02  0.8453140E-01
         -2   -1    0    0    0  501 -0.00000000000E+00  0.00000000000E+00  0.99112669690E+03  0.99112669690E+03  0.00000000000E+00 0. -1.
          2   -1    0    0  501    0  0.00000000000E+00 -0.00000000000E+00 -0.14095252629E+04  0.14095252629E+04  0.00000000000E+00 0.  1.
    2000013    1    1    2    0    0  0.13296718247E+03 -0.66621728774E+03 -0.24738113957E+02  0.11681770929E+04  0.95000000000E+03 0.  0.
   -2000013    1    1    2    0    0 -0.13296718247E+03  0.66621728774E+03 -0.39366045207E+03  0.12324748669E+04  0.95000000000E+03 0.  0.
<mgrwt>
<rscale>  0 0.23639104E+04</rscale>
<asrwt>0</asrwt>
<pdfrwt beam="2">  1        2 0.21685004E+00 0.23639104E+04</pdfrwt>
<pdfrwt beam="1">  1       -2 0.15248103E+00 0.23639104E+04</pdfrwt>
<totfact> 0.36971593E+00</totfact>
</mgrwt>
</event>
<event>
 4    1  0.2019612E-008  0.3239782E+04  0.7816531E-02  0.8178389E-01
          2   -1    0    0  501    0  0.00000000000E+00  0.00000000000E+00  0.23824361397E+04  0.23824361397E+04  0.00000000000E+00 0.  1.
         -2   -1    0    0    0  501 -0.00000000000E+00 -0.00000000000E+00 -0.11014135795E+04  0.11014135795E+04  0.00000000000E+00 0. -1.
    2000013    1    1    2    0    0 -0.79972021456E+02  0.13029364936E+04  0.49822341452E+03  0.16896051614E+04  0.95000000000E+03 0.  0.
   -2000013    1    1    2    0    0  0.79972021456E+02 -0.13029364936E+04  0.78279914566E+03  0.17942445578E+04  0.95000000000E+03 0.  0.
<mgrwt>
<rscale>  0 0.32397824E+04</rscale>
<asrwt>0</asrwt>
<pdfrwt beam="1">  1        2 0.36652864E+00 0.32397824E+04</pdfrwt>
<pdfrwt beam="2">  1       -2 0.16944824E+00 0.32397824E+04</pdfrwt>
<totfact> 0.73437440E-01</totfact>
</mgrwt>
</event>
<event>
 4    1  0.2019612E-008  0.2900556E+04  0.7816531E-02  0.8272712E-01
         -2   -1    0    0    0  501 -0.00000000000E+00  0.00000000000E+00  0.93636909911E+03  0.93636909911E+03  0.00000000000E+00 0. -1.
          2   -1    0    0  501    0  0.00000000000E+00 -0.00000000000E+00 -0.22462361982E+04  0.22462361982E+04  0.00000000000E+00 0.  1.
    2000013    1    1    2    0    0  0.71572107217E+03  0.40763734888E+03  0.13810692085E+03  0.12649104249E+04  0.95000000000E+03 0.  0.
   -2000013    1    1    2    0    0 -0.71572107217E+03 -0.40763734888E+03 -0.14479740199E+04  0.19176948724E+04  0.95000000000E+03 0.  0.
<mgrwt>
<rscale>  0 0.29005559E+04</rscale>
<asrwt>0</asrwt>
<pdfrwt beam="2">  1        2 0.34557480E+00 0.29005559E+04</pdfrwt>
<pdfrwt beam="1">  1       -2 0.14405679E+00 0.29005559E+04</pdfrwt>
<totfact> 0.13988706E+00</totfact>
</mgrwt>
</event>
<event>
 4    1  0.2019612E-008  0.2523096E+04  0.7816531E-02  0.8394803E-01
         -2   -1    0    0    0  501 -0.00000000000E+00  0.00000000000E+00  0.42588399122E+03  0.42588399122E+03  0.00000000000E+00 0. -1.
          2   -1    0    0  501    0  0.00000000000E+00 -0.00000000000E+00 -0.37369419329E+04  0.37369419329E+04  0.00000000000E+00 0.  1.
    2000013    1    1    2    0    0  0.50585127368E+03  0.21910034793E+03 -0.26794080403E+04  0.28957931418E+04  0.95000000000E+03 0.  0.
   -2000013    1    1    2    0    0 -0.50585127368E+03 -0.21910034793E+03 -0.63164990134E+03  0.12670327823E+04  0.95000000000E+03 0.  0.
<mgrwt>
<rscale>  0 0.25230963E+04</rscale>
<asrwt>0</asrwt>
<pdfrwt beam="2">  1        2 0.57491415E+00 0.25230963E+04</pdfrwt>
<pdfrwt beam="1">  1       -2 0.65520613E-01 0.25230963E+04</pdfrwt>
<totfact> 0.10488352E+00</totfact>
</mgrwt>
</event>
<event>
 4    1  0.2019612E-008  0.2418676E+04  0.7816531E-02  0.8432544E-01
         -2   -1    0    0    0  501 -0.00000000000E+00  0.00000000000E+00  0.60310154846E+03  0.60310154846E+03  0.00000000000E+00 0. -1.
          2   -1    0    0  501    0  0.00000000000E+00 -0.00000000000E+00 -0.24249629432E+04  0.24249629432E+04  0.00000000000E+00 0.  1.
    2000013    1    1    2    0    0 -0.73841001147E+03  0.36995675775E+02 -0.10557510843E+04  0.16011646939E+04  0.95000000000E+03 0.  0.
   -2000013    1    1    2    0    0  0.73841001147E+03 -0.36995675775E+02 -0.76611031051E+03  0.14268997978E+04  0.95000000000E+03 0.  0.
<mgrwt>
<rscale>  0 0.24186764E+04</rscale>
<asrwt>0</asrwt>
<pdfrwt beam="2">  1        2 0.37307122E+00 0.24186764E+04</pdfrwt>
<pdfrwt beam="1">  1       -2 0.92784853E-01 0.24186764E+04</pdfrwt>
<totfact> 0.34003258E+00</totfact>
</mgrwt>
</event>
<event>
 4    1  0.2019612E-008  0.2188935E+04  0.7816531E-02  0.8523048E-01
          2   -1    0    0  501    0  0.00000000000E+00  0.00000000000E+00  0.17624860083E+04  0.17624860083E+04  0.00000000000E+00 0.  1.
         -2   -1    0    0    0  501 -0.00000000000E+00 -0.00000000000E+00 -0.67964185176E+03  0.67964185176E+03  0.00000000000E+00 0. -1.
    2000013    1    1    2    0    0  0.46735505962E+03  0.21590700938E+03  0.73569809784E+03  0.13072062881E+04  0.95000000000E+03 0.  0.
   -2000013    1    1    2    0    0 -0.46735505962E+03 -0.21590700938E+03  0.34714605869E+03  0.11349215720E+04  0.95000000000E+03 0.  0.
<mgrwt>
<rscale>  0 0.21889351E+04</rscale>
<asrwt>0</asrwt>
<pdfrwt beam="1">  1        2 0.27115169E+00 0.21889351E+04</pdfrwt>
<pdfrwt beam="2">  1       -2 0.10456029E+00 0.21889351E+04</pdfrwt>
<totfact> 0.61499874E+00</totfact>
</mgrwt>
</event>
<event>
 4    1  0.2019612E-008  0.2794921E+04  0.7816531E-02  0.8304847E-01
         -2   -1    0    0    0  501 -0.00000000000E+00  0.00000000000E+00  0.13001429413E+04  0.13001429413E+04  0.00000000000E+00 0.  1.
          2   -1    0    0  501    0  0.00000000000E+00 -0.00000000000E+00 -0.15020624355E+04  0.15020624355E+04  0.00000000000E+00 0. -1.
    2000013    1    1    2    0    0 -0.12372855905E+03  0.10000594897E+04  0.86525305246E+02  0.13875930123E+04  0.95000000000E+03 0.  0.
   -2000013    1    1    2    0    0  0.12372855905E+03 -0.10000594897E+04 -0.28844479945E+03  0.14146123644E+04  0.95000000000E+03 0.  0.
<mgrwt>
<rscale>  0 0.27949210E+04</rscale>
<asrwt>0</asrwt>
<pdfrwt beam="2">  1        2 0.23108653E+00 0.27949210E+04</pdfrwt>
<pdfrwt beam="1">  1       -2 0.20002199E+00 0.27949210E+04</pdfrwt>
<totfact> 0.14654030E+00</totfact>
</mgrwt>
</event>
<event>
 4    1  0.2019612E-008  0.2974774E+04  0.7816531E-02  0.8250971E-01
         -2   -1    0    0    0  501 -0.00000000000E+00  0.00000000000E+00  0.20542030244E+04  0.20542030244E+04  0.00000000000E+00 0. -1.
          2   -1    0    0  501    0  0.00000000000E+00 -0.00000000000E+00 -0.10769722275E+04  0.10769722275E+04  0.00000000000E+00 0.  1.
    2000013    1    1    2    0    0 -0.20834033760E+03 -0.93236791357E+03  0.11519086339E+04  0.17725995384E+04  0.95000000000E+03 0.  0.
   -2000013    1    1    2    0    0  0.20834033760E+03  0.93236791357E+03 -0.17467783699E+03  0.13585757135E+04  0.95000000000E+03 0.  0.
<mgrwt>
<rscale>  0 0.29747737E+04</rscale>
<asrwt>0</asrwt>
<pdfrwt beam="2">  1        2 0.16568804E+00 0.29747737E+04</pdfrwt>
<pdfrwt beam="1">  1       -2 0.31603123E+00 0.29747737E+04</pdfrwt>
<totfact> 0.48922016E-01</totfact>
</mgrwt>
</event>
<event>
 4    1  0.2019612E-008  0.2183243E+04  0.7816531E-02  0.8525435E-01
         -2   -1    0    0    0  501 -0.00000000000E+00  0.00000000000E+00  0.84206161884E+03  0.84206161884E+03  0.00000000000E+00 0. -1.
          2   -1    0    0  501    0  0.00000000000E+00 -0.00000000000E+00 -0.14151423539E+04  0.14151423539E+04  0.00000000000E+00 0.  1.
    2000013    1    1    2    0    0 -0.16058491495E+01 -0.23251959424E+03  0.21472373130E+03  0.10013362179E+04  0.95000000000E+03 0.  0.
   -2000013    1    1    2    0    0  0.16058491495E+01  0.23251959424E+03 -0.78780446634E+03  0.12558677548E+04  0.95000000000E+03 0.  0.
<mgrwt>
<rscale>  0 0.21832426E+04</rscale>
<asrwt>0</asrwt>
<pdfrwt beam="2">  1        2 0.21771421E+00 0.21832426E+04</pdfrwt>
<pdfrwt beam="1">  1       -2 0.12954794E+00 0.21832426E+04</pdfrwt>
<totfact> 0.56896611E+00</totfact>
</mgrwt>
</event>
<event>
 4    1  0.2019612E-008  0.2739735E+04  0.7816531E-02  0.8322226E-01
         -2   -1    0    0    0  501 -0.00000000000E+00  0.00000000000E+00  0.14795047563E+04  0.14795047563E+04  0.00000000000E+00 0. -1.
          2   -1    0    0  501    0  0.00000000000E+00 -0.00000000000E+00 -0.12683551481E+04  0.12683551481E+04  0.00000000000E+00 0.  1.
    2000013    1    1    2    0    0  0.45277160273E+03  0.87199984369E+03  0.12284876539E+02  0.13667614166E+04  0.95000000000E+03 0.  0.
   -2000013    1    1    2    0    0 -0.45277160273E+03 -0.87199984369E+03  0.19886473165E+03  0.13810984878E+04  0.95000000000E+03 0.  0.
<mgrwt>
<rscale>  0 0.27397354E+04</rscale>
<asrwt>0</asrwt>
<pdfrwt beam="2">  1        2 0.19513156E+00 0.27397354E+04</pdfrwt>
<pdfrwt beam="1">  1       -2 0.22761612E+00 0.27397354E+04</pdfrwt>
<totfact> 0.13350413E+00</totfact>
</mgrwt>
</event>
<event>
 4    1  0.2019612E-008  0.2421256E+04  0.7816531E-02  0.8431588E-01
         -2   -1    0    0    0  501 -0.00000000000E+00  0.00000000000E+00  0.84583086510E+03  0.84583086510E+03  0.00000000000E+00 0. -1.
          2   -1    0    0  501    0  0.00000000000E+00 -0.00000000000E+00 -0.17327584668E+04  0.17327584668E+04  0.00000000000E+00 0.  1.
    2000013    1    1    2    0    0  0.14920546047E+03  0.72637348109E+03 -0.56600541241E+03  0.13314438893E+04  0.95000000000E+03 0.  0.
   -2000013    1    1    2    0    0 -0.14920546047E+03 -0.72637348109E+03 -0.32092218931E+03  0.12471454426E+04  0.95000000000E+03 0.  0.
<mgrwt>
<rscale>  0 0.24212564E+04</rscale>
<asrwt>0</asrwt>
<pdfrwt beam="2">  1        2 0.26657822E+00 0.24212564E+04</pdfrwt>
<pdfrwt beam="1">  1       -2 0.13012783E+00 0.24212564E+04</pdfrwt>
<totfact> 0.36575096E+00</totfact>
</mgrwt>
</event>
<event>
 4    1  0.2019612E-008  0.2202776E+04  0.7816531E-02  0.8517274E-01
         -2   -1    0    0    0  501 -0.00000000000E+00  0.00000000000E+00  0.10743130141E+04  0.10743130141E+04  0.00000000000E+00 0. -1.
          2   -1    0    0  501    0  0.00000000000E+00 -0.00000000000E+00 -0.11291449182E+04  0.11291449182E+04  0.00000000000E+00 0.  1.
    2000013    1    1    2    0    0 -0.53039824294E+03 -0.21912038870E+02 -0.19703453199E+03  0.11059498363E+04  0.95000000000E+03 0.  0.
   -2000013    1    1    2    0    0  0.53039824294E+03  0.21912038870E+02  0.14220262790E+03  0.10975080961E+04  0.95000000000E+03 0.  0.
<mgrwt>
<rscale>  0 0.22027756E+04</rscale>
<asrwt>0</asrwt>
<pdfrwt beam="2">  1        2 0.17371460E+00 0.22027756E+04</pdfrwt>
<pdfrwt beam="1">  1       -2 0.16527893E+00 0.22027756E+04</pdfrwt>
<totfact> 0.44023255E+00</totfact>
</mgrwt>
</event>
<event>
 4    1  0.2019612E-008  0.2342816E+04  0.7816531E-02  0.8461228E-01
          1   -1    0    0  501    0  0.00000000000E+00  0.00000000000E+00  0.70509138342E+03  0.70509138342E+03  0.00000000000E+00 0.  1.
         -1   -1    0    0    0  501 -0.00000000000E+00 -0.00000000000E+00 -0.19461268070E+04  0.19461268070E+04  0.00000000000E+00 0. -1.
    2000013    1    1    2    0    0 -0.40980818909E+03  0.34236825881E+03 -0.11066457354E+04  0.15531656576E+04  0.95000000000E+03 0.  0.
   -2000013    1    1    2    0    0  0.40980818909E+03 -0.34236825881E+03 -0.13438968824E+03  0.10980525328E+04  0.95000000000E+03 0.  0.
<mgrwt>
<rscale>  0 0.23428165E+04</rscale>
<asrwt>0</asrwt>
<pdfrwt beam="1">  1        1 0.10847560E+00 0.23428165E+04</pdfrwt>
<pdfrwt beam="2">  1       -1 0.29940412E+00 0.23428165E+04</pdfrwt>
<totfact> 0.80869190E-01</totfact>
</mgrwt>
</event>
<event>
 4    1  0.2019612E-008  0.2339368E+04  0.7816531E-02  0.8462558E-01
         -2   -1    0    0    0  501 -0.00000000000E+00  0.00000000000E+00  0.47097214653E+03  0.47097214653E+03  0.00000000000E+00 0. -1.
          2   -1    0    0  501    0  0.00000000000E+00 -0.00000000000E+00 -0.29049724230E+04  0.29049724230E+04  0.00000000000E+00 0.  1.
    2000013    1    1    2    0    0  0.42656337127E+03 -0.34415523372E+03 -0.18036556380E+04  0.21109412107E+04  0.95000000000E+03 0.  0.
   -2000013    1    1    2    0    0 -0.42656337127E+03  0.34415523372E+03 -0.63034463851E+03  0.12650033589E+04  0.95000000000E+03 0.  0.
<mgrwt>
<rscale>  0 0.23393684E+04</rscale>
<asrwt>0</asrwt>
<pdfrwt beam="2">  1        2 0.44691882E+00 0.23393684E+04</pdfrwt>
<pdfrwt beam="1">  1       -2 0.72457256E-01 0.23393684E+04</pdfrwt>
<totfact> 0.31083531E+00</totfact>
</mgrwt>
</event>
<event>
 4    1  0.2019612E-008  0.2756218E+04  0.7816531E-02  0.8316991E-01
          2   -1    0    0  501    0  0.00000000000E+00  0.00000000000E+00  0.17809247864E+04  0.17809247864E+04  0.00000000000E+00 0.  1.
         -2   -1    0    0    0  501 -0.00000000000E+00 -0.00000000000E+00 -0.10664036940E+04  0.10664036940E+04  0.00000000000E+00 0. -1.
    2000013    1    1    2    0    0 -0.88327357552E+03 -0.40287819255E+03  0.59776909398E+03  0.14840185096E+04  0.95000000000E+03 0.  0.
   -2000013    1    1    2    0    0  0.88327357552E+03  0.40287819255E+03  0.11675199849E+03  0.13633099708E+04  0.95000000000E+03 0.  0.
<mgrwt>
<rscale>  0 0.27562183E+04</rscale>
<asrwt>0</asrwt>
<pdfrwt beam="1">  1        2 0.27398843E+00 0.27562183E+04</pdfrwt>
<pdfrwt beam="2">  1       -2 0.16406211E+00 0.27562183E+04</pdfrwt>
<totfact> 0.18161845E+00</totfact>
</mgrwt>
</event>
<event>
 4    1  0.2019612E-008  0.2887683E+04  0.7816531E-02  0.8276551E-01
          2   -1    0    0  501    0  0.00000000000E+00  0.00000000000E+00  0.19653238354E+04  0.19653238354E+04  0.00000000000E+00 0.  1.
         -2   -1    0    0    0  501 -0.00000000000E+00 -0.00000000000E+00 -0.10607303884E+04  0.10607303884E+04  0.00000000000E+00 0. -1.
    2000013    1    1    2    0    0  0.15818752320E+03 -0.99881690879E+03  0.87083481951E+03  0.16381427876E+04  0.95000000000E+03 0.  0.
   -2000013    1    1    2    0    0 -0.15818752320E+03  0.99881690879E+03  0.33758627514E+02  0.13879114362E+04  0.95000000000E+03 0.  0.
<mgrwt>
<rscale>  0 0.28876833E+04</rscale>
<asrwt>0</asrwt>
<pdfrwt beam="1">  1        2 0.30235751E+00 0.28876833E+04</pdfrwt>
<pdfrwt beam="2">  1       -2 0.16318929E+00 0.28876833E+04</pdfrwt>
<totfact> 0.14402364E+00</totfact>
</mgrwt>
</event>
<event>
 4    1  0.2019612E-008  0.2277620E+04  0.7816531E-02  0.8486798E-01
         -2   -1    0    0    0  501 -0.00000000000E+00  0.00000000000E+00  0.10363709872E+04  0.10363709872E+04  0.00000000000E+00 0. -1.
          2   -1    0    0  501    0  0.00000000000E+00 -0.00000000000E+00 -0.12513739573E+04  0.12513739573E+04  0.00000000000E+00 0.  1.
    2000013    1    1    2    0    0  0.56038549141E+03  0.28277213364E+03 -0.87521221864E+02  0.11419947210E+04  0.95000000000E+03 0.  0.
   -2000013    1    1    2    0    0 -0.56038549141E+03 -0.28277213364E+03 -0.12748174828E+03  0.11457502235E+04  0.95000000000E+03 0.  0.
<mgrwt>
<rscale>  0 0.22776195E+04</rscale>
<asrwt>0</asrwt>
<pdfrwt beam="2">  1        2 0.19251907E+00 0.22776195E+04</pdfrwt>
<pdfrwt beam="1">  1       -2 0.15944169E+00 0.22776195E+04</pdfrwt>
<totfact> 0.40781384E+00</totfact>
</mgrwt>
</event>
<event>
 4    1  0.2019612E-008  0.2860608E+04  0.7816531E-02  0.8284695E-01
          2   -1    0    0  501    0  0.00000000000E+00  0.00000000000E+00  0.20840403630E+04  0.20840403630E+04  0.00000000000E+00 0.  1.
         -2   -1    0    0    0  501 -0.00000000000E+00 -0.00000000000E+00 -0.98163595044E+03  0.98163595044E+03  0.00000000000E+00 0. -1.
    2000013    1    1    2    0    0  0.35284671695E+03  0.89551439099E+03  0.52180085364E+02  0.13533918839E+04  0.95000000000E+03 0.  0.
   -2000013    1    1    2    0    0 -0.35284671695E+03 -0.89551439099E+03  0.10502243272E+04  0.17122844295E+04  0.95000000000E+03 0.  0.
<mgrwt>
<rscale>  0 0.28606076E+04</rscale>
<asrwt>0</asrwt>
<pdfrwt beam="1">  1        2 0.32062159E+00 0.28606076E+04</pdfrwt>
<pdfrwt beam="2">  1       -2 0.15102092E+00 0.28606076E+04</pdfrwt>
<totfact> 0.15282436E+00</totfact>
</mgrwt>
</event>
<event>
 4    1  0.2019612E-008  0.2395296E+04  0.7816531E-02  0.8441267E-01
         -2   -1    0    0    0  501 -0.00000000000E+00  0.00000000000E+00  0.16609378012E+04  0.16609378012E+04  0.00000000000E+00 0. -1.
          2   -1    0    0  501    0  0.00000000000E+00 -0.00000000000E+00 -0.86358450676E+03  0.86358450676E+03  0.00000000000E+00 0.  1.
    2000013    1    1    2    0    0 -0.45236600657E+03 -0.46620693048E+03  0.74803571301E+03  0.13726038518E+04  0.95000000000E+03 0.  0.
   -2000013    1    1    2    0    0  0.45236600657E+03  0.46620693048E+03  0.49317581437E+02  0.11519184562E+04  0.95000000000E+03 0.  0.
<mgrwt>
<rscale>  0 0.23952955E+04</rscale>
<asrwt>0</asrwt>
<pdfrwt beam="2">  1        2 0.13285915E+00 0.23952955E+04</pdfrwt>
<pdfrwt beam="1">  1       -2 0.25552889E+00 0.23952955E+04</pdfrwt>
<totfact> 0.16599601E+00</totfact>
</mgrwt>
</event>
<event>
 4    1  0.2019612E-008  0.3025156E+04  0.7816531E-02  0.8236584E-01
          2   -1    0    0  501    0  0.00000000000E+00  0.00000000000E+00  0.14270488912E+04  0.14270488912E+04  0.00000000000E+00 0.  1.
         -2   -1    0    0    0  501 -0.00000000000E+00 -0.00000000000E+00 -0.16032334721E+04  0.16032334721E+04  0.00000000000E+00 0. -1.
    2000013    1    1    2    0    0  0.99025588654E+03 -0.52914431542E+03 -0.44195017276E+03  0.15357149418E+04  0.95000000000E+03 0.  0.
   -2000013    1    1    2    0    0 -0.99025588654E+03  0.52914431542E+03  0.26576559193E+03  0.14945674214E+04  0.95000000000E+03 0.  0.
<mgrwt>
<rscale>  0 0.30251562E+04</rscale>
<asrwt>0</asrwt>
<pdfrwt beam="1">  1        2 0.21954598E+00 0.30251562E+04</pdfrwt>
<pdfrwt beam="2">  1       -2 0.24665130E+00 0.30251562E+04</pdfrwt>
<totfact> 0.80390044E-01</totfact>
</mgrwt>
</event>
<event>
 4    1  0.2019612E-008  0.2325879E+04  0.7816531E-02  0.8467787E-01
         -2   -1    0    0    0  501 -0.00000000000E+00  0.00000000000E+00  0.84087396126E+03  0.84087396126E+03  0.00000000000E+00 0. -1.
          2   -1    0    0  501    0  0.00000000000E+00 -0.00000000000E+00 -0.16083609092E+04  0.16083609092E+04  0.00000000000E+00 0.  1.
    2000013    1    1    2    0    0 -0.67891816050E+02  0.60202980657E+03 -0.80586814420E+02  0.11296209193E+04  0.95000000000E+03 0.  0.
   -2000013    1    1    2    0    0  0.67891816050E+02 -0.60202980657E+03 -0.68690013356E+03  0.13196139512E+04  0.95000000000E+03 0.  0.
<mgrwt>
<rscale>  0 0.23258795E+04</rscale>
<asrwt>0</asrwt>
<pdfrwt beam="2">  1        2 0.24744014E+00 0.23258795E+04</pdfrwt>
<pdfrwt beam="1">  1       -2 0.12936523E+00 0.23258795E+04</pdfrwt>
<totfact> 0.43895275E+00</totfact>
</mgrwt>
</event>
<event>
 4    1  0.2019612E-008  0.3041505E+04  0.7816531E-02  0.8231977E-01
         -2   -1    0    0    0  501 -0.00000000000E+00  0.00000000000E+00  0.12781207322E+04  0.12781207322E+04  0.00000000000E+00 0. -1.
          2   -1    0    0  501    0  0.00000000000E+00 -0.00000000000E+00 -0.18094446248E+04  0.18094446248E+04  0.00000000000E+00 0.  1.
    2000013    1    1    2    0    0 -0.47882534861E+03  0.10564128089E+04 -0.70353517899E+01  0.14992769035E+04  0.95000000000E+03 0.  0.
   -2000013    1    1    2    0    0  0.47882534861E+03 -0.10564128089E+04 -0.52428854078E+03  0.15882884534E+04  0.95000000000E+03 0.  0.
<mgrwt>
<rscale>  0 0.30415053E+04</rscale>
<asrwt>0</asrwt>
<pdfrwt beam="2">  1        2 0.27837610E+00 0.30415053E+04</pdfrwt>
<pdfrwt beam="1">  1       -2 0.19663396E+00 0.30415053E+04</pdfrwt>
<totfact> 0.10181684E+00</totfact>
</mgrwt>
</event>
<event>
 4    1  0.2019612E-008  0.2094943E+04  0.7816531E-02  0.8563474E-01
          2   -1    0    0  501    0  0.00000000000E+00  0.00000000000E+00  0.32870308912E+04  0.32870308912E+04  0.00000000000E+00 0.  1.
         -2   -1    0    0    0  501 -0.00000000000E+00 -0.00000000000E+00 -0.33379554541E+03  0.33379554541E+03  0.00000000000E+00 0. -1.
    2000013    1    1    2    0    0  0.36317012317E+03  0.24901678147E+03  0.15253310093E+04  0.18501450170E+04  0.95000000000E+03 0.  0.
   -2000013    1    1    2    0    0 -0.36317012317E+03 -0.24901678147E+03  0.14279043365E+04  0.17706814197E+04  0.95000000000E+03 0.  0.
<mgrwt>
<rscale>  0 0.20949427E+04</rscale>
<asrwt>0</asrwt>
<pdfrwt beam="1">  1        2 0.50569704E+00 0.20949427E+04</pdfrwt>
<pdfrwt beam="2">  1       -2 0.51353163E-01 0.20949427E+04</pdfrwt>
<totfact> 0.37653321E+00</totfact>
</mgrwt>
</event>
<event>
 4    1  0.2019612E-008  0.2822518E+04  0.7816531E-02  0.8296311E-01
          2   -1    0    0  501    0  0.00000000000E+00  0.00000000000E+00  0.10334187781E+04  0.10334187781E+04  0.00000000000E+00 0.  1.
         -2   -1    0    0    0  501 -0.00000000000E+00 -0.00000000000E+00 -0.19272456238E+04  0.19272456238E+04  0.00000000000E+00 0. -1.
    2000013    1    1    2    0    0 -0.26348567643E+03 -0.52167462825E+03 -0.13538608196E+04  0.17541403131E+04  0.95000000000E+03 0.  0.
   -2000013    1    1    2    0    0  0.26348567643E+03  0.52167462825E+03  0.46003397386E+03  0.12065240887E+04  0.95000000000E+03 0.  0.
<mgrwt>
<rscale>  0 0.28225179E+04</rscale>
<asrwt>0</asrwt>
<pdfrwt beam="1">  1        2 0.15898751E+00 0.28225179E+04</pdfrwt>
<pdfrwt beam="2">  1       -2 0.29649932E+00 0.28225179E+04</pdfrwt>
<totfact> 0.69545055E-01</totfact>
</mgrwt>
</event>
<event>
 4    1  0.2019612E-008  0.2480115E+04  0.7816531E-02  0.8410104E-01
          2   -1    0    0  501    0  0.00000000000E+00  0.00000000000E+00  0.98575862793E+03  0.98575862793E+03  0.00000000000E+00 0.  1.
         -2   -1    0    0    0  501 -0.00000000000E+00 -0.00000000000E+00 -0.15599584345E+04  0.15599584345E+04  0.00000000000E+00 0. -1.
    2000013    1    1    2    0    0 -0.79203057615E+03 -0.76045174508E+02 -0.23953649717E+03  0.12621303560E+04  0.95000000000E+03 0.  0.
   -2000013    1    1    2    0    0  0.79203057615E+03  0.76045174508E+02 -0.33466330935E+03  0.12835867064E+04  0.95000000000E+03 0.  0.
<mgrwt>
<rscale>  0 0.24801149E+04</rscale>
<asrwt>0</asrwt>
<pdfrwt beam="1">  1        2 0.15165517E+00 0.24801149E+04</pdfrwt>
<pdfrwt beam="2">  1       -2 0.23999360E+00 0.24801149E+04</pdfrwt>
<totfact> 0.17024054E+00</totfact>
</mgrwt>
</event>
<event>
 4    1  0.2019612E-008  0.3571362E+04  0.7816531E-02  0.8097083E-01
          1   -1    0    0  501    0  0.00000000000E+00  0.00000000000E+00  0.24408095712E+04  0.24408095712E+04  0.00000000000E+00 0.  1.
         -1   -1    0    0    0  501 -0.00000000000E+00 -0.00000000000E+00 -0.13063932227E+04  0.13063932227E+04  0.00000000000E+00 0. -1.
    2000013    1    1    2    0    0 -0.11242282796E+04 -0.99713470236E+03  0.74274838783E+03  0.19267438872E+04  0.95000000000E+03 0.  0.
   -2000013    1    1    2    0    0  0.11242282796E+04  0.99713470236E+03  0.39166796066E+03  0.18204589066E+04  0.95000000000E+03 0.  0.
<mgrwt>
<rscale>  0 0.35713623E+04</rscale>
<asrwt>0</asrwt>
<pdfrwt beam="1">  1        1 0.37550916E+00 0.35713623E+04</pdfrwt>
<pdfrwt beam="2">  1       -1 0.20098357E+00 0.35713623E+04</pdfrwt>
<totfact> 0.17889927E-01</totfact>
</mgrwt>
</event>
<event>
 4    1  0.2019612E-008  0.3538037E+04  0.7816531E-02  0.8104834E-01
          1   -1    0    0  501    0  0.00000000000E+00  0.00000000000E+00  0.17852956089E+04  0.17852956089E+04  0.00000000000E+00 0.  1.
         -1   -1    0    0    0  501 -0.00000000000E+00 -0.00000000000E+00 -0.17528900483E+04  0.17528900483E+04  0.00000000000E+00 0. -1.
    2000013    1    1    2    0    0  0.11088202801E+04 -0.87222703786E+03  0.50270492926E+03  0.17735486081E+04  0.95000000000E+03 0.  0.
   -2000013    1    1    2    0    0 -0.11088202801E+04  0.87222703786E+03 -0.47029936860E+03  0.17646370492E+04  0.95000000000E+03 0.  0.
<mgrwt>
<rscale>  0 0.35380373E+04</rscale>
<asrwt>0</asrwt>
<pdfrwt beam="1">  1        1 0.27466086E+00 0.35380373E+04</pdfrwt>
<pdfrwt beam="2">  1       -1 0.26967539E+00 0.35380373E+04</pdfrwt>
<totfact> 0.17603127E-01</totfact>
</mgrwt>
</event>
<event>
 4    1  0.2019612E-008  0.4731025E+04  0.7816531E-02  0.7871394E-01
          2   -1    0    0  501    0  0.00000000000E+00  0.00000000000E+00  0.25786842292E+04  0.25786842292E+04  0.00000000000E+00 0.  1.
         -2   -1    0    0    0  501 -0.00000000000E+00 -0.00000000000E+00 -0.21699632054E+04  0.21699632054E+04  0.00000000000E+00 0. -1.
    2000013    1    1    2    0    0  0.21429215576E+04  0.24708998025E+03  0.40506440746E+03  0.23915985104E+04  0.95000000000E+03 0.  0.
   -2000013    1    1    2    0    0 -0.21429215576E+04 -0.24708998025E+03  0.36566162782E+01  0.23570489243E+04  0.95000000000E+03 0.  0.
<mgrwt>
<rscale>  0 0.47310252E+04</rscale>
<asrwt>0</asrwt>
<pdfrwt beam="1">  1        2 0.39672065E+00 0.47310252E+04</pdfrwt>
<pdfrwt beam="2">  1       -2 0.33384049E+00 0.47310252E+04</pdfrwt>
<totfact> 0.45765749E-02</totfact>
</mgrwt>
</event>
<event>
 4    1  0.2019612E-008  0.2557458E+04  0.7816531E-02  0.8382797E-01
         -2   -1    0    0    0  501 -0.00000000000E+00  0.00000000000E+00  0.81292795408E+03  0.81292795408E+03  0.00000000000E+00 0. -1.
          2   -1    0    0  501    0  0.00000000000E+00 -0.00000000000E+00 -0.20114296298E+04  0.20114296298E+04  0.00000000000E+00 0.  1.
    2000013    1    1    2    0    0 -0.49227998643E+03  0.66391684077E+03 -0.35349079461E+03  0.13078917762E+04  0.95000000000E+03 0.  0.
   -2000013    1    1    2    0    0  0.49227998643E+03 -0.66391684077E+03 -0.84501088108E+03  0.15164658076E+04  0.95000000000E+03 0.  0.
<mgrwt>
<rscale>  0 0.25574576E+04</rscale>
<asrwt>0</asrwt>
<pdfrwt beam="2">  1        2 0.30945071E+00 0.25574576E+04</pdfrwt>
<pdfrwt beam="1">  1       -2 0.12506584E+00 0.25574576E+04</pdfrwt>
<totfact> 0.27986317E+00</totfact>
</mgrwt>
</event>
<event>
 4    1  0.2019612E-008  0.2206615E+04  0.7816531E-02  0.8515680E-01
         -2   -1    0    0    0  501 -0.00000000000E+00  0.00000000000E+00  0.75699927938E+03  0.75699927938E+03  0.00000000000E+00 0. -1.
          2   -1    0    0  501    0  0.00000000000E+00 -0.00000000000E+00 -0.16080423472E+04  0.16080423472E+04  0.00000000000E+00 0.  1.
    2000013    1    1    2    0    0 -0.24689724804E+03 -0.15057564516E+03 -0.94082676341E+03  0.13679496609E+04  0.95000000000E+03 0.  0.
   -2000013    1    1    2    0    0  0.24689724804E+03  0.15057564516E+03  0.89783695595E+02  0.99709196567E+03  0.95000000000E+03 0.  0.
<mgrwt>
<rscale>  0 0.22066145E+04</rscale>
<asrwt>0</asrwt>
<pdfrwt beam="2">  1        2 0.24739113E+00 0.22066145E+04</pdfrwt>
<pdfrwt beam="1">  1       -2 0.11646143E+00 0.22066145E+04</pdfrwt>
<totfact> 0.57651212E+00</totfact>
</mgrwt>
</event>
<event>
 4    1  0.2019612E-008  0.2377937E+04  0.7816531E-02  0.8447810E-01
         -1   -1    0    0    0  501 -0.00000000000E+00  0.00000000000E+00  0.23230735558E+04  0.23230735558E+04  0.00000000000E+00 0. -1.
          1   -1    0    0  501    0  0.00000000000E+00 -0.00000000000E+00 -0.60852427486E+03  0.60852427486E+03  0.00000000000E+00 0.  1.
    2000013    1    1    2    0    0 -0.62253297372E+03 -0.13810970128E+03  0.45869586335E+03  0.12326895343E+04  0.95000000000E+03 0.  0.
   -2000013    1    1    2    0    0  0.62253297372E+03  0.13810970128E+03  0.12558534176E+04  0.16989082964E+04  0.95000000000E+03 0.  0.
<mgrwt>
<rscale>  0 0.23779375E+04</rscale>
<asrwt>0</asrwt>
<pdfrwt beam="2">  1        1 0.93619121E-01 0.23779375E+04</pdfrwt>
<pdfrwt beam="1">  1       -1 0.35739593E+00 0.23779375E+04</pdfrwt>
<totfact> 0.41821907E-01</totfact>
</mgrwt>
</event>
<event>
 4    1  0.2019612E-008  0.3350389E+04  0.7816531E-02  0.8150191E-01
         -2   -1    0    0    0  501 -0.00000000000E+00  0.00000000000E+00  0.24071225306E+04  0.24071225306E+04  0.00000000000E+00 0. -1.
          2   -1    0    0  501    0  0.00000000000E+00 -0.00000000000E+00 -0.11658222568E+04  0.11658222568E+04  0.00000000000E+00 0.  1.
    2000013    1    1    2    0    0 -0.45526833187E+03 -0.53158740702E+03  0.18887219727E+04  0.22270215795E+04  0.95000000000E+03 0.  0.
   -2000013    1    1    2    0    0  0.45526833187E+03  0.53158740702E+03 -0.64742169889E+03  0.13459232079E+04  0.95000000000E+03 0.  0.
<mgrwt>
<rscale>  0 0.33503892E+04</rscale>
<asrwt>0</asrwt>
<pdfrwt beam="2">  1        2 0.17935727E+00 0.33503892E+04</pdfrwt>
<pdfrwt beam="1">  1       -2 0.37032654E+00 0.33503892E+04</pdfrwt>
<totfact> 0.19074054E-01</totfact>
</mgrwt>
</event>
<event>
 4    1  0.2019612E-008  0.3681614E+04  0.7816531E-02  0.8072049E-01
          2   -1    0    0  501    0  0.00000000000E+00  0.00000000000E+00  0.22227331365E+04  0.22227331365E+04  0.00000000000E+00 0.  1.
         -2   -1    0    0    0  501 -0.00000000000E+00 -0.00000000000E+00 -0.15245059628E+04  0.15245059628E+04  0.00000000000E+00 0. -1.
    2000013    1    1    2    0    0  0.68405502847E+03  0.13456444711E+04  0.81262047789E+03  0.19599852973E+04  0.95000000000E+03 0.  0.
   -2000013    1    1    2    0    0 -0.68405502847E+03 -0.13456444711E+04 -0.11439330413E+03  0.17872538020E+04  0.95000000000E+03 0.  0.
<mgrwt>
<rscale>  0 0.36816137E+04</rscale>
<asrwt>0</asrwt>
<pdfrwt beam="1">  1        2 0.34195895E+00 0.36816137E+04</pdfrwt>
<pdfrwt beam="2">  1       -2 0.23453938E+00 0.36816137E+04</pdfrwt>
<totfact> 0.32513535E-01</totfact>
</mgrwt>
</event>
<event>
 4    1  0.2019612E-008  0.3422033E+04  0.7816531E-02  0.8132520E-01
         -2   -1    0    0    0  501 -0.00000000000E+00  0.00000000000E+00  0.16872892667E+04  0.16872892667E+04  0.00000000000E+00 0. -1.
          2   -1    0    0  501    0  0.00000000000E+00 -0.00000000000E+00 -0.17350769633E+04  0.17350769633E+04  0.00000000000E+00 0.  1.
    2000013    1    1    2    0    0  0.10868553989E+04  0.76886948117E+03  0.47880991371E+03  0.17041636866E+04  0.95000000000E+03 0.  0.
   -2000013    1    1    2    0    0 -0.10868553989E+04 -0.76886948117E+03 -0.52659761024E+03  0.17182025434E+04  0.95000000000E+03 0.  0.
<mgrwt>
<rscale>  0 0.34220326E+04</rscale>
<asrwt>0</asrwt>
<pdfrwt beam="2">  1        2 0.26693492E+00 0.34220326E+04</pdfrwt>
<pdfrwt beam="1">  1       -2 0.25958296E+00 0.34220326E+04</pdfrwt>
<totfact> 0.43515359E-01</totfact>
</mgrwt>
</event>
<event>
 4    1  0.2019612E-008  0.2510516E+04  0.7816531E-02  0.8399249E-01
          2   -1    0    0  501    0  0.00000000000E+00  0.00000000000E+00  0.21210557563E+04  0.21210557563E+04  0.00000000000E+00 0.  1.
         -2   -1    0    0    0  501 -0.00000000000E+00 -0.00000000000E+00 -0.74287210441E+03  0.74287210441E+03  0.00000000000E+00 0. -1.
    2000013    1    1    2    0    0 -0.55958519387E+03  0.28463489359E+03  0.86508514773E+02  0.11419878874E+04  0.95000000000E+03 0.  0.
   -2000013    1    1    2    0    0  0.55958519387E+03 -0.28463489359E+03  0.12916751372E+04  0.17219399733E+04  0.95000000000E+03 0.  0.
<mgrwt>
<rscale>  0 0.25105164E+04</rscale>
<asrwt>0</asrwt>
<pdfrwt beam="1">  1        2 0.32631627E+00 0.25105164E+04</pdfrwt>
<pdfrwt beam="2">  1       -2 0.11428802E+00 0.25105164E+04</pdfrwt>
<totfact> 0.30504923E+00</totfact>
</mgrwt>
</event>
<event>
 4    1  0.2019612E-008  0.3336201E+04  0.7816531E-02  0.8153745E-01
         -2   -1    0    0    0  501 -0.00000000000E+00  0.00000000000E+00  0.21469335345E+04  0.21469335345E+04  0.00000000000E+00 0. -1.
          2   -1    0    0  501    0  0.00000000000E+00 -0.00000000000E+00 -0.12960623135E+04  0.12960623135E+04  0.00000000000E+00 0.  1.
    2000013    1    1    2    0    0  0.11760723622E+04  0.61949650031E+03  0.77256198006E+03  0.18072836324E+04  0.95000000000E+03 0.  0.
   -2000013    1    1    2    0    0 -0.11760723622E+04 -0.61949650031E+03  0.78309241012E+02  0.16357122156E+04  0.95000000000E+03 0.  0.
<mgrwt>
<rscale>  0 0.33362012E+04</rscale>
<asrwt>0</asrwt>
<pdfrwt beam="2">  1        2 0.19939420E+00 0.33362012E+04</pdfrwt>
<pdfrwt beam="1">  1       -2 0.33029747E+00 0.33362012E+04</pdfrwt>
<totfact> 0.28599063E-01</totfact>
</mgrwt>
</event>
<event>
 4    1  0.2019612E-008  0.3592788E+04  0.7816531E-02  0.8092146E-01
          1   -1    0    0  501    0  0.00000000000E+00  0.00000000000E+00  0.11192086110E+04  0.11192086110E+04  0.00000000000E+00 0.  1.
         -1   -1    0    0    0  501 -0.00000000000E+00 -0.00000000000E+00 -0.28833155872E+04  0.28833155872E+04  0.00000000000E+00 0. -1.
    2000013    1    1    2    0    0 -0.12108417830E+04  0.91927437118E+03 -0.10106686078E+04  0.20579490343E+04  0.95000000000E+03 0.  0.
   -2000013    1    1    2    0    0  0.12108417830E+04 -0.91927437118E+03 -0.75343836840E+03  0.19445751639E+04  0.95000000000E+03 0.  0.
<mgrwt>
<rscale>  0 0.35927881E+04</rscale>
<asrwt>0</asrwt>
<pdfrwt beam="1">  1        1 0.17218594E+00 0.35927881E+04</pdfrwt>
<pdfrwt beam="2">  1       -1 0.44358700E+00 0.35927881E+04</pdfrwt>
<totfact> 0.35544500E-02</totfact>
</mgrwt>
</event>
<event>
 4    1  0.2019612E-008  0.4852616E+04  0.7816531E-02  0.7851654E-01
          1   -1    0    0  501    0  0.00000000000E+00  0.00000000000E+00  0.22214948498E+04  0.22214948498E+04  0.00000000000E+00 0.  1.
         -1   -1    0    0    0  501 -0.00000000000E+00 -0.00000000000E+00 -0.26500039837E+04  0.26500039837E+04  0.00000000000E+00 0. -1.
    2000013    1    1    2    0    0  0.18473958760E+04 -0.44104555234E+03  0.96380128144E+03  0.23321246991E+04  0.95000000000E+03 0.  0.
   -2000013    1    1    2    0    0 -0.18473958760E+04  0.44104555234E+03 -0.13923104154E+04  0.25393741344E+04  0.95000000000E+03 0.  0.
<mgrwt>
<rscale>  0 0.48526159E+04</rscale>
<asrwt>0</asrwt>
<pdfrwt beam="1">  1        1 0.34176844E+00 0.48526159E+04</pdfrwt>
<pdfrwt beam="2">  1       -1 0.40769292E+00 0.48526159E+04</pdfrwt>
<totfact> 0.97516275E-03</totfact>
</mgrwt>
</event>
<event>
 4    1  0.2019612E-008  0.2269412E+04  0.7816531E-02  0.8490080E-01
         -2   -1    0    0    0  501 -0.00000000000E+00  0.00000000000E+00  0.99058694910E+03  0.99058694910E+03  0.00000000000E+00 0. -1.
          2   -1    0    0  501    0  0.00000000000E+00 -0.00000000000E+00 -0.12997931155E+04  0.12997931155E+04  0.00000000000E+00 0.  1.
    2000013    1    1    2    0    0 -0.21377601048E+03  0.47289742949E+03  0.18872512889E+03  0.10988399955E+04  0.95000000000E+03 0.  0.
   -2000013    1    1    2    0    0  0.21377601048E+03 -0.47289742949E+03 -0.49793129533E+03  0.11915400691E+04  0.95000000000E+03 0.  0.
<mgrwt>
<rscale>  0 0.22694123E+04</rscale>
<asrwt>0</asrwt>
<pdfrwt beam="2">  1        2 0.19996817E+00 0.22694123E+04</pdfrwt>
<pdfrwt beam="1">  1       -2 0.15239799E+00 0.22694123E+04</pdfrwt>
<totfact> 0.43175270E+00</totfact>
</mgrwt>
</event>
<event>
 4    1  0.2019612E-008  0.3034361E+04  0.7816531E-02  0.8233986E-01
          1   -1    0    0  501    0  0.00000000000E+00  0.00000000000E+00  0.28219315482E+04  0.28219315482E+04  0.00000000000E+00 0.  1.
         -1   -1    0    0    0  501 -0.00000000000E+00 -0.00000000000E+00 -0.81569528154E+03  0.81569528154E+03  0.00000000000E+00 0. -1.
    2000013    1    1    2    0    0 -0.90021923541E+03 -0.43148036810E+03  0.24230590871E+03  0.13992076805E+04  0.95000000000E+03 0.  0.
   -2000013    1    1    2    0    0  0.90021923541E+03  0.43148036810E+03  0.17639303580E+04  0.22384191492E+04  0.95000000000E+03 0.  0.
<mgrwt>
<rscale>  0 0.30343607E+04</rscale>
<asrwt>0</asrwt>
<pdfrwt beam="1">  1        1 0.43414331E+00 0.30343607E+04</pdfrwt>
<pdfrwt beam="2">  1       -1 0.12549158E+00 0.30343607E+04</pdfrwt>
<totfact> 0.37777434E-01</totfact>
</mgrwt>
</event>
<event>
 4    1  0.2019612E-008  0.2473370E+04  0.7816531E-02  0.8412535E-01
         -1   -1    0    0    0  501 -0.00000000000E+00  0.00000000000E+00  0.95906443100E+03  0.95906443100E+03  0.00000000000E+00 0. -1.
          1   -1    0    0  501    0  0.00000000000E+00 -0.00000000000E+00 -0.15946681019E+04  0.15946681019E+04  0.00000000000E+00 0.  1.
    2000013    1    1    2    0    0 -0.53444515997E+02  0.36790942094E+03 -0.10395684384E+04  0.14565082205E+04  0.95000000000E+03 0.  0.
   -2000013    1    1    2    0    0  0.53444515997E+02 -0.36790942094E+03  0.40396476751E+03  0.10972243124E+04  0.95000000000E+03 0.  0.
<mgrwt>
<rscale>  0 0.24733697E+04</rscale>
<asrwt>0</asrwt>
<pdfrwt beam="2">  1        1 0.24533355E+00 0.24733697E+04</pdfrwt>
<pdfrwt beam="1">  1       -1 0.14754837E+00 0.24733697E+04</pdfrwt>
<totfact> 0.18275966E+00</totfact>
</mgrwt>
</event>
<event>
 4    1  0.2019612E-008  0.2866473E+04  0.7816531E-02  0.8282923E-01
          2   -1    0    0  501    0  0.00000000000E+00  0.00000000000E+00  0.18770919060E+04  0.18770919060E+04  0.00000000000E+00 0.  1.
         -2   -1    0    0    0  501 -0.00000000000E+00 -0.00000000000E+00 -0.10943344688E+04  0.10943344688E+04  0.00000000000E+00 0. -1.
    2000013    1    1    2    0    0  0.78263763101E+03  0.68335762641E+03  0.11290340775E+03  0.14123549435E+04  0.95000000000E+03 0.  0.
   -2000013    1    1    2    0    0 -0.78263763101E+03 -0.68335762641E+03  0.66985402946E+03  0.15590714313E+04  0.95000000000E+03 0.  0.
<mgrwt>
<rscale>  0 0.28664727E+04</rscale>
<asrwt>0</asrwt>
<pdfrwt beam="1">  1        2 0.28878337E+00 0.28664727E+04</pdfrwt>
<pdfrwt beam="2">  1       -2 0.16835915E+00 0.28664727E+04</pdfrwt>
<totfact> 0.14818886E+00</totfact>
</mgrwt>
</event>
<event>
 4    1  0.2019612E-008  0.2516602E+04  0.7816531E-02  0.8397095E-01
          2   -1    0    0  501    0  0.00000000000E+00  0.00000000000E+00  0.10464427639E+04  0.10464427639E+04  0.00000000000E+00 0.  1.
         -2   -1    0    0    0  501 -0.00000000000E+00 -0.00000000000E+00 -0.15130514768E+04  0.15130514768E+04  0.00000000000E+00 0. -1.
    2000013    1    1    2    0    0 -0.52305265076E+03 -0.63643791243E+03 -0.18576937187E+03  0.12710812529E+04  0.95000000000E+03 0.  0.
   -2000013    1    1    2    0    0  0.52305265076E+03  0.63643791243E+03 -0.28083934106E+03  0.12884129879E+04  0.95000000000E+03 0.  0.
<mgrwt>
<rscale>  0 0.25166023E+04</rscale>
<asrwt>0</asrwt>
<pdfrwt beam="1">  1        2 0.16099119E+00 0.25166023E+04</pdfrwt>
<pdfrwt beam="2">  1       -2 0.23277715E+00 0.25166023E+04</pdfrwt>
<totfact> 0.17213288E+00</totfact>
</mgrwt>
</event>
<event>
 4    1  0.2019612E-008  0.3594432E+04  0.7816531E-02  0.8091768E-01
          2   -1    0    0  501    0  0.00000000000E+00  0.00000000000E+00  0.33939408840E+04  0.33939408840E+04  0.00000000000E+00 0.  1.
         -2   -1    0    0    0  501 -0.00000000000E+00 -0.00000000000E+00 -0.95169163128E+03  0.95169163128E+03  0.00000000000E+00 0. -1.
    2000013    1    1    2    0    0 -0.91538155938E+03  0.12204365500E+04  0.12329927275E+04  0.21794861408E+04  0.95000000000E+03 0.  0.
   -2000013    1    1    2    0    0  0.91538155938E+03 -0.12204365500E+04  0.12092565252E+04  0.21661463744E+04  0.95000000000E+03 0.  0.
<mgrwt>
<rscale>  0 0.35944319E+04</rscale>
<asrwt>0</asrwt>
<pdfrwt beam="1">  1        2 0.52214474E+00 0.35944319E+04</pdfrwt>
<pdfrwt beam="2">  1       -2 0.14641410E+00 0.35944319E+04</pdfrwt>
<totfact> 0.25033174E-01</totfact>
</mgrwt>
</event>
<event>
 4    1  0.2019612E-008  0.2663379E+04  0.7816531E-02  0.8346986E-01
         -2   -1    0    0    0  501 -0.00000000000E+00  0.00000000000E+00  0.54149092599E+03  0.54149092599E+03  0.00000000000E+00 0. -1.
          2   -1    0    0  501    0  0.00000000000E+00 -0.00000000000E+00 -0.32750250261E+04  0.32750250261E+04  0.00000000000E+00 0.  1.
    2000013    1    1    2    0    0 -0.16397117541E+02 -0.60027192229E+03 -0.23904074792E+04  0.26414282430E+04  0.95000000000E+03 0.  0.
   -2000013    1    1    2    0    0  0.16397117541E+02  0.60027192229E+03 -0.34312662092E+03  0.11750877091E+04  0.95000000000E+03 0.  0.
<mgrwt>
<rscale>  0 0.26633786E+04</rscale>
<asrwt>0</asrwt>
<pdfrwt beam="2">  1        2 0.50384999E+00 0.26633786E+04</pdfrwt>
<pdfrwt beam="1">  1       -2 0.83306298E-01 0.26633786E+04</pdfrwt>
<totfact> 0.12845641E+00</totfact>
</mgrwt>
</event>
<event>
 4    1  0.2019612E-008  0.2536730E+04  0.7816531E-02  0.8390016E-01
          2   -1    0    0  501    0  0.00000000000E+00  0.00000000000E+00  0.16323664589E+04  0.16323664589E+04  0.00000000000E+00 0.  1.
         -2   -1    0    0    0  501 -0.00000000000E+00 -0.00000000000E+00 -0.98553204725E+03  0.98553204725E+03  0.00000000000E+00 0. -1.
    2000013    1    1    2    0    0 -0.56001582968E+03 -0.34054529616E+03  0.86623275979E+03  0.14430689597E+04  0.95000000000E+03 0.  0.
   -2000013    1    1    2    0    0  0.56001582968E+03  0.34054529616E+03 -0.21939834809E+03  0.11748295465E+04  0.95000000000E+03 0.  0.
<mgrwt>
<rscale>  0 0.25367298E+04</rscale>
<asrwt>0</asrwt>
<pdfrwt beam="1">  1        2 0.25113330E+00 0.25367298E+04</pdfrwt>
<pdfrwt beam="2">  1       -2 0.15162032E+00 0.25367298E+04</pdfrwt>
<totfact> 0.27699793E+00</totfact>
</mgrwt>
</event>
<event>
 4    1  0.2019612E-008  0.2483913E+04  0.7816531E-02  0.8408739E-01
         -2   -1    0    0    0  501 -0.00000000000E+00  0.00000000000E+00  0.99730601873E+03  0.99730601873E+03  0.00000000000E+00 0. -1.
          2   -1    0    0  501    0  0.00000000000E+00 -0.00000000000E+00 -0.15466229992E+04  0.15466229992E+04  0.00000000000E+00 0.  1.
    2000013    1    1    2    0    0 -0.26312640767E+03 -0.75330854659E+03 -0.21629786696E+03  0.12593625531E+04  0.95000000000E+03 0.  0.
   -2000013    1    1    2    0    0  0.26312640767E+03  0.75330854659E+03 -0.33301911356E+03  0.12845664649E+04  0.95000000000E+03 0.  0.
<mgrwt>
<rscale>  0 0.24839134E+04</rscale>
<asrwt>0</asrwt>
<pdfrwt beam="2">  1        2 0.23794200E+00 0.24839134E+04</pdfrwt>
<pdfrwt beam="1">  1       -2 0.15343170E+00 0.24839134E+04</pdfrwt>
<totfact> 0.30106704E+00</totfact>
</mgrwt>
</event>
<event>
 4    1  0.2019612E-008  0.2074174E+04  0.7816531E-02  0.8572706E-01
         -2   -1    0    0    0  501 -0.00000000000E+00  0.00000000000E+00  0.66401083497E+03  0.66401083497E+03  0.00000000000E+00 0. -1.
          2   -1    0    0  501    0  0.00000000000E+00 -0.00000000000E+00 -0.16197772682E+04  0.16197772682E+04  0.00000000000E+00 0.  1.
    2000013    1    1    2    0    0  0.93000958556E+02 -0.31056086608E+03 -0.76490381302E+03  0.12620123110E+04  0.95000000000E+03 0.  0.
   -2000013    1    1    2    0    0 -0.93000958556E+02  0.31056086608E+03 -0.19086262024E+03  0.10217757923E+04  0.95000000000E+03 0.  0.
<mgrwt>
<rscale>  0 0.20741742E+04</rscale>
<asrwt>0</asrwt>
<pdfrwt beam="2">  1        2 0.24919650E+00 0.20741742E+04</pdfrwt>
<pdfrwt beam="1">  1       -2 0.10215551E+00 0.20741742E+04</pdfrwt>
<totfact> 0.78824970E+00</totfact>
</mgrwt>
</event>
<event>
 4    1  0.2019612E-008  0.2348104E+04  0.7816531E-02  0.8459192E-01
          2   -1    0    0  501    0  0.00000000000E+00  0.00000000000E+00  0.12928370741E+04  0.12928370741E+04  0.00000000000E+00 0.  1.
         -2   -1    0    0    0  501 -0.00000000000E+00 -0.00000000000E+00 -0.10661806160E+04  0.10661806160E+04  0.00000000000E+00 0. -1.
    2000013    1    1    2    0    0  0.64218036120E+03  0.51251813381E+02  0.36120455606E+03  0.12033250168E+04  0.95000000000E+03 0.  0.
   -2000013    1    1    2    0    0 -0.64218036120E+03 -0.51251813381E+02 -0.13454809797E+03  0.11556926734E+04  0.95000000000E+03 0.  0.
<mgrwt>
<rscale>  0 0.23481038E+04</rscale>
<asrwt>0</asrwt>
<pdfrwt beam="1">  1        2 0.19889801E+00 0.23481038E+04</pdfrwt>
<pdfrwt beam="2">  1       -2 0.16402779E+00 0.23481038E+04</pdfrwt>
<totfact> 0.35473551E+00</totfact>
</mgrwt>
</event>
<event>
 4    1  0.2019612E-008  0.2165987E+04  0.7816531E-02  0.8532720E-01
         -2   -1    0    0    0  501 -0.00000000000E+00  0.00000000000E+00  0.59101164499E+03  0.59101164499E+03  0.00000000000E+00 0. -1.
          2   -1    0    0  501    0  0.00000000000E+00 -0.00000000000E+00 -0.19845200552E+04  0.19845200552E+04  0.00000000000E+00 0.  1.
    2000013    1    1    2    0    0  0.89183920324E+02  0.51147525719E+03 -0.73067430862E+03  0.13061185458E+04  0.95000000000E+03 0.  0.
   -2000013    1    1    2    0    0 -0.89183920324E+02 -0.51147525719E+03 -0.66283410159E+03  0.12694131544E+04  0.95000000000E+03 0.  0.
<mgrwt>
<rscale>  0 0.21659866E+04</rscale>
<asrwt>0</asrwt>
<pdfrwt beam="2">  1        2 0.30531078E+00 0.21659866E+04</pdfrwt>
<pdfrwt beam="1">  1       -2 0.90924867E-01 0.21659866E+04</pdfrwt>
<totfact> 0.64467335E+00</totfact>
</mgrwt>
</event>
<event>
 4    1  0.2019612E-008  0.2167654E+04  0.7816531E-02  0.8532013E-01
          2   -1    0    0  501    0  0.00000000000E+00  0.00000000000E+00  0.42700379612E+04  0.42700379612E+04  0.00000000000E+00 0.  1.
         -2   -1    0    0    0  501 -0.00000000000E+00 -0.00000000000E+00 -0.27509843067E+03  0.27509843067E+03  0.00000000000E+00 0. -1.
    2000013    1    1    2    0    0 -0.51885778994E+03  0.38323281805E+02  0.19162972810E+04  0.22012217856E+04  0.95000000000E+03 0.  0.
   -2000013    1    1    2    0    0  0.51885778994E+03 -0.38323281805E+02  0.20786422495E+04  0.23439146063E+04  0.95000000000E+03 0.  0.
<mgrwt>
<rscale>  0 0.21676538E+04</rscale>
<asrwt>0</asrwt>
<pdfrwt beam="1">  1        2 0.65692887E+00 0.21676538E+04</pdfrwt>
<pdfrwt beam="2">  1       -2 0.42322838E-01 0.21676538E+04</pdfrwt>
<totfact> 0.98849619E-01</totfact>
</mgrwt>
</event>
<event>
 4    1  0.2019612E-008  0.2806753E+04  0.7816531E-02  0.8301175E-01
          2   -1    0    0  501    0  0.00000000000E+00  0.00000000000E+00  0.20907593936E+04  0.20907593936E+04  0.00000000000E+00 0.  1.
         -2   -1    0    0    0  501 -0.00000000000E+00 -0.00000000000E+00 -0.94198575654E+03  0.94198575654E+03  0.00000000000E+00 0. -1.
    2000013    1    1    2    0    0  0.40261150343E+03 -0.67149989551E+03  0.13024000832E+04  0.17921367440E+04  0.95000000000E+03 0.  0.
   -2000013    1    1    2    0    0 -0.40261150343E+03  0.67149989551E+03 -0.15362644621E+03  0.12406084061E+04  0.95000000000E+03 0.  0.
<mgrwt>
<rscale>  0 0.28067530E+04</rscale>
<asrwt>0</asrwt>
<pdfrwt beam="1">  1        2 0.32165529E+00 0.28067530E+04</pdfrwt>
<pdfrwt beam="2">  1       -2 0.14492089E+00 0.28067530E+04</pdfrwt>
<totfact> 0.16969668E+00</totfact>
</mgrwt>
</event>
<event>
 4    1  0.2019612E-008  0.2716322E+04  0.7816531E-02  0.8329728E-01
          2   -1    0    0  501    0  0.00000000000E+00  0.00000000000E+00  0.45155296582E+04  0.45155296582E+04  0.00000000000E+00 0.  1.
         -2   -1    0    0    0  501 -0.00000000000E+00 -0.00000000000E+00 -0.40850175154E+03  0.40850175154E+03  0.00000000000E+00 0. -1.
    2000013    1    1    2    0    0  0.10679260770E+03 -0.59868145019E+03  0.34248468508E+04  0.36058147611E+04  0.95000000000E+03 0.  0.
   -2000013    1    1    2    0    0 -0.10679260770E+03  0.59868145019E+03  0.68218105590E+03  0.13182166487E+04  0.95000000000E+03 0.  0.
<mgrwt>
<rscale>  0 0.27163223E+04</rscale>
<asrwt>0</asrwt>
<pdfrwt beam="1">  1        2 0.69469683E+00 0.27163223E+04</pdfrwt>
<pdfrwt beam="2">  1       -2 0.62846427E-01 0.27163223E+04</pdfrwt>
<totfact> 0.24494651E-01</totfact>
</mgrwt>
</event>
<event>
 4    1  0.2019612E-008  0.4717576E+04  0.7816531E-02  0.7873615E-01
         -2   -1    0    0    0  501 -0.00000000000E+00  0.00000000000E+00  0.22654054586E+04  0.22654054586E+04  0.00000000000E+00 0. -1.
          2   -1    0    0  501    0  0.00000000000E+00 -0.00000000000E+00 -0.24560202803E+04  0.24560202803E+04  0.00000000000E+00 0.  1.
    2000013    1    1    2    0    0  0.21469669493E+04 -0.18660650506E+03  0.35538244345E+02  0.23554303293E+04  0.95000000000E+03 0.  0.
   -2000013    1    1    2    0    0 -0.21469669493E+04  0.18660650506E+03 -0.22615306598E+03  0.23659954096E+04  0.95000000000E+03 0.  0.
<mgrwt>
<rscale>  0 0.47175764E+04</rscale>
<asrwt>0</asrwt>
<pdfrwt beam="2">  1        2 0.37784927E+00 0.47175764E+04</pdfrwt>
<pdfrwt beam="1">  1       -2 0.34852392E+00 0.47175764E+04</pdfrwt>
<totfact> 0.43684258E-02</totfact>
</mgrwt>
</event>
<event>
 4    1  0.2019612E-008  0.3380551E+04  0.7816531E-02  0.8142696E-01
         -2   -1    0    0    0  501 -0.00000000000E+00  0.00000000000E+00  0.11002668013E+04  0.11002668013E+04  0.00000000000E+00 0. -1.
          2   -1    0    0  501    0  0.00000000000E+00 -0.00000000000E+00 -0.25966711850E+04  0.25966711850E+04  0.00000000000E+00 0.  1.
    2000013    1    1    2    0    0 -0.98799640287E+03 -0.22613645754E+03 -0.18012658650E+04  0.22747160935E+04  0.95000000000E+03 0.  0.
   -2000013    1    1    2    0    0  0.98799640287E+03  0.22613645754E+03  0.30486148132E+03  0.14222218928E+04  0.95000000000E+03 0.  0.
<mgrwt>
<rscale>  0 0.33805509E+04</rscale>
<asrwt>0</asrwt>
<pdfrwt beam="2">  1        2 0.39948787E+00 0.33805509E+04</pdfrwt>
<pdfrwt beam="1">  1       -2 0.16927182E+00 0.33805509E+04</pdfrwt>
<totfact> 0.54699143E-01</totfact>
</mgrwt>
</event>
<event>
 4    1  0.2019612E-008  0.3220887E+04  0.7816531E-02  0.8183323E-01
          2   -1    0    0  501    0  0.00000000000E+00  0.00000000000E+00  0.18010728942E+04  0.18010728942E+04  0.00000000000E+00 0.  1.
         -2   -1    0    0    0  501 -0.00000000000E+00 -0.00000000000E+00 -0.14399909609E+04  0.14399909609E+04  0.00000000000E+00 0. -1.
    2000013    1    1    2    0    0 -0.11997200813E+04  0.55003392381E+02 -0.32125615158E+03  0.15646274833E+04  0.95000000000E+03 0.  0.
   -2000013    1    1    2    0    0  0.11997200813E+04 -0.55003392381E+02  0.68233808493E+03  0.16764363718E+04  0.95000000000E+03 0.  0.
<mgrwt>
<rscale>  0 0.32208873E+04</rscale>
<asrwt>0</asrwt>
<pdfrwt beam="1">  1        2 0.27708814E+00 0.32208873E+04</pdfrwt>
<pdfrwt beam="2">  1       -2 0.22153707E+00 0.32208873E+04</pdfrwt>
<totfact> 0.70010968E-01</totfact>
</mgrwt>
</event>
<event>
 4    1  0.2019612E-008  0.3465582E+04  0.7816531E-02  0.8121995E-01
         -1   -1    0    0    0  501 -0.00000000000E+00  0.00000000000E+00  0.11687377906E+04  0.11687377906E+04  0.00000000000E+00 0. -1.
          1   -1    0    0  501    0  0.00000000000E+00 -0.00000000000E+00 -0.25690667837E+04  0.25690667837E+04  0.00000000000E+00 0.  1.
    2000013    1    1    2    0    0 -0.17307663741E+02  0.74672847657E+03  0.63922046702E+03  0.13671158614E+04  0.95000000000E+03 0.  0.
   -2000013    1    1    2    0    0  0.17307663741E+02 -0.74672847657E+03 -0.20395494601E+04  0.23706887129E+04  0.95000000000E+03 0.  0.
<mgrwt>
<rscale>  0 0.34655825E+04</rscale>
<asrwt>0</asrwt>
<pdfrwt beam="2">  1        1 0.39524104E+00 0.34655825E+04</pdfrwt>
<pdfrwt beam="1">  1       -1 0.17980582E+00 0.34655825E+04</pdfrwt>
<totfact> 0.20711405E-01</totfact>
</mgrwt>
</event>
<event>
 4    1  0.2019612E-008  0.2042600E+04  0.7816531E-02  0.8586959E-01
         -1   -1    0    0    0  501 -0.00000000000E+00  0.00000000000E+00  0.11143014176E+04  0.11143014176E+04  0.00000000000E+00 0. -1.
          1   -1    0    0  501    0  0.00000000000E+00 -0.00000000000E+00 -0.93606084094E+03  0.93606084094E+03  0.00000000000E+00 0.  1.
    2000013    1    1    2    0    0 -0.19261178347E+03 -0.31331584841E+03  0.16126682700E+02  0.10188357031E+04  0.95000000000E+03 0.  0.
   -2000013    1    1    2    0    0  0.19261178347E+03  0.31331584841E+03  0.16211389398E+03  0.10315265555E+04  0.95000000000E+03 0.  0.
<mgrwt>
<rscale>  0 0.20426002E+04</rscale>
<asrwt>0</asrwt>
<pdfrwt beam="2">  1        1 0.14400936E+00 0.20426002E+04</pdfrwt>
<pdfrwt beam="1">  1       -1 0.17143099E+00 0.20426002E+04</pdfrwt>
<totfact> 0.37755385E+00</totfact>
</mgrwt>
</event>
<event>
 4    1  0.2019612E-008  0.2593685E+04  0.7816531E-02  0.8370350E-01
          2   -1    0    0  501    0  0.00000000000E+00  0.00000000000E+00  0.99107795094E+03  0.99107795094E+03  0.00000000000E+00 0.  1.
         -2   -1    0    0    0  501 -0.00000000000E+00 -0.00000000000E+00 -0.16969401192E+04  0.16969401192E+04  0.00000000000E+00 0. -1.
    2000013    1    1    2    0    0  0.52870086193E+03 -0.44306749532E+03 -0.92384472718E+03  0.14939285414E+04  0.95000000000E+03 0.  0.
   -2000013    1    1    2    0    0 -0.52870086193E+03  0.44306749532E+03  0.21798255888E+03  0.11940895288E+04  0.95000000000E+03 0.  0.
<mgrwt>
<rscale>  0 0.25936846E+04</rscale>
<asrwt>0</asrwt>
<pdfrwt beam="1">  1        2 0.15247353E+00 0.25936846E+04</pdfrwt>
<pdfrwt beam="2">  1       -2 0.26106771E+00 0.25936846E+04</pdfrwt>
<totfact> 0.12414353E+00</totfact>
</mgrwt>
</event>
<event>
 4    1  0.2019612E-008  0.2187484E+04  0.7816531E-02  0.8523656E-01
          2   -1    0    0  501    0  0.00000000000E+00  0.00000000000E+00  0.16656260780E+04  0.16656260780E+04  0.00000000000E+00 0.  1.
         -2   -1    0    0    0  501 -0.00000000000E+00 -0.00000000000E+00 -0.71821105960E+03  0.71821105960E+03  0.00000000000E+00 0. -1.
    2000013    1    1    2    0    0 -0.41455959903E+03 -0.10539012162E+03  0.83645979229E+03  0.13360882168E+04  0.95000000000E+03 0.  0.
   -2000013    1    1    2    0    0  0.41455959903E+03  0.10539012162E+03  0.11095522610E+03  0.10477489208E+04  0.95000000000E+03 0.  0.
<mgrwt>
<rscale>  0 0.21874835E+04</rscale>
<asrwt>0</asrwt>
<pdfrwt beam="1">  1        2 0.25625017E+00 0.21874835E+04</pdfrwt>
<pdfrwt beam="2">  1       -2 0.11049401E+00 0.21874835E+04</pdfrwt>
<totfact> 0.60952965E+00</totfact>
</mgrwt>
</event>
<event>
 4    1  0.2019612E-008  0.3369430E+04  0.7816531E-02  0.8145450E-01
          2   -1    0    0  501    0  0.00000000000E+00  0.00000000000E+00  0.31597080113E+04  0.31597080113E+04  0.00000000000E+00 0.  1.
         -2   -1    0    0    0  501 -0.00000000000E+00 -0.00000000000E+00 -0.89826805991E+03  0.89826805991E+03  0.00000000000E+00 0. -1.
    2000013    1    1    2    0    0  0.14466807406E+03 -0.12016574782E+04  0.19571322044E+04  0.24895332921E+04  0.95000000000E+03 0.  0.
   -2000013    1    1    2    0    0 -0.14466807406E+03  0.12016574782E+04  0.30430774694E+03  0.15684427791E+04  0.95000000000E+03 0.  0.
<mgrwt>
<rscale>  0 0.33694301E+04</rscale>
<asrwt>0</asrwt>
<pdfrwt beam="1">  1        2 0.48610892E+00 0.33694301E+04</pdfrwt>
<pdfrwt beam="2">  1       -2 0.13819509E+00 0.33694301E+04</pdfrwt>
<totfact> 0.42453122E-01</totfact>
</mgrwt>
</event>
<event>
 4    1  0.2019612E-008  0.2675499E+04  0.7816531E-02  0.8342999E-01
          1   -1    0    0  501    0  0.00000000000E+00  0.00000000000E+00  0.20417854709E+04  0.20417854709E+04  0.00000000000E+00 0.  1.
         -1   -1    0    0    0  501 -0.00000000000E+00 -0.00000000000E+00 -0.87647470984E+03  0.87647470984E+03  0.00000000000E+00 0. -1.
    2000013    1    1    2    0    0 -0.28413725145E+03  0.52805949379E+03 -0.20953108430E+03  0.11427966057E+04  0.95000000000E+03 0.  0.
   -2000013    1    1    2    0    0  0.28413725145E+03 -0.52805949379E+03  0.13748418453E+04  0.17754635751E+04  0.95000000000E+03 0.  0.
<mgrwt>
<rscale>  0 0.26754987E+04</rscale>
<asrwt>0</asrwt>
<pdfrwt beam="1">  1        1 0.31412084E+00 0.26754987E+04</pdfrwt>
<pdfrwt beam="2">  1       -1 0.13484226E+00 0.26754987E+04</pdfrwt>
<totfact> 0.11283430E+00</totfact>
</mgrwt>
</event>
<event>
 4    1  0.2019612E-008  0.2318696E+04  0.7816531E-02  0.8470586E-01
          2   -1    0    0  501    0  0.00000000000E+00  0.00000000000E+00  0.20996735639E+04  0.20996735639E+04  0.00000000000E+00 0.  1.
         -2   -1    0    0    0  501 -0.00000000000E+00 -0.00000000000E+00 -0.64014119630E+03  0.64014119630E+03  0.00000000000E+00 0. -1.
    2000013    1    1    2    0    0  0.27860372183E+03  0.54280265212E+03  0.41863268135E+03  0.12041628108E+04  0.95000000000E+03 0.  0.
   -2000013    1    1    2    0    0 -0.27860372183E+03 -0.54280265212E+03  0.10408996863E+04  0.15356519495E+04  0.95000000000E+03 0.  0.
<mgrwt>
<rscale>  0 0.23186958E+04</rscale>
<asrwt>0</asrwt>
<pdfrwt beam="1">  1        2 0.32302670E+00 0.23186958E+04</pdfrwt>
<pdfrwt beam="2">  1       -2 0.98483262E-01 0.23186958E+04</pdfrwt>
<totfact> 0.45566967E+00</totfact>
</mgrwt>
</event>
<event>
 4    1  0.2019612E-008  0.3241439E+04  0.7816531E-02  0.8177958E-01
          2   -1    0    0  501    0  0.00000000000E+00  0.00000000000E+00  0.18662738137E+04  0.18662738137E+04  0.00000000000E+00 0.  1.
         -2   -1    0    0    0  501 -0.00000000000E+00 -0.00000000000E+00 -0.14074737388E+04  0.14074737388E+04  0.00000000000E+00 0. -1.
    2000013    1    1    2    0    0  0.83166887925E+03  0.10161343463E+04  0.23486207428E+03  0.16376392546E+04  0.95000000000E+03 0.  0.
   -2000013    1    1    2    0    0 -0.83166887925E+03 -0.10161343463E+04  0.22393800058E+03  0.16361082979E+04  0.95000000000E+03 0.  0.
<mgrwt>
<rscale>  0 0.32414388E+04</rscale>
<asrwt>0</asrwt>
<pdfrwt beam="1">  1        2 0.28711905E+00 0.32414388E+04</pdfrwt>
<pdfrwt beam="2">  1       -2 0.21653442E+00 0.32414388E+04</pdfrwt>
<totfact> 0.69184196E-01</totfact>
</mgrwt>
</event>
<event>
 4    1  0.2019612E-008  0.2540548E+04  0.7816531E-02  0.8388681E-01
         -1   -1    0    0    0  501 -0.00000000000E+00  0.00000000000E+00  0.13215965688E+04  0.13215965688E+04  0.00000000000E+00 0. -1.
          1   -1    0    0  501    0  0.00000000000E+00 -0.00000000000E+00 -0.12209440358E+04  0.12209440358E+04  0.00000000000E+00 0.  1.
    2000013    1    1    2    0    0  0.84207101922E+03 -0.13886866370E+02  0.93009483863E+02  0.12729600192E+04  0.95000000000E+03 0.  0.
   -2000013    1    1    2    0    0 -0.84207101922E+03  0.13886866370E+02  0.76430491714E+01  0.12695805853E+04  0.95000000000E+03 0.  0.
<mgrwt>
<rscale>  0 0.25405475E+04</rscale>
<asrwt>0</asrwt>
<pdfrwt beam="2">  1        1 0.18783754E+00 0.25405475E+04</pdfrwt>
<pdfrwt beam="1">  1       -1 0.20332255E+00 0.25405475E+04</pdfrwt>
<totfact> 0.13039983E+00</totfact>
</mgrwt>
</event>
<event>
 4    1  0.2019612E-008  0.2217128E+04  0.7816531E-02  0.8511333E-01
          2   -1    0    0  501    0  0.00000000000E+00  0.00000000000E+00  0.19139816467E+04  0.19139816467E+04  0.00000000000E+00 0.  1.
         -2   -1    0    0    0  501 -0.00000000000E+00 -0.00000000000E+00 -0.64207185782E+03  0.64207185782E+03  0.00000000000E+00 0. -1.
    2000013    1    1    2    0    0  0.15581235460E+03  0.48068189043E+03  0.32858837200E+03  0.11250790585E+04  0.95000000000E+03 0.  0.
   -2000013    1    1    2    0    0 -0.15581235460E+03 -0.48068189043E+03  0.94332141688E+03  0.14309744460E+04  0.95000000000E+03 0.  0.
<mgrwt>
<rscale>  0 0.22171276E+04</rscale>
<asrwt>0</asrwt>
<pdfrwt beam="1">  1        2 0.29445871E+00 0.22171276E+04</pdfrwt>
<pdfrwt beam="2">  1       -2 0.98780286E-01 0.22171276E+04</pdfrwt>
<totfact> 0.57890144E+00</totfact>
</mgrwt>
</event>
<event>
 4    1  0.2019612E-008  0.3410130E+04  0.7816531E-02  0.8135425E-01
          2   -1    0    0  501    0  0.00000000000E+00  0.00000000000E+00  0.17837350665E+04  0.17837350665E+04  0.00000000000E+00 0.  1.
         -2   -1    0    0    0  501 -0.00000000000E+00 -0.00000000000E+00 -0.16298642069E+04  0.16298642069E+04  0.00000000000E+00 0. -1.
    2000013    1    1    2    0    0 -0.13655811594E+04 -0.34602167627E+03  0.21921743500E+03  0.17132131178E+04  0.95000000000E+03 0.  0.
   -2000013    1    1    2    0    0  0.13655811594E+04  0.34602167627E+03 -0.65346575369E+02  0.17003861556E+04  0.95000000000E+03 0.  0.
<mgrwt>
<rscale>  0 0.34101296E+04</rscale>
<asrwt>0</asrwt>
<pdfrwt beam="1">  1        2 0.27442078E+00 0.34101296E+04</pdfrwt>
<pdfrwt beam="2">  1       -2 0.25074834E+00 0.34101296E+04</pdfrwt>
<totfact> 0.46371464E-01</totfact>
</mgrwt>
</event>
<event>
 4    1  0.2019612E-008  0.2212862E+04  0.7816531E-02  0.8513094E-01
         -2   -1    0    0    0  501 -0.00000000000E+00  0.00000000000E+00  0.65674579811E+03  0.65674579811E+03  0.00000000000E+00 0. -1.
          2   -1    0    0  501    0  0.00000000000E+00 -0.00000000000E+00 -0.18640235690E+04  0.18640235690E+04  0.00000000000E+00 0.  1.
    2000013    1    1    2    0    0  0.47603511333E+03  0.74786848431E+02 -0.26287066102E+03  0.10971797876E+04  0.95000000000E+03 0.  0.
   -2000013    1    1    2    0    0 -0.47603511333E+03 -0.74786848431E+02 -0.94440710988E+03  0.14235895796E+04  0.95000000000E+03 0.  0.
<mgrwt>
<rscale>  0 0.22128621E+04</rscale>
<asrwt>0</asrwt>
<pdfrwt beam="2">  1        2 0.28677285E+00 0.22128621E+04</pdfrwt>
<pdfrwt beam="1">  1       -2 0.10103782E+00 0.22128621E+04</pdfrwt>
<totfact> 0.58509560E+00</totfact>
</mgrwt>
</event>
<event>
 4    1  0.2019612E-008  0.2303858E+04  0.7816531E-02  0.8476401E-01
          2   -1    0    0  501    0  0.00000000000E+00  0.00000000000E+00  0.11184811525E+04  0.11184811525E+04  0.00000000000E+00 0.  1.
         -2   -1    0    0    0  501 -0.00000000000E+00 -0.00000000000E+00 -0.11863771596E+04  0.11863771596E+04  0.00000000000E+00 0. -1.
    2000013    1    1    2    0    0 -0.12533660887E+03 -0.63931955336E+03 -0.32629894952E+02  0.11523903275E+04  0.95000000000E+03 0.  0.
   -2000013    1    1    2    0    0  0.12533660887E+03  0.63931955336E+03 -0.35266112174E+02  0.11524679846E+04  0.95000000000E+03 0.  0.
<mgrwt>
<rscale>  0 0.23038581E+04</rscale>
<asrwt>0</asrwt>
<pdfrwt beam="1">  1        2 0.17207402E+00 0.23038581E+04</pdfrwt>
<pdfrwt beam="2">  1       -2 0.18251956E+00 0.23038581E+04</pdfrwt>
<totfact> 0.33508651E+00</totfact>
</mgrwt>
</event>
<event>
 4    1  0.2019612E-008  0.2124764E+04  0.7816531E-02  0.8550412E-01
         -2   -1    0    0    0  501 -0.00000000000E+00  0.00000000000E+00  0.96064663190E+03  0.96064663190E+03  0.00000000000E+00 0. -1.
          2   -1    0    0  501    0  0.00000000000E+00 -0.00000000000E+00 -0.11748913716E+04  0.11748913716E+04  0.00000000000E+00 0.  1.
    2000013    1    1    2    0    0 -0.14822779509E+03 -0.35417331522E+03 -0.38916108438E+03  0.10960641250E+04  0.95000000000E+03 0.  0.
   -2000013    1    1    2    0    0  0.14822779509E+03  0.35417331522E+03  0.17491634470E+03  0.10394738785E+04  0.95000000000E+03 0.  0.
<mgrwt>
<rscale>  0 0.21247639E+04</rscale>
<asrwt>0</asrwt>
<pdfrwt beam="2">  1        2 0.18075252E+00 0.21247639E+04</pdfrwt>
<pdfrwt beam="1">  1       -2 0.14779179E+00 0.21247639E+04</pdfrwt>
<totfact> 0.56205402E+00</totfact>
</mgrwt>
</event>
<event>
 4    1  0.2019612E-008  0.2031768E+04  0.7816531E-02  0.8591910E-01
         -2   -1    0    0    0  501 -0.00000000000E+00  0.00000000000E+00  0.13327292939E+04  0.13327292939E+04  0.00000000000E+00 0. -1.
          2   -1    0    0  501    0  0.00000000000E+00 -0.00000000000E+00 -0.77436603080E+03  0.77436603080E+03  0.00000000000E+00 0.  1.
    2000013    1    1    2    0    0 -0.22701001004E+03 -0.19766398299E+03  0.74597245590E+02  0.99933445046E+03  0.95000000000E+03 0.  0.
   -2000013    1    1    2    0    0  0.22701001004E+03  0.19766398299E+03  0.48376601755E+03  0.11077608743E+04  0.95000000000E+03 0.  0.
<mgrwt>
<rscale>  0 0.20317680E+04</rscale>
<asrwt>0</asrwt>
<pdfrwt beam="2">  1        2 0.11913324E+00 0.20317680E+04</pdfrwt>
<pdfrwt beam="1">  1       -2 0.20503528E+00 0.20317680E+04</pdfrwt>
<totfact> 0.41069265E+00</totfact>
</mgrwt>
</event>
<event>
 4    1  0.2019612E-008  0.4307368E+04  0.7816531E-02  0.7945257E-01
         -1   -1    0    0    0  501 -0.00000000000E+00  0.00000000000E+00  0.14126274448E+04  0.14126274448E+04  0.00000000000E+00 0. -1.
          1   -1    0    0  501    0  0.00000000000E+00 -0.00000000000E+00 -0.32834952690E+04  0.32834952690E+04  0.00000000000E+00 0.  1.
    2000013    1    1    2    0    0  0.18374363308E+04 -0.21515592449E+03 -0.32509534175E+03  0.21049112387E+04  0.95000000000E+03 0.  0.
   -2000013    1    1    2    0    0 -0.18374363308E+04  0.21515592449E+03 -0.15457724825E+04  0.25912114752E+04  0.95000000000E+03 0.  0.
<mgrwt>
<rscale>  0 0.43073684E+04</rscale>
<asrwt>0</asrwt>
<pdfrwt beam="2">  1        1 0.50515312E+00 0.43073684E+04</pdfrwt>
<pdfrwt beam="1">  1       -1 0.21732730E+00 0.43073684E+04</pdfrwt>
<totfact> 0.32154212E-02</totfact>
</mgrwt>
</event>
<event>
 4    1  0.2019612E-008  0.2281488E+04  0.7816531E-02  0.8485256E-01
         -2   -1    0    0    0  501 -0.00000000000E+00  0.00000000000E+00  0.25064013873E+03  0.25064013873E+03  0.00000000000E+00 0. -1.
          2   -1    0    0  501    0  0.00000000000E+00 -0.00000000000E+00 -0.51918918884E+04  0.51918918884E+04  0.00000000000E+00 0.  1.
    2000013    1    1    2    0    0  0.33370572924E+03 -0.43827680682E+03 -0.32072470421E+04  0.33900412479E+04  0.95000000000E+03 0.  0.
   -2000013    1    1    2    0    0 -0.33370572924E+03  0.43827680682E+03 -0.17340047076E+04  0.20524907793E+04  0.95000000000E+03 0.  0.
<mgrwt>
<rscale>  0 0.22814877E+04</rscale>
<asrwt>0</asrwt>
<pdfrwt beam="2">  1        2 0.79875258E+00 0.22814877E+04</pdfrwt>
<pdfrwt beam="1">  1       -2 0.38560022E-01 0.22814877E+04</pdfrwt>
<totfact> 0.11131344E-01</totfact>
</mgrwt>
</event>
<event>
 4    1  0.2019612E-008  0.3833475E+04  0.7816531E-02  0.8039009E-01
          4   -1    0    0  501    0  0.00000000000E+00  0.00000000000E+00  0.22838611342E+04  0.22838611342E+04  0.00000000000E+00 0.  1.
         -4   -1    0    0    0  501 -0.00000000000E+00 -0.00000000000E+00 -0.16086277536E+04  0.16086277536E+04  0.00000000000E+00 0. -1.
    2000013    1    1    2    0    0  0.85184959906E+03  0.13906188632E+04  0.67730192214E+03  0.20051699319E+04  0.95000000000E+03 0.  0.
   -2000013    1    1    2    0    0 -0.85184959906E+03 -0.13906188632E+04 -0.20685416165E+01  0.18873189558E+04  0.95000000000E+03 0.  0.
<mgrwt>
<rscale>  0 0.38334749E+04</rscale>
<asrwt>0</asrwt>
<pdfrwt beam="1">  1        4 0.35136325E+00 0.38334749E+04</pdfrwt>
<pdfrwt beam="2">  1       -4 0.24748119E+00 0.38334749E+04</pdfrwt>
<totfact> 0.14917634E-03</totfact>
</mgrwt>
</event>
<event>
 4    1  0.2019612E-008  0.2058940E+04  0.7816531E-02  0.8579550E-01
         -2   -1    0    0    0  501 -0.00000000000E+00  0.00000000000E+00  0.53187621387E+03  0.53187621387E+03  0.00000000000E+00 0. -1.
          2   -1    0    0  501    0  0.00000000000E+00 -0.00000000000E+00 -0.19925842314E+04  0.19925842314E+04  0.00000000000E+00 0.  1.
    2000013    1    1    2    0    0 -0.33380812118E+03  0.65127889304E+02 -0.48016208750E+03  0.11174637059E+04  0.95000000000E+03 0.  0.
   -2000013    1    1    2    0    0  0.33380812118E+03 -0.65127889304E+02 -0.98054593004E+03  0.14069967394E+04  0.95000000000E+03 0.  0.
<mgrwt>
<rscale>  0 0.20589397E+04</rscale>
<asrwt>0</asrwt>
<pdfrwt beam="2">  1        2 0.30655142E+00 0.20589397E+04</pdfrwt>
<pdfrwt beam="1">  1       -2 0.81827110E-01 0.20589397E+04</pdfrwt>
<totfact> 0.81918726E+00</totfact>
</mgrwt>
</event>
<event>
 4    1  0.2019612E-008  0.2030060E+04  0.7816531E-02  0.8592694E-01
         -2   -1    0    0    0  501 -0.00000000000E+00  0.00000000000E+00  0.70803857710E+03  0.70803857710E+03  0.00000000000E+00 0. -1.
          2   -1    0    0  501    0  0.00000000000E+00 -0.00000000000E+00 -0.14551271960E+04  0.14551271960E+04  0.00000000000E+00 0.  1.
    2000013    1    1    2    0    0  0.23744278869E+03  0.26682767181E+03 -0.35809891325E+03  0.10762485382E+04  0.95000000000E+03 0.  0.
   -2000013    1    1    2    0    0 -0.23744278869E+03 -0.26682767181E+03 -0.38898970562E+03  0.10869172349E+04  0.95000000000E+03 0.  0.
<mgrwt>
<rscale>  0 0.20300603E+04</rscale>
<asrwt>0</asrwt>
<pdfrwt beam="2">  1        2 0.22386572E+00 0.20300603E+04</pdfrwt>
<pdfrwt beam="1">  1       -2 0.10892901E+00 0.20300603E+04</pdfrwt>
<totfact> 0.83935927E+00</totfact>
</mgrwt>
</event>
<event>
 4    1  0.2019612E-008  0.2615086E+04  0.7816531E-02  0.8363095E-01
         -2   -1    0    0    0  501 -0.00000000000E+00  0.00000000000E+00  0.86584120635E+03  0.86584120635E+03  0.00000000000E+00 0. -1.
          2   -1    0    0  501    0  0.00000000000E+00 -0.00000000000E+00 -0.19745750461E+04  0.19745750461E+04  0.00000000000E+00 0.  1.
    2000013    1    1    2    0    0  0.21136746040E+02  0.86936336549E+03 -0.79948688779E+03  0.15158887515E+04  0.95000000000E+03 0.  0.
   -2000013    1    1    2    0    0 -0.21136746040E+02 -0.86936336549E+03 -0.30924695192E+03  0.13245275009E+04  0.95000000000E+03 0.  0.
<mgrwt>
<rscale>  0 0.26150858E+04</rscale>
<asrwt>0</asrwt>
<pdfrwt beam="2">  1        2 0.30378077E+00 0.26150858E+04</pdfrwt>
<pdfrwt beam="1">  1       -2 0.13320634E+00 0.26150858E+04</pdfrwt>
<totfact> 0.24894608E+00</totfact>
</mgrwt>
</event>
<event>
 4    1  0.2019612E-008  0.2228365E+04  0.7816531E-02  0.8506714E-01
         -2   -1    0    0    0  501 -0.00000000000E+00  0.00000000000E+00  0.44679690196E+03  0.44679690196E+03  0.00000000000E+00 0. -1.
          2   -1    0    0  501    0  0.00000000000E+00 -0.00000000000E+00 -0.27784504632E+04  0.27784504632E+04  0.00000000000E+00 0.  1.
    2000013    1    1    2    0    0  0.42076826131E+03 -0.39746861124E+03 -0.12559339056E+04  0.16777655384E+04  0.95000000000E+03 0.  0.
   -2000013    1    1    2    0    0 -0.42076826131E+03  0.39746861124E+03 -0.10757196557E+04  0.15474818268E+04  0.95000000000E+03 0.  0.
<mgrwt>
<rscale>  0 0.22283654E+04</rscale>
<asrwt>0</asrwt>
<pdfrwt beam="2">  1        2 0.42745392E+00 0.22283654E+04</pdfrwt>
<pdfrwt beam="1">  1       -2 0.68737985E-01 0.22283654E+04</pdfrwt>
<totfact> 0.42050688E+00</totfact>
</mgrwt>
</event>
<event>
 4    1  0.2019612E-008  0.2507365E+04  0.7816531E-02  0.8400366E-01
          2   -1    0    0  501    0  0.00000000000E+00  0.00000000000E+00  0.20608320727E+04  0.20608320727E+04  0.00000000000E+00 0.  1.
         -2   -1    0    0    0  501 -0.00000000000E+00 -0.00000000000E+00 -0.76266289482E+03  0.76266289482E+03  0.00000000000E+00 0. -1.
    2000013    1    1    2    0    0  0.41043097609E+03  0.12174707307E+03 -0.13590269371E+03  0.10508308513E+04  0.95000000000E+03 0.  0.
   -2000013    1    1    2    0    0 -0.41043097609E+03 -0.12174707307E+03  0.14340718715E+04  0.17726641162E+04  0.95000000000E+03 0.  0.
<mgrwt>
<rscale>  0 0.25073653E+04</rscale>
<asrwt>0</asrwt>
<pdfrwt beam="1">  1        2 0.31705109E+00 0.25073653E+04</pdfrwt>
<pdfrwt beam="2">  1       -2 0.11733275E+00 0.25073653E+04</pdfrwt>
<totfact> 0.30918508E+00</totfact>
</mgrwt>
</event>
<event>
 4    1  0.2019612E-008  0.2351997E+04  0.7816531E-02  0.8457697E-01
          2   -1    0    0  501    0  0.00000000000E+00  0.00000000000E+00  0.14149487981E+04  0.14149487981E+04  0.00000000000E+00 0.  1.
         -2   -1    0    0    0  501 -0.00000000000E+00 -0.00000000000E+00 -0.97740096675E+03  0.97740096675E+03  0.00000000000E+00 0. -1.
    2000013    1    1    2    0    0 -0.22531717023E+03  0.63459833558E+03  0.51670649393E+02  0.11656125989E+04  0.95000000000E+03 0.  0.
   -2000013    1    1    2    0    0  0.22531717023E+03 -0.63459833558E+03  0.38587718192E+03  0.12267371659E+04  0.95000000000E+03 0.  0.
<mgrwt>
<rscale>  0 0.23519969E+04</rscale>
<asrwt>0</asrwt>
<pdfrwt beam="1">  1        2 0.21768443E+00 0.23519969E+04</pdfrwt>
<pdfrwt beam="2">  1       -2 0.15036938E+00 0.23519969E+04</pdfrwt>
<totfact> 0.38133856E+00</totfact>
</mgrwt>
</event>
<event>
 4    1  0.2019612E-008  0.2459823E+04  0.7816531E-02  0.8417440E-01
          2   -1    0    0  501    0  0.00000000000E+00  0.00000000000E+00  0.26440339098E+04  0.26440339098E+04  0.00000000000E+00 0.  1.
         -2   -1    0    0    0  501 -0.00000000000E+00 -0.00000000000E+00 -0.57211167914E+03  0.57211167914E+03  0.00000000000E+00 0. -1.
    2000013    1    1    2    0    0 -0.33323383099E+03 -0.54086871789E+03  0.44167468375E+03  0.12252184631E+04  0.95000000000E+03 0.  0.
   -2000013    1    1    2    0    0  0.33323383099E+03  0.54086871789E+03  0.16302475469E+04  0.19909271258E+04  0.95000000000E+03 0.  0.
<mgrwt>
<rscale>  0 0.24598233E+04</rscale>
<asrwt>0</asrwt>
<pdfrwt beam="1">  1        2 0.40677444E+00 0.24598233E+04</pdfrwt>
<pdfrwt beam="2">  1       -2 0.88017183E-01 0.24598233E+04</pdfrwt>
<totfact> 0.28533845E+00</totfact>
</mgrwt>
</event>
<event>
 4    1  0.2019612E-008  0.2620049E+04  0.7816531E-02  0.8361423E-01
         -1   -1    0    0    0  501 -0.00000000000E+00  0.00000000000E+00  0.16514174525E+04  0.16514174525E+04  0.00000000000E+00 0. -1.
          1   -1    0    0  501    0  0.00000000000E+00 -0.00000000000E+00 -0.10392066665E+04  0.10392066665E+04  0.00000000000E+00 0.  1.
    2000013    1    1    2    0    0 -0.48443991095E+03  0.73384422585E+03  0.51265666144E+03  0.13923096738E+04  0.95000000000E+03 0.  0.
   -2000013    1    1    2    0    0  0.48443991095E+03 -0.73384422585E+03  0.99554124572E+02  0.12983144453E+04  0.95000000000E+03 0.  0.
<mgrwt>
<rscale>  0 0.26200489E+04</rscale>
<asrwt>0</asrwt>
<pdfrwt beam="2">  1        1 0.15987795E+00 0.26200489E+04</pdfrwt>
<pdfrwt beam="1">  1       -1 0.25406422E+00 0.26200489E+04</pdfrwt>
<totfact> 0.81339146E-01</totfact>
</mgrwt>
</event>
<event>
 4    1  0.2019612E-008  0.2054061E+04  0.7816531E-02  0.8581754E-01
         -1   -1    0    0    0  501 -0.00000000000E+00  0.00000000000E+00  0.62083094477E+03  0.62083094477E+03  0.00000000000E+00 0. -1.
          1   -1    0    0  501    0  0.00000000000E+00 -0.00000000000E+00 -0.16989996857E+04  0.16989996857E+04  0.00000000000E+00 0.  1.
    2000013    1    1    2    0    0  0.27127220232E+03 -0.27150053685E+03 -0.45930107464E+03  0.11228350843E+04  0.95000000000E+03 0.  0.
   -2000013    1    1    2    0    0 -0.27127220232E+03  0.27150053685E+03 -0.61886766628E+03  0.11969955462E+04  0.95000000000E+03 0.  0.
<mgrwt>
<rscale>  0 0.20540609E+04</rscale>
<asrwt>0</asrwt>
<pdfrwt beam="2">  1        1 0.26138456E+00 0.20540609E+04</pdfrwt>
<pdfrwt beam="1">  1       -1 0.95512455E-01 0.20540609E+04</pdfrwt>
<totfact> 0.46621468E+00</totfact>
</mgrwt>
</event>
<event>
 4    1  0.2019612E-008  0.2677571E+04  0.7816531E-02  0.8342319E-01
         -1   -1    0    0    0  501 -0.00000000000E+00  0.00000000000E+00  0.12225186525E+04  0.12225186525E+04  0.00000000000E+00 0. -1.
          1   -1    0    0  501    0  0.00000000000E+00 -0.00000000000E+00 -0.14661101297E+04  0.14661101297E+04  0.00000000000E+00 0.  1.
    2000013    1    1    2    0    0  0.33845056767E+03 -0.87090877848E+03  0.84166641507E+01  0.13325170646E+04  0.95000000000E+03 0.  0.
   -2000013    1    1    2    0    0 -0.33845056767E+03  0.87090877848E+03 -0.25200814133E+03  0.13561117176E+04  0.95000000000E+03 0.  0.
<mgrwt>
<rscale>  0 0.26775713E+04</rscale>
<asrwt>0</asrwt>
<pdfrwt beam="2">  1        1 0.22555540E+00 0.26775713E+04</pdfrwt>
<pdfrwt beam="1">  1       -1 0.18807979E+00 0.26775713E+04</pdfrwt>
<totfact> 0.11014327E+00</totfact>
</mgrwt>
</event>
<event>
 4    1  0.2019612E-008  0.2620372E+04  0.7816531E-02  0.8361314E-01
          2   -1    0    0  501    0  0.00000000000E+00  0.00000000000E+00  0.14636126466E+04  0.14636126466E+04  0.00000000000E+00 0.  1.
         -2   -1    0    0    0  501 -0.00000000000E+00 -0.00000000000E+00 -0.11728425574E+04  0.11728425574E+04  0.00000000000E+00 0. -1.
    2000013    1    1    2    0    0  0.61353658587E+03 -0.42448454450E+03  0.65591737845E+03  0.13745333310E+04  0.95000000000E+03 0.  0.
   -2000013    1    1    2    0    0 -0.61353658587E+03  0.42448454450E+03 -0.36514728926E+03  0.12619218730E+04  0.95000000000E+03 0.  0.
<mgrwt>
<rscale>  0 0.26203719E+04</rscale>
<asrwt>0</asrwt>
<pdfrwt beam="1">  1        2 0.22517118E+00 0.26203719E+04</pdfrwt>
<pdfrwt beam="2">  1       -2 0.18043732E+00 0.26203719E+04</pdfrwt>
<totfact> 0.21169125E+00</totfact>
</mgrwt>
</event>
<event>
 4    1  0.2019612E-008  0.2177623E+04  0.7816531E-02  0.8527800E-01
          2   -1    0    0  501    0  0.00000000000E+00  0.00000000000E+00  0.28750365332E+04  0.28750365332E+04  0.00000000000E+00 0.  1.
         -2   -1    0    0    0  501 -0.00000000000E+00 -0.00000000000E+00 -0.41234615650E+03  0.41234615650E+03  0.00000000000E+00 0. -1.
    2000013    1    1    2    0    0 -0.51547859780E+03  0.13012882697E+03  0.12027591956E+04  0.16222766037E+04  0.95000000000E+03 0.  0.
   -2000013    1    1    2    0    0  0.51547859780E+03 -0.13012882697E+03  0.12599311811E+04  0.16651060859E+04  0.95000000000E+03 0.  0.
<mgrwt>
<rscale>  0 0.21776228E+04</rscale>
<asrwt>0</asrwt>
<pdfrwt beam="1">  1        2 0.44231330E+00 0.21776228E+04</pdfrwt>
<pdfrwt beam="2">  1       -2 0.63437872E-01 0.21776228E+04</pdfrwt>
<totfact> 0.43881210E+00</totfact>
</mgrwt>
</event>
<event>
 4    1  0.2019612E-008  0.2432222E+04  0.7816531E-02  0.8427538E-01
         -2   -1    0    0    0  501 -0.00000000000E+00  0.00000000000E+00  0.17842080507E+04  0.17842080507E+04  0.00000000000E+00 0. -1.
          2   -1    0    0  501    0  0.00000000000E+00 -0.00000000000E+00 -0.82889763933E+03  0.82889763933E+03  0.00000000000E+00 0.  1.
    2000013    1    1    2    0    0  0.55206710604E+03  0.67382369969E+02 -0.77605211649E+02  0.11035583547E+04  0.95000000000E+03 0.  0.
   -2000013    1    1    2    0    0 -0.55206710604E+03 -0.67382369969E+02  0.10329156231E+04  0.15095473354E+04  0.95000000000E+03 0.  0.
<mgrwt>
<rscale>  0 0.24322219E+04</rscale>
<asrwt>0</asrwt>
<pdfrwt beam="2">  1        2 0.12752271E+00 0.24322219E+04</pdfrwt>
<pdfrwt beam="1">  1       -2 0.27449355E+00 0.24322219E+04</pdfrwt>
<totfact> 0.13402282E+00</totfact>
</mgrwt>
</event>
<event>
 4    1  0.2019612E-008  0.2114433E+04  0.7816531E-02  0.8554912E-01
         -2   -1    0    0    0  501 -0.00000000000E+00  0.00000000000E+00  0.33113501432E+03  0.33113501432E+03  0.00000000000E+00 0. -1.
          2   -1    0    0  501    0  0.00000000000E+00 -0.00000000000E+00 -0.33753807407E+04  0.33753807407E+04  0.00000000000E+00 0.  1.
    2000013    1    1    2    0    0 -0.28578056850E+02 -0.38072903964E+03 -0.10602073765E+04  0.14738761780E+04  0.95000000000E+03 0.  0.
   -2000013    1    1    2    0    0  0.28578056850E+02  0.38072903964E+03 -0.19840383499E+04  0.22326395770E+04  0.95000000000E+03 0.  0.
<mgrwt>
<rscale>  0 0.21144330E+04</rscale>
<asrwt>0</asrwt>
<pdfrwt beam="2">  1        2 0.51928933E+00 0.21144330E+04</pdfrwt>
<pdfrwt beam="1">  1       -2 0.50943850E-01 0.21144330E+04</pdfrwt>
<totfact> 0.33340814E+00</totfact>
</mgrwt>
</event>
<event>
 4    1  0.2019612E-008  0.2469563E+04  0.7816531E-02  0.8413910E-01
          2   -1    0    0  501    0  0.00000000000E+00  0.00000000000E+00  0.60617698580E+03  0.60617698580E+03  0.00000000000E+00 0.  1.
         -2   -1    0    0    0  501 -0.00000000000E+00 -0.00000000000E+00 -0.25152468991E+04  0.25152468991E+04  0.00000000000E+00 0. -1.
    2000013    1    1    2    0    0 -0.76130393663E+03 -0.20072620577E+03 -0.89378482972E+03  0.15235570273E+04  0.95000000000E+03 0.  0.
   -2000013    1    1    2    0    0  0.76130393663E+03  0.20072620577E+03 -0.10152850836E+04  0.15978668576E+04  0.95000000000E+03 0.  0.
<mgrwt>
<rscale>  0 0.24695625E+04</rscale>
<asrwt>0</asrwt>
<pdfrwt beam="1">  1        2 0.93257996E-01 0.24695625E+04</pdfrwt>
<pdfrwt beam="2">  1       -2 0.38696107E+00 0.24695625E+04</pdfrwt>
<totfact> 0.39552030E-01</totfact>
</mgrwt>
</event>
<event>
 4    1  0.2019612E-008  0.2295063E+04  0.7816531E-02  0.8479870E-01
         -2   -1    0    0    0  501 -0.00000000000E+00  0.00000000000E+00  0.15721945453E+04  0.15721945453E+04  0.00000000000E+00 0. -1.
          2   -1    0    0  501    0  0.00000000000E+00 -0.00000000000E+00 -0.83757317921E+03  0.83757317921E+03  0.00000000000E+00 0.  1.
    2000013    1    1    2    0    0 -0.59761218968E+02 -0.38064663692E+03  0.90870166567E+03  0.13699277290E+04  0.95000000000E+03 0.  0.
   -2000013    1    1    2    0    0  0.59761218968E+02  0.38064663692E+03 -0.17408029961E+03  0.10398399955E+04  0.95000000000E+03 0.  0.
<mgrwt>
<rscale>  0 0.22950625E+04</rscale>
<asrwt>0</asrwt>
<pdfrwt beam="2">  1        2 0.12885741E+00 0.22950625E+04</pdfrwt>
<pdfrwt beam="1">  1       -2 0.24187608E+00 0.22950625E+04</pdfrwt>
<totfact> 0.21177192E+00</totfact>
</mgrwt>
</event>
<event>
 4    1  0.2019612E-008  0.2565095E+04  0.7816531E-02  0.8380155E-01
          2   -1    0    0  501    0  0.00000000000E+00  0.00000000000E+00  0.11905793250E+04  0.11905793250E+04  0.00000000000E+00 0.  1.
         -2   -1    0    0    0  501 -0.00000000000E+00 -0.00000000000E+00 -0.13816201550E+04  0.13816201550E+04  0.00000000000E+00 0. -1.
    2000013    1    1    2    0    0 -0.31765752517E+03  0.77934328898E+03  0.89778071861E+02  0.12723373639E+04  0.95000000000E+03 0.  0.
   -2000013    1    1    2    0    0  0.31765752517E+03 -0.77934328898E+03 -0.28081890181E+03  0.12998621161E+04  0.95000000000E+03 0.  0.
<mgrwt>
<rscale>  0 0.25650952E+04</rscale>
<asrwt>0</asrwt>
<pdfrwt beam="1">  1        2 0.18316605E+00 0.25650952E+04</pdfrwt>
<pdfrwt beam="2">  1       -2 0.21255695E+00 0.25650952E+04</pdfrwt>
<totfact> 0.18767123E+00</totfact>
</mgrwt>
</event>
<event>
 4    1  0.2019612E-008  0.3549446E+04  0.7816531E-02  0.8102171E-01
         -2   -1    0    0    0  501 -0.00000000000E+00  0.00000000000E+00  0.13214879121E+04  0.13214879121E+04  0.00000000000E+00 0. -1.
          2   -1    0    0  501    0  0.00000000000E+00 -0.00000000000E+00 -0.23834060692E+04  0.23834060692E+04  0.00000000000E+00 0.  1.
    2000013    1    1    2    0    0 -0.55952679526E+03  0.13712428686E+04 -0.77298689446E+03  0.19218184041E+04  0.95000000000E+03 0.  0.
   -2000013    1    1    2    0    0  0.55952679526E+03 -0.13712428686E+04 -0.28893126270E+03  0.17830755772E+04  0.95000000000E+03 0.  0.
<mgrwt>
<rscale>  0 0.35494463E+04</rscale>
<asrwt>0</asrwt>
<pdfrwt beam="2">  1        2 0.36667786E+00 0.35494463E+04</pdfrwt>
<pdfrwt beam="1">  1       -2 0.20330583E+00 0.35494463E+04</pdfrwt>
<totfact> 0.42078328E-01</totfact>
</mgrwt>
</event>
<event>
 4    1  0.2019612E-008  0.2338590E+04  0.7816531E-02  0.8462859E-01
          1   -1    0    0  501    0  0.00000000000E+00  0.00000000000E+00  0.14233189945E+04  0.14233189945E+04  0.00000000000E+00 0.  1.
         -1   -1    0    0    0  501 -0.00000000000E+00 -0.00000000000E+00 -0.96060760695E+03  0.96060760695E+03  0.00000000000E+00 0. -1.
    2000013    1    1    2    0    0  0.36153262178E+03 -0.17894111723E+03 -0.32886662679E+03  0.10832262083E+04  0.95000000000E+03 0.  0.
   -2000013    1    1    2    0    0 -0.36153262178E+03  0.17894111723E+03  0.79157801436E+03  0.13007003932E+04  0.95000000000E+03 0.  0.
<mgrwt>
<rscale>  0 0.23385902E+04</rscale>
<asrwt>0</asrwt>
<pdfrwt beam="1">  1        1 0.21897215E+00 0.23385902E+04</pdfrwt>
<pdfrwt beam="2">  1       -1 0.14778579E+00 0.23385902E+04</pdfrwt>
<totfact> 0.24206181E+00</totfact>
</mgrwt>
</event>
<event>
 4    1  0.2019612E-008  0.2400015E+04  0.7816531E-02  0.8439498E-01
          2   -1    0    0  501    0  0.00000000000E+00  0.00000000000E+00  0.14316720765E+04  0.14316720765E+04  0.00000000000E+00 0.  1.
         -2   -1    0    0    0  501 -0.00000000000E+00 -0.00000000000E+00 -0.10058291606E+04  0.10058291606E+04  0.00000000000E+00 0. -1.
    2000013    1    1    2    0    0  0.40990669353E+03  0.40184864341E+03 -0.25028524514E+03  0.11378262317E+04  0.95000000000E+03 0.  0.
   -2000013    1    1    2    0    0 -0.40990669353E+03 -0.40184864341E+03  0.67612816097E+03  0.12996750054E+04  0.95000000000E+03 0.  0.
<mgrwt>
<rscale>  0 0.24000146E+04</rscale>
<asrwt>0</asrwt>
<pdfrwt beam="1">  1        2 0.22025724E+00 0.24000146E+04</pdfrwt>
<pdfrwt beam="2">  1       -2 0.15474295E+00 0.24000146E+04</pdfrwt>
<totfact> 0.34421849E+00</totfact>
</mgrwt>
</event>
<event>
 4    1  0.2019612E-008  0.3807090E+04  0.7816531E-02  0.8044635E-01
         -2   -1    0    0    0  501 -0.00000000000E+00  0.00000000000E+00  0.15910610147E+04  0.15910610147E+04  0.00000000000E+00 0. -1.
          2   -1    0    0  501    0  0.00000000000E+00 -0.00000000000E+00 -0.22774007549E+04  0.22774007549E+04  0.00000000000E+00 0.  1.
    2000013    1    1    2    0    0  0.13972578120E+04  0.74125770178E+03  0.13255593049E+03  0.18498279510E+04  0.95000000000E+03 0.  0.
   -2000013    1    1    2    0    0 -0.13972578120E+04 -0.74125770178E+03 -0.81889567072E+03  0.20186338185E+04  0.95000000000E+03 0.  0.
<mgrwt>
<rscale>  0 0.38070900E+04</rscale>
<asrwt>0</asrwt>
<pdfrwt beam="2">  1        2 0.35036935E+00 0.38070900E+04</pdfrwt>
<pdfrwt beam="1">  1       -2 0.24477862E+00 0.38070900E+04</pdfrwt>
<totfact> 0.25896382E-01</totfact>
</mgrwt>
</event>
<event>
 4    1  0.2019612E-008  0.2455538E+04  0.7816531E-02  0.8418999E-01
          2   -1    0    0  501    0  0.00000000000E+00  0.00000000000E+00  0.11653250046E+04  0.11653250046E+04  0.00000000000E+00 0.  1.
         -2   -1    0    0    0  501 -0.00000000000E+00 -0.00000000000E+00 -0.12935594468E+04  0.12935594468E+04  0.00000000000E+00 0. -1.
    2000013    1    1    2    0    0 -0.77600453567E+03  0.20121246202E+02 -0.11244543909E+03  0.12319626134E+04  0.95000000000E+03 0.  0.
   -2000013    1    1    2    0    0  0.77600453567E+03 -0.20121246202E+02 -0.15789003121E+02  0.12269218380E+04  0.95000000000E+03 0.  0.
<mgrwt>
<rscale>  0 0.24555384E+04</rscale>
<asrwt>0</asrwt>
<pdfrwt beam="1">  1        2 0.17928077E+00 0.24555384E+04</pdfrwt>
<pdfrwt beam="2">  1       -2 0.19900915E+00 0.24555384E+04</pdfrwt>
<totfact> 0.24015834E+00</totfact>
</mgrwt>
</event>
<event>
 4    1  0.2019612E-008  0.2396114E+04  0.7816531E-02  0.8440960E-01
          2   -1    0    0  501    0  0.00000000000E+00  0.00000000000E+00  0.32098603817E+04  0.32098603817E+04  0.00000000000E+00 0.  1.
         -2   -1    0    0    0  501 -0.00000000000E+00 -0.00000000000E+00 -0.44716593292E+03  0.44716593292E+03  0.00000000000E+00 0. -1.
    2000013    1    1    2    0    0 -0.90390291643E+02  0.70633743679E+03  0.16262931751E+04  0.20135571685E+04  0.95000000000E+03 0.  0.
   -2000013    1    1    2    0    0  0.90390291643E+02 -0.70633743679E+03  0.11364012737E+04  0.16434691462E+04  0.95000000000E+03 0.  0.
<mgrwt>
<rscale>  0 0.23961137E+04</rscale>
<asrwt>0</asrwt>
<pdfrwt beam="1">  1        2 0.49382466E+00 0.23961137E+04</pdfrwt>
<pdfrwt beam="2">  1       -2 0.68794761E-01 0.23961137E+04</pdfrwt>
<totfact> 0.22211344E+00</totfact>
</mgrwt>
</event>
<event>
 4    1  0.2019612E-008  0.2431958E+04  0.7816531E-02  0.8427635E-01
          2   -1    0    0  501    0  0.00000000000E+00  0.00000000000E+00  0.20820328609E+04  0.20820328609E+04  0.00000000000E+00 0.  1.
         -2   -1    0    0    0  501 -0.00000000000E+00 -0.00000000000E+00 -0.71017366994E+03  0.71017366994E+03  0.00000000000E+00 0. -1.
    2000013    1    1    2    0    0 -0.47499630027E+03  0.22339838218E+02  0.67012667002E+01  0.10623866813E+04  0.95000000000E+03 0.  0.
   -2000013    1    1    2    0    0  0.47499630027E+03 -0.22339838218E+02  0.13651579242E+04  0.17298198495E+04  0.95000000000E+03 0.  0.
<mgrwt>
<rscale>  0 0.24319580E+04</rscale>
<asrwt>0</asrwt>
<pdfrwt beam="1">  1        2 0.32031275E+00 0.24319580E+04</pdfrwt>
<pdfrwt beam="2">  1       -2 0.10925749E+00 0.24319580E+04</pdfrwt>
<totfact> 0.36017998E+00</totfact>
</mgrwt>
</event>
<event>
 4    1  0.2019612E-008  0.2755058E+04  0.7816531E-02  0.8317358E-01
         -2   -1    0    0    0  501 -0.00000000000E+00  0.00000000000E+00  0.23016033292E+04  0.23016033292E+04  0.00000000000E+00 0. -1.
          2   -1    0    0  501    0  0.00000000000E+00 -0.00000000000E+00 -0.82446282581E+03  0.82446282581E+03  0.00000000000E+00 0.  1.
    2000013    1    1    2    0    0  0.83344795961E+02  0.40905060762E+03  0.17665646047E+04  0.20487848245E+04  0.95000000000E+03 0.  0.
   -2000013    1    1    2    0    0 -0.83344795961E+02 -0.40905060762E+03 -0.28942410131E+03  0.10772813305E+04  0.95000000000E+03 0.  0.
<mgrwt>
<rscale>  0 0.27550582E+04</rscale>
<asrwt>0</asrwt>
<pdfrwt beam="2">  1        2 0.12684044E+00 0.27550582E+04</pdfrwt>
<pdfrwt beam="1">  1       -2 0.35409282E+00 0.27550582E+04</pdfrwt>
<totfact> 0.42353624E-01</totfact>
</mgrwt>
</event>
<event>
 4    1  0.2019612E-008  0.2948615E+04  0.7816531E-02  0.8258558E-01
         -2   -1    0    0    0  501 -0.00000000000E+00  0.00000000000E+00  0.10792159944E+04  0.10792159944E+04  0.00000000000E+00 0. -1.
          2   -1    0    0  501    0  0.00000000000E+00 -0.00000000000E+00 -0.20140379054E+04  0.20140379054E+04  0.00000000000E+00 0.  1.
    2000013    1    1    2    0    0 -0.22156592112E+03  0.89975241362E+03 -0.11411254335E+04  0.17502323041E+04  0.95000000000E+03 0.  0.
   -2000013    1    1    2    0    0  0.22156592112E+03 -0.89975241362E+03  0.20630352245E+03  0.13430215957E+04  0.95000000000E+03 0.  0.
<mgrwt>
<rscale>  0 0.29486145E+04</rscale>
<asrwt>0</asrwt>
<pdfrwt beam="2">  1        2 0.30985198E+00 0.29486145E+04</pdfrwt>
<pdfrwt beam="1">  1       -2 0.16603323E+00 0.29486145E+04</pdfrwt>
<totfact> 0.12837757E+00</totfact>
</mgrwt>
</event>
<event>
 4    1  0.2019612E-008  0.2108366E+04  0.7816531E-02  0.8557567E-01
          2   -1    0    0  501    0  0.00000000000E+00  0.00000000000E+00  0.16334072360E+04  0.16334072360E+04  0.00000000000E+00 0.  1.
         -2   -1    0    0    0  501 -0.00000000000E+00 -0.00000000000E+00 -0.68035822372E+03  0.68035822372E+03  0.00000000000E+00 0. -1.
    2000013    1    1    2    0    0 -0.26433835097E+03 -0.28716417895E+03  0.21575358333E+03  0.10494701702E+04  0.95000000000E+03 0.  0.
   -2000013    1    1    2    0    0  0.26433835097E+03  0.28716417895E+03  0.73729542893E+03  0.12642952895E+04  0.95000000000E+03 0.  0.
<mgrwt>
<rscale>  0 0.21083662E+04</rscale>
<asrwt>0</asrwt>
<pdfrwt beam="1">  1        2 0.25129342E+00 0.21083662E+04</pdfrwt>
<pdfrwt beam="2">  1       -2 0.10467050E+00 0.21083662E+04</pdfrwt>
<totfact> 0.72868458E+00</totfact>
</mgrwt>
</event>
<event>
 4    1  0.2019612E-008  0.2244967E+04  0.7816531E-02  0.8499942E-01
          2   -1    0    0  501    0  0.00000000000E+00  0.00000000000E+00  0.28071542789E+04  0.28071542789E+04  0.00000000000E+00 0.  1.
         -2   -1    0    0    0  501 -0.00000000000E+00 -0.00000000000E+00 -0.44884218495E+03  0.44884218495E+03  0.00000000000E+00 0. -1.
    2000013    1    1    2    0    0 -0.14056165541E+03 -0.57838250489E+03  0.10972995506E+04  0.15687097261E+04  0.95000000000E+03 0.  0.
   -2000013    1    1    2    0    0  0.14056165541E+03  0.57838250489E+03  0.12610125433E+04  0.16872867377E+04  0.95000000000E+03 0.  0.
<mgrwt>
<rscale>  0 0.22449670E+04</rscale>
<asrwt>0</asrwt>
<pdfrwt beam="1">  1        2 0.43186988E+00 0.22449670E+04</pdfrwt>
<pdfrwt beam="2">  1       -2 0.69052646E-01 0.22449670E+04</pdfrwt>
<totfact> 0.39949240E+00</totfact>
</mgrwt>
</event>
<event>
 4    1  0.2019612E-008  0.2509259E+04  0.7816531E-02  0.8399695E-01
          2   -1    0    0  501    0  0.00000000000E+00  0.00000000000E+00  0.10459709680E+04  0.10459709680E+04  0.00000000000E+00 0.  1.
         -2   -1    0    0    0  501 -0.00000000000E+00 -0.00000000000E+00 -0.15049124574E+04  0.15049124574E+04  0.00000000000E+00 0. -1.
    2000013    1    1    2    0    0  0.74591541170E+03  0.18161695951E+03  0.62026527971E+02  0.12229970611E+04  0.95000000000E+03 0.  0.
   -2000013    1    1    2    0    0 -0.74591541170E+03 -0.18161695951E+03 -0.52096801733E+03  0.13278863643E+04  0.95000000000E+03 0.  0.
<mgrwt>
<rscale>  0 0.25092586E+04</rscale>
<asrwt>0</asrwt>
<pdfrwt beam="1">  1        2 0.16091861E+00 0.25092586E+04</pdfrwt>
<pdfrwt beam="2">  1       -2 0.23152499E+00 0.25092586E+04</pdfrwt>
<totfact> 0.17548733E+00</totfact>
</mgrwt>
</event>
<event>
 4    1  0.2019612E-008  0.3710032E+04  0.7816531E-02  0.8065742E-01
         -2   -1    0    0    0  501 -0.00000000000E+00  0.00000000000E+00  0.95767408353E+03  0.95767408353E+03  0.00000000000E+00 0. -1.
          2   -1    0    0  501    0  0.00000000000E+00 -0.00000000000E+00 -0.35931687126E+04  0.35931687126E+04  0.00000000000E+00 0.  1.
    2000013    1    1    2    0    0  0.93250162244E+03 -0.85990362945E+03 -0.25004079101E+04  0.29603265436E+04  0.95000000000E+03 0.  0.
   -2000013    1    1    2    0    0 -0.93250162244E+03  0.85990362945E+03 -0.13508671891E+03  0.15905162525E+04  0.95000000000E+03 0.  0.
<mgrwt>
<rscale>  0 0.37100321E+04</rscale>
<asrwt>0</asrwt>
<pdfrwt beam="2">  1        2 0.55279518E+00 0.37100321E+04</pdfrwt>
<pdfrwt beam="1">  1       -2 0.14733448E+00 0.37100321E+04</pdfrwt>
<totfact> 0.17684633E-01</totfact>
</mgrwt>
</event>
<event>
 4    1  0.2019612E-008  0.2480881E+04  0.7816531E-02  0.8409829E-01
          2   -1    0    0  501    0  0.00000000000E+00  0.00000000000E+00  0.88256258851E+03  0.88256258851E+03  0.00000000000E+00 0.  1.
         -2   -1    0    0    0  501 -0.00000000000E+00 -0.00000000000E+00 -0.17434367536E+04  0.17434367536E+04  0.00000000000E+00 0. -1.
    2000013    1    1    2    0    0 -0.75372706784E+03  0.24375159104E+03 -0.52901201875E+03  0.13453152221E+04  0.95000000000E+03 0.  0.
   -2000013    1    1    2    0    0  0.75372706784E+03 -0.24375159104E+03 -0.33186214631E+03  0.12806841199E+04  0.95000000000E+03 0.  0.
<mgrwt>
<rscale>  0 0.24808805E+04</rscale>
<asrwt>0</asrwt>
<pdfrwt beam="1">  1        2 0.13577886E+00 0.24808805E+04</pdfrwt>
<pdfrwt beam="2">  1       -2 0.26822103E+00 0.24808805E+04</pdfrwt>
<totfact> 0.13376706E+00</totfact>
</mgrwt>
</event>
<event>
 4    1  0.2019612E-008  0.2341424E+04  0.7816531E-02  0.8461765E-01
          1   -1    0    0  501    0  0.00000000000E+00  0.00000000000E+00  0.27217699314E+04  0.27217699314E+04  0.00000000000E+00 0.  1.
         -1   -1    0    0    0  501 -0.00000000000E+00 -0.00000000000E+00 -0.50355718035E+03  0.50355718035E+03  0.00000000000E+00 0. -1.
    2000013    1    1    2    0    0 -0.29042101715E+03  0.49764224761E+03  0.60096772295E+03  0.12631921381E+04  0.95000000000E+03 0.  0.
   -2000013    1    1    2    0    0  0.29042101715E+03 -0.49764224761E+03  0.16172450281E+04  0.19621349736E+04  0.95000000000E+03 0.  0.
<mgrwt>
<rscale>  0 0.23414242E+04</rscale>
<asrwt>0</asrwt>
<pdfrwt beam="1">  1        1 0.41873383E+00 0.23414242E+04</pdfrwt>
<pdfrwt beam="2">  1       -1 0.77470337E-01 0.23414242E+04</pdfrwt>
<totfact> 0.14247587E+00</totfact>
</mgrwt>
</event>
<event>
 4    1  0.2019612E-008  0.2251469E+04  0.7816531E-02  0.8497306E-01
          2   -1    0    0  501    0  0.00000000000E+00  0.00000000000E+00  0.71616960178E+03  0.71616960178E+03  0.00000000000E+00 0.  1.
         -2   -1    0    0    0  501 -0.00000000000E+00 -0.00000000000E+00 -0.17695223713E+04  0.17695223713E+04  0.00000000000E+00 0. -1.
    2000013    1    1    2    0    0 -0.54400341645E+03  0.24904357825E+03 -0.61782224103E+03  0.12814705391E+04  0.95000000000E+03 0.  0.
   -2000013    1    1    2    0    0  0.54400341645E+03 -0.24904357825E+03 -0.43553052853E+03  0.12042214341E+04  0.95000000000E+03 0.  0.
<mgrwt>
<rscale>  0 0.22514690E+04</rscale>
<asrwt>0</asrwt>
<pdfrwt beam="1">  1        2 0.11017994E+00 0.22514690E+04</pdfrwt>
<pdfrwt beam="2">  1       -2 0.27223421E+00 0.22514690E+04</pdfrwt>
<totfact> 0.17014860E+00</totfact>
</mgrwt>
</event>
<event>
 4    1  0.2019612E-008  0.2242860E+04  0.7816531E-02  0.8500798E-01
          2   -1    0    0  501    0  0.00000000000E+00  0.00000000000E+00  0.34218027735E+04  0.34218027735E+04  0.00000000000E+00 0.  1.
         -2   -1    0    0    0  501 -0.00000000000E+00 -0.00000000000E+00 -0.36752715415E+03  0.36752715415E+03  0.00000000000E+00 0. -1.
    2000013    1    1    2    0    0 -0.50077032308E+03  0.19161164258E+03  0.19664732016E+04  0.22487780661E+04  0.95000000000E+03 0.  0.
   -2000013    1    1    2    0    0  0.50077032308E+03 -0.19161164258E+03  0.10878024178E+04  0.15405518616E+04  0.95000000000E+03 0.  0.
<mgrwt>
<rscale>  0 0.22428602E+04</rscale>
<asrwt>0</asrwt>
<pdfrwt beam="1">  1        2 0.52643117E+00 0.22428602E+04</pdfrwt>
<pdfrwt beam="2">  1       -2 0.56542642E-01 0.22428602E+04</pdfrwt>
<totfact> 0.24688953E+00</totfact>
</mgrwt>
</event>
<event>
 4    1  0.2019612E-008  0.2113975E+04  0.7816531E-02  0.8555112E-01
         -2   -1    0    0    0  501 -0.00000000000E+00  0.00000000000E+00  0.95862154906E+03  0.95862154906E+03  0.00000000000E+00 0. -1.
          2   -1    0    0  501    0  0.00000000000E+00 -0.00000000000E+00 -0.11654470820E+04  0.11654470820E+04  0.00000000000E+00 0.  1.
    2000013    1    1    2    0    0  0.27839248249E+03  0.20162752872E+03 -0.41564825608E+03  0.10924374158E+04  0.95000000000E+03 0.  0.
   -2000013    1    1    2    0    0 -0.27839248249E+03 -0.20162752872E+03  0.20882272312E+03  0.10316312153E+04  0.95000000000E+03 0.  0.
<mgrwt>
<rscale>  0 0.21139751E+04</rscale>
<asrwt>0</asrwt>
<pdfrwt beam="2">  1        2 0.17929955E+00 0.21139751E+04</pdfrwt>
<pdfrwt beam="1">  1       -2 0.14748024E+00 0.21139751E+04</pdfrwt>
<totfact> 0.57316681E+00</totfact>
</mgrwt>
</event>
<event>
 4    1  0.2019612E-008  0.3030582E+04  0.7816531E-02  0.8235051E-01
         -2   -1    0    0    0  501 -0.00000000000E+00  0.00000000000E+00  0.76254386919E+03  0.76254386919E+03  0.00000000000E+00 0. -1.
          2   -1    0    0  501    0  0.00000000000E+00 -0.00000000000E+00 -0.30111147799E+04  0.30111147799E+04  0.00000000000E+00 0.  1.
    2000013    1    1    2    0    0 -0.75202523403E+03 -0.85757216512E+03 -0.15032725620E+04  0.21126524481E+04  0.95000000000E+03 0.  0.
   -2000013    1    1    2    0    0  0.75202523403E+03  0.85757216512E+03 -0.74529834878E+03  0.16610062010E+04  0.95000000000E+03 0.  0.
<mgrwt>
<rscale>  0 0.30305822E+04</rscale>
<asrwt>0</asrwt>
<pdfrwt beam="2">  1        2 0.46324844E+00 0.30305822E+04</pdfrwt>
<pdfrwt beam="1">  1       -2 0.11731444E+00 0.30305822E+04</pdfrwt>
<totfact> 0.82107149E-01</totfact>
</mgrwt>
</event>
<event>
 4    1  0.2019612E-008  0.3322655E+04  0.7816531E-02  0.8157155E-01
          1   -1    0    0  501    0  0.00000000000E+00  0.00000000000E+00  0.13960725517E+04  0.13960725517E+04  0.00000000000E+00 0. -1.
         -1   -1    0    0    0  501 -0.00000000000E+00 -0.00000000000E+00 -0.19769813115E+04  0.19769813115E+04  0.00000000000E+00 0.  1.
    2000013    1    1    2    0    0  0.48962406268E+03 -0.12719102333E+04 -0.29521375937E+03  0.16873465939E+04  0.95000000000E+03 0.  0.
   -2000013    1    1    2    0    0 -0.48962406268E+03  0.12719102333E+04 -0.28569500046E+03  0.16857072693E+04  0.95000000000E+03 0.  0.
<mgrwt>
<rscale>  0 0.33226552E+04</rscale>
<asrwt>0</asrwt>
<pdfrwt beam="1">  1        1 0.21478039E+00 0.33226552E+04</pdfrwt>
<pdfrwt beam="2">  1       -1 0.30415097E+00 0.33226552E+04</pdfrwt>
<totfact> 0.19868694E-01</totfact>
</mgrwt>
</event>
<event>
 4    1  0.2019612E-008  0.2952267E+04  0.7816531E-02  0.8257494E-01
          2   -1    0    0  501    0  0.00000000000E+00  0.00000000000E+00  0.12969916685E+04  0.12969916685E+04  0.00000000000E+00 0.  1.
         -2   -1    0    0    0  501 -0.00000000000E+00 -0.00000000000E+00 -0.16800189949E+04  0.16800189949E+04  0.00000000000E+00 0. -1.
    2000013    1    1    2    0    0  0.96446140149E+03 -0.15235440667E+03  0.38164521447E+03  0.14147617220E+04  0.95000000000E+03 0.  0.
   -2000013    1    1    2    0    0 -0.96446140149E+03  0.15235440667E+03 -0.76467254091E+03  0.15622489414E+04  0.95000000000E+03 0.  0.
<mgrwt>
<rscale>  0 0.29522674E+04</rscale>
<asrwt>0</asrwt>
<pdfrwt beam="1">  1        2 0.19953718E+00 0.29522674E+04</pdfrwt>
<pdfrwt beam="2">  1       -2 0.25846446E+00 0.29522674E+04</pdfrwt>
<totfact> 0.81325869E-01</totfact>
</mgrwt>
</event>
<event>
 4    1  0.2019612E-008  0.2558640E+04  0.7816531E-02  0.8382387E-01
          2   -1    0    0  501    0  0.00000000000E+00  0.00000000000E+00  0.14651812655E+04  0.14651812655E+04  0.00000000000E+00 0.  1.
         -2   -1    0    0    0  501 -0.00000000000E+00 -0.00000000000E+00 -0.11170360009E+04  0.11170360009E+04  0.00000000000E+00 0. -1.
    2000013    1    1    2    0    0  0.71150384109E+03  0.47414661712E+03  0.11781409202E+03  0.12835236230E+04  0.95000000000E+03 0.  0.
   -2000013    1    1    2    0    0 -0.71150384109E+03 -0.47414661712E+03  0.23033117251E+03  0.12986936434E+04  0.95000000000E+03 0.  0.
<mgrwt>
<rscale>  0 0.25586404E+04</rscale>
<asrwt>0</asrwt>
<pdfrwt beam="1">  1        2 0.22541250E+00 0.25586404E+04</pdfrwt>
<pdfrwt beam="2">  1       -2 0.17185169E+00 0.25586404E+04</pdfrwt>
<totfact> 0.24383485E+00</totfact>
</mgrwt>
</event>
<event>
 4    1  0.2019612E-008  0.3144593E+04  0.7816531E-02  0.8203605E-01
         -2   -1    0    0    0  501 -0.00000000000E+00  0.00000000000E+00  0.98999532099E+03  0.98999532099E+03  0.00000000000E+00 0. -1.
          2   -1    0    0  501    0  0.00000000000E+00 -0.00000000000E+00 -0.24970997312E+04  0.24970997312E+04  0.00000000000E+00 0.  1.
    2000013    1    1    2    0    0  0.97647110758E+03 -0.38439735982E+03  0.53557851391E+01  0.14155514256E+04  0.95000000000E+03 0.  0.
   -2000013    1    1    2    0    0 -0.97647110758E+03  0.38439735982E+03 -0.15124601954E+04  0.20715436266E+04  0.95000000000E+03 0.  0.
<mgrwt>
<rscale>  0 0.31445935E+04</rscale>
<asrwt>0</asrwt>
<pdfrwt beam="2">  1        2 0.38416919E+00 0.31445935E+04</pdfrwt>
<pdfrwt beam="1">  1       -2 0.15230697E+00 0.31445935E+04</pdfrwt>
<totfact> 0.85030592E-01</totfact>
</mgrwt>
</event>
<event>
 4    1  0.2019612E-008  0.2108059E+04  0.7816531E-02  0.8557701E-01
          2   -1    0    0  501    0  0.00000000000E+00  0.00000000000E+00  0.10592578013E+04  0.10592578013E+04  0.00000000000E+00 0.  1.
         -2   -1    0    0    0  501 -0.00000000000E+00 -0.00000000000E+00 -0.10488274552E+04  0.10488274552E+04  0.00000000000E+00 0. -1.
    2000013    1    1    2    0    0 -0.31719120844E+03  0.31691822674E+03 -0.80990517026E+02  0.10536161013E+04  0.95000000000E+03 0.  0.
   -2000013    1    1    2    0    0  0.31719120844E+03 -0.31691822674E+03  0.91420863112E+02  0.10544691552E+04  0.95000000000E+03 0.  0.
<mgrwt>
<rscale>  0 0.21080595E+04</rscale>
<asrwt>0</asrwt>
<pdfrwt beam="1">  1        2 0.16296274E+00 0.21080595E+04</pdfrwt>
<pdfrwt beam="2">  1       -2 0.16135807E+00 0.21080595E+04</pdfrwt>
<totfact> 0.52352906E+00</totfact>
</mgrwt>
</event>
<event>
 4    1  0.2019612E-008  0.3402703E+04  0.7816531E-02  0.8137243E-01
         -1   -1    0    0    0  501 -0.00000000000E+00  0.00000000000E+00  0.15174906813E+04  0.15174906813E+04  0.00000000000E+00 0. -1.
          1   -1    0    0  501    0  0.00000000000E+00 -0.00000000000E+00 -0.19074896267E+04  0.19074896267E+04  0.00000000000E+00 0.  1.
    2000013    1    1    2    0    0  0.63338671072E+03  0.52368475105E+03 -0.13499755450E+04  0.18440060781E+04  0.95000000000E+03 0.  0.
   -2000013    1    1    2    0    0 -0.63338671072E+03 -0.52368475105E+03  0.95997659963E+03  0.15809742299E+04  0.95000000000E+03 0.  0.
<mgrwt>
<rscale>  0 0.34027035E+04</rscale>
<asrwt>0</asrwt>
<pdfrwt beam="2">  1        1 0.29345994E+00 0.34027035E+04</pdfrwt>
<pdfrwt beam="1">  1       -1 0.23346010E+00 0.34027035E+04</pdfrwt>
<totfact> 0.25362368E-01</totfact>
</mgrwt>
</event>
<event>
 4    1  0.2019612E-008  0.2736111E+04  0.7816531E-02  0.8323383E-01
         -2   -1    0    0    0  501 -0.00000000000E+00  0.00000000000E+00  0.22935864790E+04  0.22935864790E+04  0.00000000000E+00 0. -1.
          2   -1    0    0  501    0  0.00000000000E+00 -0.00000000000E+00 -0.81600392413E+03  0.81600392413E+03  0.00000000000E+00 0.  1.
    2000013    1    1    2    0    0 -0.70378958629E+03 -0.46332835467E+03  0.13172716780E+04  0.18296714513E+04  0.95000000000E+03 0.  0.
   -2000013    1    1    2    0    0  0.70378958629E+03  0.46332835467E+03  0.16031087685E+03  0.12799189518E+04  0.95000000000E+03 0.  0.
<mgrwt>
<rscale>  0 0.27361108E+04</rscale>
<asrwt>0</asrwt>
<pdfrwt beam="2">  1        2 0.12553907E+00 0.27361108E+04</pdfrwt>
<pdfrwt beam="1">  1       -2 0.35285945E+00 0.27361108E+04</pdfrwt>
<totfact> 0.43793375E-01</totfact>
</mgrwt>
</event>
<event>
 4    1  0.2019612E-008  0.2503268E+04  0.7816531E-02  0.8401822E-01
         -2   -1    0    0    0  501 -0.00000000000E+00  0.00000000000E+00  0.19949053684E+04  0.19949053684E+04  0.00000000000E+00 0. -1.
          2   -1    0    0  501    0  0.00000000000E+00 -0.00000000000E+00 -0.78529416725E+03  0.78529416725E+03  0.00000000000E+00 0.  1.
    2000013    1    1    2    0    0 -0.98829550557E+01 -0.81249997382E+03  0.53603924849E+03  0.13601808542E+04  0.95000000000E+03 0.  0.
   -2000013    1    1    2    0    0  0.98829550557E+01  0.81249997382E+03  0.67357195271E+03  0.14200186815E+04  0.95000000000E+03 0.  0.
<mgrwt>
<rscale>  0 0.25032679E+04</rscale>
<asrwt>0</asrwt>
<pdfrwt beam="2">  1        2 0.12081449E+00 0.25032679E+04</pdfrwt>
<pdfrwt beam="1">  1       -2 0.30690852E+00 0.25032679E+04</pdfrwt>
<totfact> 0.90774739E-01</totfact>
</mgrwt>
</event>
<event>
 4    1  0.2019612E-008  0.2490297E+04  0.7816531E-02  0.8406450E-01
          2   -1    0    0  501    0  0.00000000000E+00  0.00000000000E+00  0.18903264307E+04  0.18903264307E+04  0.00000000000E+00 0.  1.
         -2   -1    0    0    0  501 -0.00000000000E+00 -0.00000000000E+00 -0.82017293737E+03  0.82017293737E+03  0.00000000000E+00 0. -1.
    2000013    1    1    2    0    0 -0.77536729419E+03  0.20246185041E+03  0.61731826655E+03  0.13877201029E+04  0.95000000000E+03 0.  0.
   -2000013    1    1    2    0    0  0.77536729419E+03 -0.20246185041E+03  0.45283522680E+03  0.13227792652E+04  0.95000000000E+03 0.  0.
<mgrwt>
<rscale>  0 0.24902968E+04</rscale>
<asrwt>0</asrwt>
<pdfrwt beam="1">  1        2 0.29081945E+00 0.24902968E+04</pdfrwt>
<pdfrwt beam="2">  1       -2 0.12618045E+00 0.24902968E+04</pdfrwt>
<totfact> 0.32136352E+00</totfact>
</mgrwt>
</event>
<event>
 4    1  0.2019612E-008  0.3154399E+04  0.7816531E-02  0.8200965E-01
          2   -1    0    0  501    0  0.00000000000E+00  0.00000000000E+00  0.39525055306E+04  0.39525055306E+04  0.00000000000E+00 0.  1.
         -2   -1    0    0    0  501 -0.00000000000E+00 -0.00000000000E+00 -0.62936219281E+03  0.62936219281E+03  0.00000000000E+00 0. -1.
    2000013    1    1    2    0    0 -0.78410574936E+03 -0.95413813042E+03  0.13062019884E+04  0.20331908500E+04  0.95000000000E+03 0.  0.
   -2000013    1    1    2    0    0  0.78410574936E+03  0.95413813042E+03  0.20169413494E+04  0.25486768734E+04  0.95000000000E+03 0.  0.
<mgrwt>
<rscale>  0 0.31543985E+04</rscale>
<asrwt>0</asrwt>
<pdfrwt beam="1">  1        2 0.60807776E+00 0.31543985E+04</pdfrwt>
<pdfrwt beam="2">  1       -2 0.96824955E-01 0.31543985E+04</pdfrwt>
<totfact> 0.28104239E-01</totfact>
</mgrwt>
</event>
<event>
 4    1  0.2019612E-008  0.2770703E+04  0.7816531E-02  0.8312422E-01
         -2   -1    0    0    0  501 -0.00000000000E+00  0.00000000000E+00  0.10962487803E+04  0.10962487803E+04  0.00000000000E+00 0. -1.
          2   -1    0    0  501    0  0.00000000000E+00 -0.00000000000E+00 -0.17506960200E+04  0.17506960200E+04  0.00000000000E+00 0.  1.
    2000013    1    1    2    0    0 -0.32292013239E+03 -0.83744160726E+03 -0.79933678506E+03  0.15320003764E+04  0.95000000000E+03 0.  0.
   -2000013    1    1    2    0    0  0.32292013239E+03  0.83744160726E+03  0.14488954531E+03  0.13149444239E+04  0.95000000000E+03 0.  0.
<mgrwt>
<rscale>  0 0.27707027E+04</rscale>
<asrwt>0</asrwt>
<pdfrwt beam="2">  1        2 0.26933785E+00 0.27707027E+04</pdfrwt>
<pdfrwt beam="1">  1       -2 0.16865366E+00 0.27707027E+04</pdfrwt>
<totfact> 0.17470331E+00</totfact>
</mgrwt>
</event>
<event>
 4    1  0.2019612E-008  0.2550734E+04  0.7816531E-02  0.8385131E-01
          2   -1    0    0  501    0  0.00000000000E+00  0.00000000000E+00  0.19021704575E+04  0.19021704575E+04  0.00000000000E+00 0.  1.
         -2   -1    0    0    0  501 -0.00000000000E+00 -0.00000000000E+00 -0.85510774084E+03  0.85510774084E+03  0.00000000000E+00 0. -1.
    2000013    1    1    2    0    0 -0.19031380566E+03 -0.82401035364E+03  0.42184919816E+03  0.13400258033E+04  0.95000000000E+03 0.  0.
   -2000013    1    1    2    0    0  0.19031380566E+03  0.82401035364E+03  0.62521351850E+03  0.14172523950E+04  0.95000000000E+03 0.  0.
<mgrwt>
<rscale>  0 0.25507338E+04</rscale>
<asrwt>0</asrwt>
<pdfrwt beam="1">  1        2 0.29264161E+00 0.25507338E+04</pdfrwt>
<pdfrwt beam="2">  1       -2 0.13155504E+00 0.25507338E+04</pdfrwt>
<totfact> 0.28342803E+00</totfact>
</mgrwt>
</event>
<event>
 4    1  0.2019612E-008  0.2059111E+04  0.7816531E-02  0.8579472E-01
          2   -1    0    0  501    0  0.00000000000E+00  0.00000000000E+00  0.22547354561E+04  0.22547354561E+04  0.00000000000E+00 0.  1.
         -2   -1    0    0    0  501 -0.00000000000E+00 -0.00000000000E+00 -0.47011469622E+03  0.47011469622E+03  0.00000000000E+00 0. -1.
    2000013    1    1    2    0    0 -0.36748454292E+03  0.10388945787E+03  0.10351202161E+04  0.14559573382E+04  0.95000000000E+03 0.  0.
   -2000013    1    1    2    0    0  0.36748454292E+03 -0.10388945787E+03  0.74950054380E+03  0.12688928142E+04  0.95000000000E+03 0.  0.
<mgrwt>
<rscale>  0 0.20591108E+04</rscale>
<asrwt>0</asrwt>
<pdfrwt beam="1">  1        2 0.34688237E+00 0.20591108E+04</pdfrwt>
<pdfrwt beam="2">  1       -2 0.72325339E-01 0.20591108E+04</pdfrwt>
<totfact> 0.76945155E+00</totfact>
</mgrwt>
</event>
<event>
 4    1  0.2019612E-008  0.3642457E+04  0.7816531E-02  0.8080835E-01
          2   -1    0    0  501    0  0.00000000000E+00  0.00000000000E+00  0.19919822463E+04  0.19919822463E+04  0.00000000000E+00 0.  1.
         -2   -1    0    0    0  501 -0.00000000000E+00 -0.00000000000E+00 -0.16651118032E+04  0.16651118032E+04  0.00000000000E+00 0. -1.
    2000013    1    1    2    0    0 -0.32714738613E+02  0.94806221644E+03  0.13990230080E+04  0.19389836506E+04  0.95000000000E+03 0.  0.
   -2000013    1    1    2    0    0  0.32714738613E+02 -0.94806221644E+03 -0.10721525650E+04  0.17181103989E+04  0.95000000000E+03 0.  0.
<mgrwt>
<rscale>  0 0.36424569E+04</rscale>
<asrwt>0</asrwt>
<pdfrwt beam="1">  1        2 0.30645881E+00 0.36424569E+04</pdfrwt>
<pdfrwt beam="2">  1       -2 0.25617105E+00 0.36424569E+04</pdfrwt>
<totfact> 0.32288827E-01</totfact>
</mgrwt>
</event>
<event>
 4    1  0.2019612E-008  0.2557340E+04  0.7816531E-02  0.8382838E-01
         -2   -1    0    0    0  501 -0.00000000000E+00  0.00000000000E+00  0.43704473896E+03  0.43704473896E+03  0.00000000000E+00 0. -1.
          2   -1    0    0  501    0  0.00000000000E+00 -0.00000000000E+00 -0.37410282021E+04  0.37410282021E+04  0.00000000000E+00 0.  1.
    2000013    1    1    2    0    0  0.18580575476E+03  0.81987498759E+03 -0.19142997223E+04  0.22964673306E+04  0.95000000000E+03 0.  0.
   -2000013    1    1    2    0    0 -0.18580575476E+03 -0.81987498759E+03 -0.13896837409E+04  0.18816056105E+04  0.95000000000E+03 0.  0.
<mgrwt>
<rscale>  0 0.25573398E+04</rscale>
<asrwt>0</asrwt>
<pdfrwt beam="2">  1        2 0.57554281E+00 0.25573398E+04</pdfrwt>
<pdfrwt beam="1">  1       -2 0.67237651E-01 0.25573398E+04</pdfrwt>
<totfact> 0.98180766E-01</totfact>
</mgrwt>
</event>
<event>
 4    1  0.2019612E-008  0.3121947E+04  0.7816531E-02  0.8209740E-01
         -2   -1    0    0    0  501 -0.00000000000E+00  0.00000000000E+00  0.11726151175E+04  0.11726151175E+04  0.00000000000E+00 0. -1.
          2   -1    0    0  501    0  0.00000000000E+00 -0.00000000000E+00 -0.20779523048E+04  0.20779523048E+04  0.00000000000E+00 0.  1.
    2000013    1    1    2    0    0  0.27348013398E+03 -0.10879233413E+04 -0.99944142749E+03  0.17775690555E+04  0.95000000000E+03 0.  0.
   -2000013    1    1    2    0    0 -0.27348013398E+03  0.10879233413E+04  0.94104240213E+02  0.14729983667E+04  0.95000000000E+03 0.  0.
<mgrwt>
<rscale>  0 0.31219470E+04</rscale>
<asrwt>0</asrwt>
<pdfrwt beam="2">  1        2 0.31968497E+00 0.31219470E+04</pdfrwt>
<pdfrwt beam="1">  1       -2 0.18040233E+00 0.31219470E+04</pdfrwt>
<totfact> 0.92306801E-01</totfact>
</mgrwt>
</event>
<event>
 4    1  0.2019612E-008  0.3682372E+04  0.7816531E-02  0.8071880E-01
          2   -1    0    0  501    0  0.00000000000E+00  0.00000000000E+00  0.17241431938E+04  0.17241431938E+04  0.00000000000E+00 0.  1.
         -2   -1    0    0    0  501 -0.00000000000E+00 -0.00000000000E+00 -0.19661742765E+04  0.19661742765E+04  0.00000000000E+00 0. -1.
    2000013    1    1    2    0    0 -0.29062339934E+03  0.15192028473E+04 -0.42994476277E+03  0.18654199931E+04  0.95000000000E+03 0.  0.
   -2000013    1    1    2    0    0  0.29062339934E+03 -0.15192028473E+04  0.18791368002E+03  0.18248974773E+04  0.95000000000E+03 0.  0.
<mgrwt>
<rscale>  0 0.36823721E+04</rscale>
<asrwt>0</asrwt>
<pdfrwt beam="1">  1        2 0.26525280E+00 0.36823721E+04</pdfrwt>
<pdfrwt beam="2">  1       -2 0.30248835E+00 0.36823721E+04</pdfrwt>
<totfact> 0.23620097E-01</totfact>
</mgrwt>
</event>
<event>
 4    1  0.2019612E-008  0.3806126E+04  0.7816531E-02  0.8044842E-01
         -2   -1    0    0    0  501 -0.00000000000E+00  0.00000000000E+00  0.15511143124E+04  0.15511143124E+04  0.00000000000E+00 0. -1.
          2   -1    0    0  501    0  0.00000000000E+00 -0.00000000000E+00 -0.23348687180E+04  0.23348687180E+04  0.00000000000E+00 0.  1.
    2000013    1    1    2    0    0 -0.87590604456E+03  0.12098200734E+04 -0.11053029876E+04  0.20868806155E+04  0.95000000000E+03 0.  0.
   -2000013    1    1    2    0    0  0.87590604456E+03 -0.12098200734E+04  0.32154858195E+03  0.17991024149E+04  0.95000000000E+03 0.  0.
<mgrwt>
<rscale>  0 0.38061257E+04</rscale>
<asrwt>0</asrwt>
<pdfrwt beam="2">  1        2 0.35921057E+00 0.38061257E+04</pdfrwt>
<pdfrwt beam="1">  1       -2 0.23863297E+00 0.38061257E+04</pdfrwt>
<totfact> 0.26220345E-01</totfact>
</mgrwt>
</event>
<event>
 4    1  0.2019612E-008  0.2162668E+04  0.7816531E-02  0.8534129E-01
         -2   -1    0    0    0  501 -0.00000000000E+00  0.00000000000E+00  0.10370335976E+04  0.10370335976E+04  0.00000000000E+00 0. -1.
          2   -1    0    0  501    0  0.00000000000E+00 -0.00000000000E+00 -0.11275263780E+04  0.11275263780E+04  0.00000000000E+00 0.  1.
    2000013    1    1    2    0    0  0.39545169118E+03  0.29022229681E+03 -0.20716469454E+03  0.10890492332E+04  0.95000000000E+03 0.  0.
   -2000013    1    1    2    0    0 -0.39545169118E+03 -0.29022229681E+03  0.11667191419E+03  0.10755107425E+04  0.95000000000E+03 0.  0.
<mgrwt>
<rscale>  0 0.21626676E+04</rscale>
<asrwt>0</asrwt>
<pdfrwt beam="2">  1        2 0.17346560E+00 0.21626676E+04</pdfrwt>
<pdfrwt beam="1">  1       -2 0.15954363E+00 0.21626676E+04</pdfrwt>
<totfact> 0.48768372E+00</totfact>
</mgrwt>
</event>
<event>
 4    1  0.2019612E-008  0.2618152E+04  0.7816531E-02  0.8362061E-01
          2   -1    0    0  501    0  0.00000000000E+00  0.00000000000E+00  0.10550771087E+04  0.10550771087E+04  0.00000000000E+00 0.  1.
         -2   -1    0    0    0  501 -0.00000000000E+00 -0.00000000000E+00 -0.16242227884E+04  0.16242227884E+04  0.00000000000E+00 0. -1.
    2000013    1    1    2    0    0  0.41913582383E+03  0.60960209577E+03  0.24112779144E+03  0.12279788947E+04  0.95000000000E+03 0.  0.
   -2000013    1    1    2    0    0 -0.41913582383E+03 -0.60960209577E+03 -0.81027347117E+03  0.14513210024E+04  0.95000000000E+03 0.  0.
<mgrwt>
<rscale>  0 0.26181522E+04</rscale>
<asrwt>0</asrwt>
<pdfrwt beam="1">  1        2 0.16231956E+00 0.26181522E+04</pdfrwt>
<pdfrwt beam="2">  1       -2 0.24988043E+00 0.26181522E+04</pdfrwt>
<totfact> 0.13210148E+00</totfact>
</mgrwt>
</event>
<event>
 4    1  0.2019612E-008  0.2832173E+04  0.7816531E-02  0.8293349E-01
         -2   -1    0    0    0  501 -0.00000000000E+00  0.00000000000E+00  0.10228982960E+04  0.10228982960E+04  0.00000000000E+00 0. -1.
          2   -1    0    0  501    0  0.00000000000E+00 -0.00000000000E+00 -0.19604104817E+04  0.19604104817E+04  0.00000000000E+00 0.  1.
    2000013    1    1    2    0    0  0.92649468869E+03 -0.46334125211E+03 -0.28715229737E+03  0.14345849455E+04  0.95000000000E+03 0.  0.
   -2000013    1    1    2    0    0 -0.92649468869E+03  0.46334125211E+03 -0.65035988826E+03  0.15487238322E+04  0.95000000000E+03 0.  0.
<mgrwt>
<rscale>  0 0.28321727E+04</rscale>
<asrwt>0</asrwt>
<pdfrwt beam="2">  1        2 0.30160161E+00 0.28321727E+04</pdfrwt>
<pdfrwt beam="1">  1       -2 0.15736897E+00 0.28321727E+04</pdfrwt>
<totfact> 0.16075198E+00</totfact>
</mgrwt>
</event>
<event>
 4    1  0.2019612E-008  0.2794738E+04  0.7816531E-02  0.8304904E-01
          2   -1    0    0  501    0  0.00000000000E+00  0.00000000000E+00  0.34941559890E+04  0.34941559890E+04  0.00000000000E+00 0.  1.
         -2   -1    0    0    0  501 -0.00000000000E+00 -0.00000000000E+00 -0.55883016821E+03  0.55883016821E+03  0.00000000000E+00 0. -1.
    2000013    1    1    2    0    0 -0.76723203312E+03  0.65602225504E+03  0.12117921026E+04  0.18411817650E+04  0.95000000000E+03 0.  0.
   -2000013    1    1    2    0    0  0.76723203312E+03 -0.65602225504E+03  0.17235337181E+04  0.22118043922E+04  0.95000000000E+03 0.  0.
<mgrwt>
<rscale>  0 0.27947378E+04</rscale>
<asrwt>0</asrwt>
<pdfrwt beam="1">  1        2 0.53756245E+00 0.27947378E+04</pdfrwt>
<pdfrwt beam="2">  1       -2 0.85973874E-01 0.27947378E+04</pdfrwt>
<totfact> 0.83858853E-01</totfact>
</mgrwt>
</event>
<event>
 4    1  0.2019612E-008  0.2619497E+04  0.7816531E-02  0.8361608E-01
          2   -1    0    0  501    0  0.00000000000E+00  0.00000000000E+00  0.12242658256E+04  0.12242658256E+04  0.00000000000E+00 0.  1.
         -2   -1    0    0    0  501 -0.00000000000E+00 -0.00000000000E+00 -0.14012002172E+04  0.14012002172E+04  0.00000000000E+00 0. -1.
    2000013    1    1    2    0    0  0.80837032722E+03 -0.34125176179E+03  0.11943299763E+03  0.12987222920E+04  0.95000000000E+03 0.  0.
   -2000013    1    1    2    0    0 -0.80837032722E+03  0.34125176179E+03 -0.29636738924E+03  0.13267437508E+04  0.95000000000E+03 0.  0.
<mgrwt>
<rscale>  0 0.26194973E+04</rscale>
<asrwt>0</asrwt>
<pdfrwt beam="1">  1        2 0.18834859E+00 0.26194973E+04</pdfrwt>
<pdfrwt beam="2">  1       -2 0.21556926E+00 0.26194973E+04</pdfrwt>
<totfact> 0.17062719E+00</totfact>
</mgrwt>
</event>
<event>
 4    1  0.2019612E-008  0.2449833E+04  0.7816531E-02  0.8421079E-01
         -2   -1    0    0    0  501 -0.00000000000E+00  0.00000000000E+00  0.18386321917E+04  0.18386321917E+04  0.00000000000E+00 0. -1.
          2   -1    0    0  501    0  0.00000000000E+00 -0.00000000000E+00 -0.81605220017E+03  0.81605220017E+03  0.00000000000E+00 0.  1.
    2000013    1    1    2    0    0 -0.41582043825E+02 -0.70966932005E+03  0.84096705349E+03  0.14543332477E+04  0.95000000000E+03 0.  0.
   -2000013    1    1    2    0    0  0.41582043825E+02  0.70966932005E+03  0.18161293806E+03  0.12003511442E+04  0.95000000000E+03 0.  0.
<mgrwt>
<rscale>  0 0.24498325E+04</rscale>
<asrwt>0</asrwt>
<pdfrwt beam="2">  1        2 0.12554649E+00 0.24498325E+04</pdfrwt>
<pdfrwt beam="1">  1       -2 0.28286649E+00 0.24498325E+04</pdfrwt>
<totfact> 0.12151864E+00</totfact>
</mgrwt>
</event>
<event>
 4    1  0.2019612E-008  0.2675922E+04  0.7816531E-02  0.8342860E-01
         -2   -1    0    0    0  501 -0.00000000000E+00  0.00000000000E+00  0.13416386037E+04  0.13416386037E+04  0.00000000000E+00 0. -1.
          2   -1    0    0  501    0  0.00000000000E+00 -0.00000000000E+00 -0.13342933991E+04  0.13342933991E+04  0.00000000000E+00 0.  1.
    2000013    1    1    2    0    0  0.68531388092E+02  0.91649073832E+03  0.21100815702E+03  0.13385351198E+04  0.95000000000E+03 0.  0.
   -2000013    1    1    2    0    0 -0.68531388092E+02 -0.91649073832E+03 -0.20366295241E+03  0.13373968830E+04  0.95000000000E+03 0.  0.
<mgrwt>
<rscale>  0 0.26759219E+04</rscale>
<asrwt>0</asrwt>
<pdfrwt beam="2">  1        2 0.20527591E+00 0.26759219E+04</pdfrwt>
<pdfrwt beam="1">  1       -2 0.20640594E+00 0.26759219E+04</pdfrwt>
<totfact> 0.16766109E+00</totfact>
</mgrwt>
</event>
<event>
 4    1  0.2019612E-008  0.2886831E+04  0.7816531E-02  0.8276806E-01
          2   -1    0    0  501    0  0.00000000000E+00  0.00000000000E+00  0.15490331702E+04  0.15490331702E+04  0.00000000000E+00 0.  1.
         -2   -1    0    0    0  501 -0.00000000000E+00 -0.00000000000E+00 -0.13449995534E+04  0.13449995534E+04  0.00000000000E+00 0. -1.
    2000013    1    1    2    0    0 -0.49766475419E+03  0.96586979086E+03  0.82622704956E+02  0.14456490486E+04  0.95000000000E+03 0.  0.
   -2000013    1    1    2    0    0  0.49766475419E+03 -0.96586979086E+03  0.12141091182E+03  0.14483836750E+04  0.95000000000E+03 0.  0.
<mgrwt>
<rscale>  0 0.28868314E+04</rscale>
<asrwt>0</asrwt>
<pdfrwt beam="1">  1        2 0.23831280E+00 0.28868314E+04</pdfrwt>
<pdfrwt beam="2">  1       -2 0.20692301E+00 0.28868314E+04</pdfrwt>
<totfact> 0.12336813E+00</totfact>
</mgrwt>
</event>
<event>
 4    1  0.2019612E-008  0.2239405E+04  0.7816531E-02  0.8502203E-01
          2   -1    0    0  501    0  0.00000000000E+00  0.00000000000E+00  0.18360880987E+04  0.18360880987E+04  0.00000000000E+00 0.  1.
         -2   -1    0    0    0  501 -0.00000000000E+00 -0.00000000000E+00 -0.68282888151E+03  0.68282888151E+03  0.00000000000E+00 0. -1.
    2000013    1    1    2    0    0  0.35008413701E+03  0.25259359054E+03  0.11990540175E+03  0.10503521935E+04  0.95000000000E+03 0.  0.
   -2000013    1    1    2    0    0 -0.35008413701E+03 -0.25259359054E+03  0.10333538154E+04  0.14685647867E+04  0.95000000000E+03 0.  0.
<mgrwt>
<rscale>  0 0.22394053E+04</rscale>
<asrwt>0</asrwt>
<pdfrwt beam="1">  1        2 0.28247509E+00 0.22394053E+04</pdfrwt>
<pdfrwt beam="2">  1       -2 0.10505060E+00 0.22394053E+04</pdfrwt>
<totfact> 0.55121380E+00</totfact>
</mgrwt>
</event>
<event>
 4    1  0.2019612E-008  0.3244624E+04  0.7816531E-02  0.8177130E-01
          2   -1    0    0  501    0  0.00000000000E+00  0.00000000000E+00  0.27933489762E+04  0.27933489762E+04  0.00000000000E+00 0.  1.
         -2   -1    0    0    0  501 -0.00000000000E+00 -0.00000000000E+00 -0.94220110070E+03  0.94220110070E+03  0.00000000000E+00 0. -1.
    2000013    1    1    2    0    0  0.92478131261E+03 -0.85962562340E+03  0.13489343997E+04  0.20775708660E+04  0.95000000000E+03 0.  0.
   -2000013    1    1    2    0    0 -0.92478131261E+03  0.85962562340E+03  0.50221347579E+03  0.16579792109E+04  0.95000000000E+03 0.  0.
<mgrwt>
<rscale>  0 0.32446242E+04</rscale>
<asrwt>0</asrwt>
<pdfrwt beam="1">  1        2 0.42974599E+00 0.32446242E+04</pdfrwt>
<pdfrwt beam="2">  1       -2 0.14495402E+00 0.32446242E+04</pdfrwt>
<totfact> 0.64186155E-01</totfact>
</mgrwt>
</event>
<event>
 4    1  0.2019612E-008  0.3457968E+04  0.7816531E-02  0.8123824E-01
         -2   -1    0    0    0  501 -0.00000000000E+00  0.00000000000E+00  0.15450652459E+04  0.15450652459E+04  0.00000000000E+00 0. -1.
          2   -1    0    0  501    0  0.00000000000E+00 -0.00000000000E+00 -0.19347955928E+04  0.19347955928E+04  0.00000000000E+00 0.  1.
    2000013    1    1    2    0    0 -0.88124602743E+03 -0.10552330233E+04 -0.64126593759E+03  0.17899255004E+04  0.95000000000E+03 0.  0.
   -2000013    1    1    2    0    0  0.88124602743E+03  0.10552330233E+04  0.25153559064E+03  0.16899353383E+04  0.95000000000E+03 0.  0.
<mgrwt>
<rscale>  0 0.34579679E+04</rscale>
<asrwt>0</asrwt>
<pdfrwt beam="2">  1        2 0.29766086E+00 0.34579679E+04</pdfrwt>
<pdfrwt beam="1">  1       -2 0.23770235E+00 0.34579679E+04</pdfrwt>
<totfact> 0.45843416E-01</totfact>
</mgrwt>
</event>
<event>
 4    1  0.2019612E-008  0.2709342E+04  0.7816531E-02  0.8331980E-01
         -2   -1    0    0    0  501 -0.00000000000E+00  0.00000000000E+00  0.63638207878E+03  0.63638207878E+03  0.00000000000E+00 0. -1.
          2   -1    0    0  501    0  0.00000000000E+00 -0.00000000000E+00 -0.28836977886E+04  0.28836977886E+04  0.00000000000E+00 0.  1.
    2000013    1    1    2    0    0  0.43602006269E+03  0.84926873731E+03 -0.93420638139E+03  0.16390889074E+04  0.95000000000E+03 0.  0.
   -2000013    1    1    2    0    0 -0.43602006269E+03 -0.84926873731E+03 -0.13131093284E+04  0.18809909600E+04  0.95000000000E+03 0.  0.
<mgrwt>
<rscale>  0 0.27093421E+04</rscale>
<asrwt>0</asrwt>
<pdfrwt beam="2">  1        2 0.44364583E+00 0.27093421E+04</pdfrwt>
<pdfrwt beam="1">  1       -2 0.97904932E-01 0.27093421E+04</pdfrwt>
<totfact> 0.15646203E+00</totfact>
</mgrwt>
</event>
<event>
 4    1  0.2019612E-008  0.2097905E+04  0.7816531E-02  0.8562167E-01
         -2   -1    0    0    0  501 -0.00000000000E+00  0.00000000000E+00  0.68288166977E+03  0.68288166977E+03  0.00000000000E+00 0. -1.
          2   -1    0    0  501    0  0.00000000000E+00 -0.00000000000E+00 -0.16112618857E+04  0.16112618857E+04  0.00000000000E+00 0.  1.
    2000013    1    1    2    0    0  0.17442632396E+03 -0.30142439357E+03 -0.16169226722E+03  0.10246587709E+04  0.95000000000E+03 0.  0.
   -2000013    1    1    2    0    0 -0.17442632396E+03  0.30142439357E+03 -0.76668794872E+03  0.12694847846E+04  0.95000000000E+03 0.  0.
<mgrwt>
<rscale>  0 0.20979049E+04</rscale>
<asrwt>0</asrwt>
<pdfrwt beam="2">  1        2 0.24788644E+00 0.20979049E+04</pdfrwt>
<pdfrwt beam="1">  1       -2 0.10505872E+00 0.20979049E+04</pdfrwt>
<totfact> 0.74375875E+00</totfact>
</mgrwt>
</event>
<event>
 4    1  0.2019612E-008  0.1942407E+04  0.7816531E-02  0.8634031E-01
          1   -1    0    0  501    0  0.00000000000E+00  0.00000000000E+00  0.25222964592E+04  0.25222964592E+04  0.00000000000E+00 0.  1.
         -1   -1    0    0    0  501 -0.00000000000E+00 -0.00000000000E+00 -0.37395913120E+03  0.37395913120E+03  0.00000000000E+00 0. -1.
    2000013    1    1    2    0    0  0.15557890950E+03 -0.90371544506E+02  0.12105337623E+04  0.15492784781E+04  0.95000000000E+03 0.  0.
   -2000013    1    1    2    0    0 -0.15557890950E+03  0.90371544506E+02  0.93780356573E+03  0.13469771123E+04  0.95000000000E+03 0.  0.
<mgrwt>
<rscale>  0 0.19424065E+04</rscale>
<asrwt>0</asrwt>
<pdfrwt beam="1">  1        1 0.38804560E+00 0.19424065E+04</pdfrwt>
<pdfrwt beam="2">  1       -1 0.57532175E-01 0.19424065E+04</pdfrwt>
<totfact> 0.37316009E+00</totfact>
</mgrwt>
</event>
<event>
 4    1  0.2019612E-008  0.3641953E+04  0.7816531E-02  0.8080949E-01
         -2   -1    0    0    0  501 -0.00000000000E+00  0.00000000000E+00  0.11668813042E+04  0.11668813042E+04  0.00000000000E+00 0. -1.
          2   -1    0    0  501    0  0.00000000000E+00 -0.00000000000E+00 -0.28417241397E+04  0.28417241397E+04  0.00000000000E+00 0.  1.
    2000013    1    1    2    0    0 -0.13494631567E+04  0.60026446826E+03 -0.30716738243E+03  0.17827563053E+04  0.95000000000E+03 0.  0.
   -2000013    1    1    2    0    0  0.13494631567E+04 -0.60026446826E+03 -0.13676754531E+04  0.22258491387E+04  0.95000000000E+03 0.  0.
<mgrwt>
<rscale>  0 0.36419526E+04</rscale>
<asrwt>0</asrwt>
<pdfrwt beam="2">  1        2 0.43718833E+00 0.36419526E+04</pdfrwt>
<pdfrwt beam="1">  1       -2 0.17952020E+00 0.36419526E+04</pdfrwt>
<totfact> 0.32358621E-01</totfact>
</mgrwt>
</event>
<event>
 4    1  0.2019612E-008  0.2156000E+04  0.7816531E-02  0.8536968E-01
         -2   -1    0    0    0  501 -0.00000000000E+00  0.00000000000E+00  0.48778652657E+03  0.48778652657E+03  0.00000000000E+00 0. -1.
          2   -1    0    0  501    0  0.00000000000E+00 -0.00000000000E+00 -0.23823628876E+04  0.23823628876E+04  0.00000000000E+00 0.  1.
    2000013    1    1    2    0    0 -0.66372069963E+02 -0.28678702884E+03 -0.15008854256E+04  0.18005024611E+04  0.95000000000E+03 0.  0.
   -2000013    1    1    2    0    0  0.66372069963E+02  0.28678702884E+03 -0.39369093539E+03  0.10696469531E+04  0.95000000000E+03 0.  0.
<mgrwt>
<rscale>  0 0.21560005E+04</rscale>
<asrwt>0</asrwt>
<pdfrwt beam="2">  1        2 0.36651737E+00 0.21560005E+04</pdfrwt>
<pdfrwt beam="1">  1       -2 0.75044080E-01 0.21560005E+04</pdfrwt>
<totfact> 0.59529076E+00</totfact>
</mgrwt>
</event>
<event>
 4    1  0.2019612E-008  0.2505009E+04  0.7816531E-02  0.8401203E-01
          2   -1    0    0  501    0  0.00000000000E+00  0.00000000000E+00  0.25994015370E+04  0.25994015370E+04  0.00000000000E+00 0.  1.
         -2   -1    0    0    0  501 -0.00000000000E+00 -0.00000000000E+00 -0.60351120019E+03  0.60351120019E+03  0.00000000000E+00 0. -1.
    2000013    1    1    2    0    0  0.63891538116E+03  0.35390088829E+03  0.53198381172E+03  0.13110932381E+04  0.95000000000E+03 0.  0.
   -2000013    1    1    2    0    0 -0.63891538116E+03 -0.35390088829E+03  0.14639065251E+04  0.18918194991E+04  0.95000000000E+03 0.  0.
<mgrwt>
<rscale>  0 0.25050093E+04</rscale>
<asrwt>0</asrwt>
<pdfrwt beam="1">  1        2 0.39990792E+00 0.25050093E+04</pdfrwt>
<pdfrwt beam="2">  1       -2 0.92847878E-01 0.25050093E+04</pdfrwt>
<totfact> 0.26691924E+00</totfact>
</mgrwt>
</event>
<event>
 4    1  0.2019612E-008  0.3601304E+04  0.7816531E-02  0.8090193E-01
         -2   -1    0    0    0  501 -0.00000000000E+00  0.00000000000E+00  0.16509624247E+04  0.16509624247E+04  0.00000000000E+00 0. -1.
          2   -1    0    0  501    0  0.00000000000E+00 -0.00000000000E+00 -0.19639139838E+04  0.19639139838E+04  0.00000000000E+00 0.  1.
    2000013    1    1    2    0    0  0.34656486723E+03  0.14433157180E+04 -0.52743685078E+03  0.18395535057E+04  0.95000000000E+03 0.  0.
   -2000013    1    1    2    0    0 -0.34656486723E+03 -0.14433157180E+04  0.21448529168E+03  0.17753229028E+04  0.95000000000E+03 0.  0.
<mgrwt>
<rscale>  0 0.36013043E+04</rscale>
<asrwt>0</asrwt>
<pdfrwt beam="2">  1        2 0.30214061E+00 0.36013043E+04</pdfrwt>
<pdfrwt beam="1">  1       -2 0.25399422E+00 0.36013043E+04</pdfrwt>
<totfact> 0.34632308E-01</totfact>
</mgrwt>
</event>
<event>
 4    1  0.2019612E-008  0.2778233E+04  0.7816531E-02  0.8310058E-01
          2   -1    0    0  501    0  0.00000000000E+00  0.00000000000E+00  0.66162810767E+03  0.66162810767E+03  0.00000000000E+00 0.  1.
         -2   -1    0    0    0  501 -0.00000000000E+00 -0.00000000000E+00 -0.29165094261E+04  0.29165094261E+04  0.00000000000E+00 0. -1.
    2000013    1    1    2    0    0  0.60835369170E+03 -0.79007320312E+03 -0.89406524226E+03  0.16419995548E+04  0.95000000000E+03 0.  0.
   -2000013    1    1    2    0    0 -0.60835369170E+03  0.79007320312E+03 -0.13608160761E+04  0.19361379790E+04  0.95000000000E+03 0.  0.
<mgrwt>
<rscale>  0 0.27782330E+04</rscale>
<asrwt>0</asrwt>
<pdfrwt beam="1">  1        2 0.10178894E+00 0.27782330E+04</pdfrwt>
<pdfrwt beam="2">  1       -2 0.44869375E+00 0.27782330E+04</pdfrwt>
<totfact> 0.13556349E-01</totfact>
</mgrwt>
</event>
<event>
 4    1  0.2019612E-008  0.3765725E+04  0.7816531E-02  0.8053551E-01
         -2   -1    0    0    0  501 -0.00000000000E+00  0.00000000000E+00  0.21306633424E+04  0.21306633424E+04  0.00000000000E+00 0. -1.
          2   -1    0    0  501    0  0.00000000000E+00 -0.00000000000E+00 -0.16638810171E+04  0.16638810171E+04  0.00000000000E+00 0.  1.
    2000013    1    1    2    0    0 -0.11813480983E+04 -0.94919673078E+03  0.82620693060E+03  0.19701968570E+04  0.95000000000E+03 0.  0.
   -2000013    1    1    2    0    0  0.11813480983E+04  0.94919673078E+03 -0.35942460535E+03  0.18243475025E+04  0.95000000000E+03 0.  0.
<mgrwt>
<rscale>  0 0.37657245E+04</rscale>
<asrwt>0</asrwt>
<pdfrwt beam="2">  1        2 0.25598169E+00 0.37657245E+04</pdfrwt>
<pdfrwt beam="1">  1       -2 0.32779436E+00 0.37657245E+04</pdfrwt>
<totfact> 0.17691654E-01</totfact>
</mgrwt>
</event>
<event>
 4    1  0.2019612E-008  0.2181892E+04  0.7816531E-02  0.8526003E-01
         -2   -1    0    0    0  501 -0.00000000000E+00  0.00000000000E+00  0.10988162679E+04  0.10988162679E+04  0.00000000000E+00 0. -1.
          2   -1    0    0  501    0  0.00000000000E+00 -0.00000000000E+00 -0.10831317350E+04  0.10831317350E+04  0.00000000000E+00 0.  1.
    2000013    1    1    2    0    0 -0.88749929283E+02  0.41178671884E+03  0.33984168570E+03  0.10933605184E+04  0.95000000000E+03 0.  0.
   -2000013    1    1    2    0    0  0.88749929283E+02 -0.41178671884E+03 -0.32415715273E+03  0.10885874845E+04  0.95000000000E+03 0.  0.
<mgrwt>
<rscale>  0 0.21818916E+04</rscale>
<asrwt>0</asrwt>
<pdfrwt beam="2">  1        2 0.16663565E+00 0.21818916E+04</pdfrwt>
<pdfrwt beam="1">  1       -2 0.16904866E+00 0.21818916E+04</pdfrwt>
<totfact> 0.44223302E+00</totfact>
</mgrwt>
</event>
<event>
 4    1  0.2019612E-008  0.2932019E+04  0.7816531E-02  0.8263414E-01
         -2   -1    0    0    0  501 -0.00000000000E+00  0.00000000000E+00  0.78768993036E+03  0.78768993036E+03  0.00000000000E+00 0. -1.
          2   -1    0    0  501    0  0.00000000000E+00 -0.00000000000E+00 -0.27284642889E+04  0.27284642889E+04  0.00000000000E+00 0.  1.
    2000013    1    1    2    0    0 -0.10964614468E+04  0.78796335338E+01 -0.12230629115E+04  0.18975438541E+04  0.95000000000E+03 0.  0.
   -2000013    1    1    2    0    0  0.10964614468E+04 -0.78796335338E+01 -0.71771144709E+03  0.16186103652E+04  0.95000000000E+03 0.  0.
<mgrwt>
<rscale>  0 0.29320190E+04</rscale>
<asrwt>0</asrwt>
<pdfrwt beam="2">  1        2 0.41976374E+00 0.29320190E+04</pdfrwt>
<pdfrwt beam="1">  1       -2 0.12118307E+00 0.29320190E+04</pdfrwt>
<totfact> 0.11385801E+00</totfact>
</mgrwt>
</event>
<event>
 4    1  0.2019612E-008  0.2816043E+04  0.7816531E-02  0.8298305E-01
          2   -1    0    0  501    0  0.00000000000E+00  0.00000000000E+00  0.99865009983E+03  0.99865009983E+03  0.00000000000E+00 0.  1.
         -2   -1    0    0    0  501 -0.00000000000E+00 -0.00000000000E+00 -0.19852044697E+04  0.19852044697E+04  0.00000000000E+00 0. -1.
    2000013    1    1    2    0    0  0.22065382328E+03 -0.10144577266E+04 -0.54311237714E+03  0.15084043367E+04  0.95000000000E+03 0.  0.
   -2000013    1    1    2    0    0 -0.22065382328E+03  0.10144577266E+04 -0.44344199274E+03  0.14754502329E+04  0.95000000000E+03 0.  0.
<mgrwt>
<rscale>  0 0.28160431E+04</rscale>
<asrwt>0</asrwt>
<pdfrwt beam="1">  1        2 0.15363848E+00 0.28160431E+04</pdfrwt>
<pdfrwt beam="2">  1       -2 0.30541608E+00 0.28160431E+04</pdfrwt>
<totfact> 0.64578562E-01</totfact>
</mgrwt>
</event>
<event>
 4    1  0.2019612E-008  0.2021618E+04  0.7816531E-02  0.8596580E-01
          2   -1    0    0  501    0  0.00000000000E+00  0.00000000000E+00  0.26224741947E+04  0.26224741947E+04  0.00000000000E+00 0.  1.
         -2   -1    0    0    0  501 -0.00000000000E+00 -0.00000000000E+00 -0.38960724309E+03  0.38960724309E+03  0.00000000000E+00 0. -1.
    2000013    1    1    2    0    0 -0.11163564374E+02  0.26978641479E+03  0.79574884437E+03  0.12683160324E+04  0.95000000000E+03 0.  0.
   -2000013    1    1    2    0    0  0.11163564374E+02 -0.26978641479E+03  0.14371181072E+04  0.17437654053E+04  0.95000000000E+03 0.  0.
<mgrwt>
<rscale>  0 0.20216181E+04</rscale>
<asrwt>0</asrwt>
<pdfrwt beam="1">  1        2 0.40345756E+00 0.20216181E+04</pdfrwt>
<pdfrwt beam="2">  1       -2 0.59939578E-01 0.20216181E+04</pdfrwt>
<totfact> 0.71115023E+00</totfact>
</mgrwt>
</event>
<event>
 4    1  0.2019612E-008  0.2526072E+04  0.7816531E-02  0.8393756E-01
          2   -1    0    0  501    0  0.00000000000E+00  0.00000000000E+00  0.23565550254E+04  0.23565550254E+04  0.00000000000E+00 0.  1.
         -2   -1    0    0    0  501 -0.00000000000E+00 -0.00000000000E+00 -0.67694597221E+03  0.67694597221E+03  0.00000000000E+00 0. -1.
    2000013    1    1    2    0    0  0.15703553134E+03  0.32303353416E+03  0.17414617724E+04  0.20159860929E+04  0.95000000000E+03 0.  0.
   -2000013    1    1    2    0    0 -0.15703553134E+03 -0.32303353416E+03 -0.61852719203E+02  0.10175149046E+04  0.95000000000E+03 0.  0.
<mgrwt>
<rscale>  0 0.25260724E+04</rscale>
<asrwt>0</asrwt>
<pdfrwt beam="1">  1        2 0.36254692E+00 0.25260724E+04</pdfrwt>
<pdfrwt beam="2">  1       -2 0.10414554E+00 0.25260724E+04</pdfrwt>
<totfact> 0.28080424E+00</totfact>
</mgrwt>
</event>
<event>
 4    1  0.2019612E-008  0.3211226E+04  0.7816531E-02  0.8185859E-01
          2   -1    0    0  501    0  0.00000000000E+00  0.00000000000E+00  0.30464874125E+04  0.30464874125E+04  0.00000000000E+00 0.  1.
         -2   -1    0    0    0  501 -0.00000000000E+00 -0.00000000000E+00 -0.84621827046E+03  0.84621827046E+03  0.00000000000E+00 0. -1.
    2000013    1    1    2    0    0 -0.11365690085E+04 -0.29297228026E+03  0.43853515399E+03  0.15723978343E+04  0.95000000000E+03 0.  0.
   -2000013    1    1    2    0    0  0.11365690085E+04  0.29297228026E+03  0.17617339881E+04  0.23203078487E+04  0.95000000000E+03 0.  0.
<mgrwt>
<rscale>  0 0.32112261E+04</rscale>
<asrwt>0</asrwt>
<pdfrwt beam="1">  1        2 0.46869037E+00 0.32112261E+04</pdfrwt>
<pdfrwt beam="2">  1       -2 0.13018743E+00 0.32112261E+04</pdfrwt>
<totfact> 0.59204439E-01</totfact>
</mgrwt>
</event>
<event>
 4    1  0.2019612E-008  0.2018223E+04  0.7816531E-02  0.8598148E-01
          1   -1    0    0  501    0  0.00000000000E+00  0.00000000000E+00  0.15148404080E+04  0.15148404080E+04  0.00000000000E+00 0. -1.
         -1   -1    0    0    0  501 -0.00000000000E+00 -0.00000000000E+00 -0.67222016914E+03  0.67222016914E+03  0.00000000000E+00 0.  1.
    2000013    1    1    2    0    0 -0.19781377854E+03  0.27658484922E+03  0.43571930537E+03  0.10990817908E+04  0.95000000000E+03 0.  0.
   -2000013    1    1    2    0    0  0.19781377854E+03 -0.27658484922E+03  0.40690093344E+03  0.10879787863E+04  0.95000000000E+03 0.  0.
<mgrwt>
<rscale>  0 0.20182233E+04</rscale>
<asrwt>0</asrwt>
<pdfrwt beam="1">  1        1 0.23305237E+00 0.20182233E+04</pdfrwt>
<pdfrwt beam="2">  1       -1 0.10341849E+00 0.20182233E+04</pdfrwt>
<totfact> 0.52183908E+00</totfact>
</mgrwt>
</event>
<event>
 4    1  0.2019612E-008  0.1940405E+04  0.7816531E-02  0.8635001E-01
          2   -1    0    0  501    0  0.00000000000E+00  0.00000000000E+00  0.21692644976E+04  0.21692644976E+04  0.00000000000E+00 0.  1.
         -2   -1    0    0    0  501 -0.00000000000E+00 -0.00000000000E+00 -0.43392273169E+03  0.43392273169E+03  0.00000000000E+00 0. -1.
    2000013    1    1    2    0    0  0.18867515999E+03  0.41657266957E+01  0.79204747745E+03  0.12511813920E+04  0.95000000000E+03 0.  0.
   -2000013    1    1    2    0    0 -0.18867515999E+03 -0.41657266957E+01  0.94329428842E+03  0.13520058372E+04  0.95000000000E+03 0.  0.
<mgrwt>
<rscale>  0 0.19404053E+04</rscale>
<asrwt>0</asrwt>
<pdfrwt beam="1">  1        2 0.33373299E+00 0.19404053E+04</pdfrwt>
<pdfrwt beam="2">  1       -2 0.66757345E-01 0.19404053E+04</pdfrwt>
<totfact> 0.10339100E+01</totfact>
</mgrwt>
</event>
<event>
 4    1  0.2019612E-008  0.1953173E+04  0.7816531E-02  0.8628832E-01
          2   -1    0    0  501    0  0.00000000000E+00  0.00000000000E+00  0.35358024757E+04  0.35358024757E+04  0.00000000000E+00 0.  1.
         -2   -1    0    0    0  501 -0.00000000000E+00 -0.00000000000E+00 -0.26973259058E+03  0.26973259058E+03  0.00000000000E+00 0. -1.
    2000013    1    1    2    0    0 -0.31980702764E+02  0.17916558128E+03  0.18951496577E+04  0.21277253808E+04  0.95000000000E+03 0.  0.
   -2000013    1    1    2    0    0  0.31980702764E+02 -0.17916558128E+03  0.13709202274E+04  0.16778096855E+04  0.95000000000E+03 0.  0.
<mgrwt>
<rscale>  0 0.19531730E+04</rscale>
<asrwt>0</asrwt>
<pdfrwt beam="1">  1        2 0.54396958E+00 0.19531730E+04</pdfrwt>
<pdfrwt beam="2">  1       -2 0.41497324E-01 0.19531730E+04</pdfrwt>
<totfact> 0.39618224E+00</totfact>
</mgrwt>
</event>
<event>
 4    1  0.2019612E-008  0.2850223E+04  0.7816531E-02  0.8287843E-01
          2   -1    0    0  501    0  0.00000000000E+00  0.00000000000E+00  0.22583105556E+04  0.22583105556E+04  0.00000000000E+00 0.  1.
         -2   -1    0    0    0  501 -0.00000000000E+00 -0.00000000000E+00 -0.89931973285E+03  0.89931973285E+03  0.00000000000E+00 0. -1.
    2000013    1    1    2    0    0  0.71941170595E+03 -0.71774186466E+03  0.10222801852E+04  0.17263439298E+04  0.95000000000E+03 0.  0.
   -2000013    1    1    2    0    0 -0.71941170595E+03  0.71774186466E+03  0.33671063752E+03  0.14312863586E+04  0.95000000000E+03 0.  0.
<mgrwt>
<rscale>  0 0.28502233E+04</rscale>
<asrwt>0</asrwt>
<pdfrwt beam="1">  1        2 0.34743239E+00 0.28502233E+04</pdfrwt>
<pdfrwt beam="2">  1       -2 0.13835688E+00 0.28502233E+04</pdfrwt>
<totfact> 0.15362125E+00</totfact>
</mgrwt>
</event>
<event>
 4    1  0.2019612E-008  0.3102676E+04  0.7816531E-02  0.8215004E-01
         -2   -1    0    0    0  501 -0.00000000000E+00  0.00000000000E+00  0.28208671230E+04  0.28208671230E+04  0.00000000000E+00 0. -1.
          2   -1    0    0  501    0  0.00000000000E+00 -0.00000000000E+00 -0.85315971718E+03  0.85315971718E+03  0.00000000000E+00 0.  1.
    2000013    1    1    2    0    0  0.53503346026E+03 -0.77459902922E+03  0.19146613204E+04  0.23355282982E+04  0.95000000000E+03 0.  0.
   -2000013    1    1    2    0    0 -0.53503346026E+03  0.77459902922E+03  0.53046085365E+02  0.13384985420E+04  0.95000000000E+03 0.  0.
<mgrwt>
<rscale>  0 0.31026764E+04</rscale>
<asrwt>0</asrwt>
<pdfrwt beam="2">  1        2 0.13125534E+00 0.31026764E+04</pdfrwt>
<pdfrwt beam="1">  1       -2 0.43397955E+00 0.31026764E+04</pdfrwt>
<totfact> 0.11862690E-01</totfact>
</mgrwt>
</event>
<event>
 4    1  0.2019612E-008  0.2137878E+04  0.7816531E-02  0.8544739E-01
          1   -1    0    0  501    0  0.00000000000E+00  0.00000000000E+00  0.20722489648E+04  0.20722489648E+04  0.00000000000E+00 0.  1.
         -1   -1    0    0    0  501 -0.00000000000E+00 -0.00000000000E+00 -0.55139650722E+03  0.55139650722E+03  0.00000000000E+00 0. -1.
    2000013    1    1    2    0    0 -0.19761658291E+03  0.40018715706E+03  0.51214921563E+03  0.11679036320E+04  0.95000000000E+03 0.  0.
   -2000013    1    1    2    0    0  0.19761658291E+03 -0.40018715706E+03  0.10087032419E+04  0.14557418400E+04  0.95000000000E+03 0.  0.
<mgrwt>
<rscale>  0 0.21378782E+04</rscale>
<asrwt>0</asrwt>
<pdfrwt beam="1">  1        1 0.31880753E+00 0.21378782E+04</pdfrwt>
<pdfrwt beam="2">  1       -1 0.84830233E-01 0.21378782E+04</pdfrwt>
<totfact> 0.33543675E+00</totfact>
</mgrwt>
</event>
<event>
 4    1  0.2019612E-008  0.2572381E+04  0.7816531E-02  0.8377644E-01
          2   -1    0    0  501    0  0.00000000000E+00  0.00000000000E+00  0.21066740550E+04  0.21066740550E+04  0.00000000000E+00 0.  1.
         -2   -1    0    0    0  501 -0.00000000000E+00 -0.00000000000E+00 -0.78525982136E+03  0.78525982136E+03  0.00000000000E+00 0. -1.
    2000013    1    1    2    0    0  0.60464561596E+03 -0.57434752579E+03  0.92749456657E+03  0.15678703940E+04  0.95000000000E+03 0.  0.
   -2000013    1    1    2    0    0 -0.60464561596E+03  0.57434752579E+03  0.39391966706E+03  0.13240634824E+04  0.95000000000E+03 0.  0.
<mgrwt>
<rscale>  0 0.25723814E+04</rscale>
<asrwt>0</asrwt>
<pdfrwt beam="1">  1        2 0.32410370E+00 0.25723814E+04</pdfrwt>
<pdfrwt beam="2">  1       -2 0.12080920E+00 0.25723814E+04</pdfrwt>
<totfact> 0.26969048E+00</totfact>
</mgrwt>
</event>
<event>
 4    1  0.2019612E-008  0.3838251E+04  0.7816531E-02  0.8037996E-01
          2   -1    0    0  501    0  0.00000000000E+00  0.00000000000E+00  0.29451943868E+04  0.29451943868E+04  0.00000000000E+00 0.  1.
         -2   -1    0    0    0  501 -0.00000000000E+00 -0.00000000000E+00 -0.12505259122E+04  0.12505259122E+04  0.00000000000E+00 0. -1.
    2000013    1    1    2    0    0  0.11675559837E+04  0.11429259550E+04  0.48301531935E+03  0.19507102584E+04  0.95000000000E+03 0.  0.
   -2000013    1    1    2    0    0 -0.11675559837E+04 -0.11429259550E+04  0.12116531553E+04  0.22450100406E+04  0.95000000000E+03 0.  0.
<mgrwt>
<rscale>  0 0.38382506E+04</rscale>
<asrwt>0</asrwt>
<pdfrwt beam="1">  1        2 0.45310683E+00 0.38382506E+04</pdfrwt>
<pdfrwt beam="2">  1       -2 0.19238860E+00 0.38382506E+04</pdfrwt>
<totfact> 0.22482892E-01</totfact>
</mgrwt>
</event>
<event>
 4    1  0.2019612E-008  0.2960201E+04  0.7816531E-02  0.8255188E-01
         -2   -1    0    0    0  501 -0.00000000000E+00  0.00000000000E+00  0.74341123996E+03  0.74341123996E+03  0.00000000000E+00 0. -1.
          2   -1    0    0  501    0  0.00000000000E+00 -0.00000000000E+00 -0.29468169053E+04  0.29468169053E+04  0.00000000000E+00 0.  1.
    2000013    1    1    2    0    0 -0.25118215388E+03 -0.64102616005E+03 -0.22265536061E+04  0.25167534590E+04  0.95000000000E+03 0.  0.
   -2000013    1    1    2    0    0  0.25118215388E+03  0.64102616005E+03  0.23147940755E+02  0.11734746863E+04  0.95000000000E+03 0.  0.
<mgrwt>
<rscale>  0 0.29602005E+04</rscale>
<asrwt>0</asrwt>
<pdfrwt beam="2">  1        2 0.45335645E+00 0.29602005E+04</pdfrwt>
<pdfrwt beam="1">  1       -2 0.11437096E+00 0.29602005E+04</pdfrwt>
<totfact> 0.96407911E-01</totfact>
</mgrwt>
</event>
<event>
 4    1  0.2019612E-008  0.2329553E+04  0.7816531E-02  0.8466359E-01
          2   -1    0    0  501    0  0.00000000000E+00  0.00000000000E+00  0.12779225689E+04  0.12779225689E+04  0.00000000000E+00 0.  1.
         -2   -1    0    0    0  501 -0.00000000000E+00 -0.00000000000E+00 -0.10616480036E+04  0.10616480036E+04  0.00000000000E+00 0. -1.
    2000013    1    1    2    0    0  0.21653880867E+03  0.63805283968E+03  0.93811929566E+02  0.11684610220E+04  0.95000000000E+03 0.  0.
   -2000013    1    1    2    0    0 -0.21653880867E+03 -0.63805283968E+03  0.12246263574E+03  0.11711095504E+04  0.95000000000E+03 0.  0.
<mgrwt>
<rscale>  0 0.23295527E+04</rscale>
<asrwt>0</asrwt>
<pdfrwt beam="1">  1        2 0.19660347E+00 0.23295527E+04</pdfrwt>
<pdfrwt beam="2">  1       -2 0.16333046E+00 0.23295527E+04</pdfrwt>
<totfact> 0.36676035E+00</totfact>
</mgrwt>
</event>
<event>
 4    1  0.2019612E-008  0.2302039E+04  0.7816531E-02  0.8477118E-01
         -1   -1    0    0    0  501 -0.00000000000E+00  0.00000000000E+00  0.83143282308E+03  0.83143282308E+03  0.00000000000E+00 0.  1.
          1   -1    0    0  501    0  0.00000000000E+00 -0.00000000000E+00 -0.15934492353E+04  0.15934492353E+04  0.00000000000E+00 0. -1.
    2000013    1    1    2    0    0 -0.32837917580E+03  0.52847575312E+03 -0.57871091531E+03  0.12745688794E+04  0.95000000000E+03 0.  0.
   -2000013    1    1    2    0    0  0.32837917580E+03 -0.52847575312E+03 -0.18330549695E+03  0.11503131791E+04  0.95000000000E+03 0.  0.
<mgrwt>
<rscale>  0 0.23020391E+04</rscale>
<asrwt>0</asrwt>
<pdfrwt beam="2">  1        1 0.24514603E+00 0.23020391E+04</pdfrwt>
<pdfrwt beam="1">  1       -1 0.12791274E+00 0.23020391E+04</pdfrwt>
<totfact> 0.26917469E+00</totfact>
</mgrwt>
</event>
<event>
 4    1  0.2019612E-008  0.2122704E+04  0.7816531E-02  0.8551308E-01
         -2   -1    0    0    0  501 -0.00000000000E+00  0.00000000000E+00  0.54171311681E+03  0.54171311681E+03  0.00000000000E+00 0. -1.
          2   -1    0    0  501    0  0.00000000000E+00 -0.00000000000E+00 -0.20794543346E+04  0.20794543346E+04  0.00000000000E+00 0.  1.
    2000013    1    1    2    0    0 -0.42131177889E+03 -0.94896702658E+01 -0.10347855705E+04  0.14665861195E+04  0.95000000000E+03 0.  0.
   -2000013    1    1    2    0    0  0.42131177889E+03  0.94896702658E+01 -0.50295564724E+03  0.11545813319E+04  0.95000000000E+03 0.  0.
<mgrwt>
<rscale>  0 0.21227036E+04</rscale>
<asrwt>0</asrwt>
<pdfrwt beam="2">  1        2 0.31991605E+00 0.21227036E+04</pdfrwt>
<pdfrwt beam="1">  1       -2 0.83340479E-01 0.21227036E+04</pdfrwt>
<totfact> 0.69928906E+00</totfact>
</mgrwt>
</event>
<event>
 4    1  0.2019612E-008  0.2761192E+04  0.7816531E-02  0.8315419E-01
          2   -1    0    0  501    0  0.00000000000E+00  0.00000000000E+00  0.39928772635E+04  0.39928772635E+04  0.00000000000E+00 0.  1.
         -2   -1    0    0    0  501 -0.00000000000E+00 -0.00000000000E+00 -0.47736133746E+03  0.47736133746E+03  0.00000000000E+00 0. -1.
    2000013    1    1    2    0    0  0.10232407574E+02 -0.86296080345E+03  0.93425492322E+03  0.15874943502E+04  0.95000000000E+03 0.  0.
   -2000013    1    1    2    0    0 -0.10232407574E+02  0.86296080345E+03  0.25812610028E+04  0.28827442507E+04  0.95000000000E+03 0.  0.
<mgrwt>
<rscale>  0 0.27611919E+04</rscale>
<asrwt>0</asrwt>
<pdfrwt beam="1">  1        2 0.61428879E+00 0.27611919E+04</pdfrwt>
<pdfrwt beam="2">  1       -2 0.73440208E-01 0.27611919E+04</pdfrwt>
<totfact> 0.50676903E-01</totfact>
</mgrwt>
</event>
<event>
 4    1  0.2019612E-008  0.2270753E+04  0.7816531E-02  0.8489543E-01
         -2   -1    0    0    0  501 -0.00000000000E+00  0.00000000000E+00  0.10107490309E+04  0.10107490309E+04  0.00000000000E+00 0. -1.
          2   -1    0    0  501    0  0.00000000000E+00 -0.00000000000E+00 -0.12753708228E+04  0.12753708228E+04  0.00000000000E+00 0.  1.
    2000013    1    1    2    0    0 -0.55752571638E+03  0.27389493852E+03 -0.15944624092E+03  0.11462008836E+04  0.95000000000E+03 0.  0.
   -2000013    1    1    2    0    0  0.55752571638E+03 -0.27389493852E+03 -0.10517555100E+03  0.11399189701E+04  0.95000000000E+03 0.  0.
<mgrwt>
<rscale>  0 0.22707530E+04</rscale>
<asrwt>0</asrwt>
<pdfrwt beam="2">  1        2 0.19621090E+00 0.22707530E+04</pdfrwt>
<pdfrwt beam="1">  1       -2 0.15549985E+00 0.22707530E+04</pdfrwt>
<totfact> 0.42271745E+00</totfact>
</mgrwt>
</event>
<event>
 4    1  0.2019612E-008  0.2640447E+04  0.7816531E-02  0.8354591E-01
         -2   -1    0    0    0  501 -0.00000000000E+00  0.00000000000E+00  0.75280343589E+03  0.75280343589E+03  0.00000000000E+00 0. -1.
          2   -1    0    0  501    0  0.00000000000E+00 -0.00000000000E+00 -0.23153317499E+04  0.23153317499E+04  0.00000000000E+00 0.  1.
    2000013    1    1    2    0    0  0.85348598784E+03  0.72055440209E+02 -0.40142178622E+03  0.13406229031E+04  0.95000000000E+03 0.  0.
   -2000013    1    1    2    0    0 -0.85348598784E+03 -0.72055440209E+02 -0.11611065278E+04  0.17275122827E+04  0.95000000000E+03 0.  0.
<mgrwt>
<rscale>  0 0.26404467E+04</rscale>
<asrwt>0</asrwt>
<pdfrwt beam="2">  1        2 0.35620488E+00 0.26404467E+04</pdfrwt>
<pdfrwt beam="1">  1       -2 0.11581591E+00 0.26404467E+04</pdfrwt>
<totfact> 0.22700122E+00</totfact>
</mgrwt>
</event>
<event>
 4    1  0.2019612E-008  0.2661631E+04  0.7816531E-02  0.8347563E-01
          2   -1    0    0  501    0  0.00000000000E+00  0.00000000000E+00  0.20100565291E+04  0.20100565291E+04  0.00000000000E+00 0.  1.
         -2   -1    0    0    0  501 -0.00000000000E+00 -0.00000000000E+00 -0.88110454899E+03  0.88110454899E+03  0.00000000000E+00 0. -1.
    2000013    1    1    2    0    0 -0.97919931590E+02 -0.79062863965E+03  0.39150591221E+02  0.12404494055E+04  0.95000000000E+03 0.  0.
   -2000013    1    1    2    0    0  0.97919931590E+02  0.79062863965E+03  0.10898013889E+04  0.16507116726E+04  0.95000000000E+03 0.  0.
<mgrwt>
<rscale>  0 0.26616310E+04</rscale>
<asrwt>0</asrwt>
<pdfrwt beam="1">  1        2 0.30923947E+00 0.26616310E+04</pdfrwt>
<pdfrwt beam="2">  1       -2 0.13555455E+00 0.26616310E+04</pdfrwt>
<totfact> 0.22662016E+00</totfact>
</mgrwt>
</event>
<event>
 4    1  0.2019612E-008  0.2788841E+04  0.7816531E-02  0.8306741E-01
         -2   -1    0    0    0  501 -0.00000000000E+00  0.00000000000E+00  0.74343253987E+03  0.74343253987E+03  0.00000000000E+00 0. -1.
          2   -1    0    0  501    0  0.00000000000E+00 -0.00000000000E+00 -0.26154479338E+04  0.26154479338E+04  0.00000000000E+00 0.  1.
    2000013    1    1    2    0    0 -0.81637926080E+03  0.28827859904E+02 -0.19885691199E+03  0.12686016768E+04  0.95000000000E+03 0.  0.
   -2000013    1    1    2    0    0  0.81637926080E+03 -0.28827859904E+02 -0.16731584820E+04  0.20902787969E+04  0.95000000000E+03 0.  0.
<mgrwt>
<rscale>  0 0.27888414E+04</rscale>
<asrwt>0</asrwt>
<pdfrwt beam="2">  1        2 0.40237661E+00 0.27888414E+04</pdfrwt>
<pdfrwt beam="1">  1       -2 0.11437424E+00 0.27888414E+04</pdfrwt>
<totfact> 0.15505799E+00</totfact>
</mgrwt>
</event>
<event>
 4    1  0.2019612E-008  0.2047665E+04  0.7816531E-02  0.8584654E-01
          1   -1    0    0  501    0  0.00000000000E+00  0.00000000000E+00  0.25957807683E+04  0.25957807683E+04  0.00000000000E+00 0.  1.
         -1   -1    0    0    0  501 -0.00000000000E+00 -0.00000000000E+00 -0.40382174729E+03  0.40382174729E+03  0.00000000000E+00 0. -1.
    2000013    1    1    2    0    0 -0.28164774334E+03  0.14408032160E+03  0.78299966205E+03  0.12710912875E+04  0.95000000000E+03 0.  0.
   -2000013    1    1    2    0    0  0.28164774334E+03 -0.14408032160E+03  0.14089593589E+04  0.17285112280E+04  0.95000000000E+03 0.  0.
<mgrwt>
<rscale>  0 0.20476647E+04</rscale>
<asrwt>0</asrwt>
<pdfrwt beam="1">  1        1 0.39935088E+00 0.20476647E+04</pdfrwt>
<pdfrwt beam="2">  1       -1 0.62126424E-01 0.20476647E+04</pdfrwt>
<totfact> 0.28219137E+00</totfact>
</mgrwt>
</event>
<event>
 4    1  0.2019612E-008  0.2655491E+04  0.7816531E-02  0.8349593E-01
         -2   -1    0    0    0  501 -0.00000000000E+00  0.00000000000E+00  0.11030446865E+04  0.11030446865E+04  0.00000000000E+00 0. -1.
          2   -1    0    0  501    0  0.00000000000E+00 -0.00000000000E+00 -0.15982196890E+04  0.15982196890E+04  0.00000000000E+00 0.  1.
    2000013    1    1    2    0    0  0.67962905579E+02  0.43540885620E+03 -0.10778725075E+04  0.15028336471E+04  0.95000000000E+03 0.  0.
   -2000013    1    1    2    0    0 -0.67962905579E+02 -0.43540885620E+03  0.58269750488E+03  0.11984307284E+04  0.95000000000E+03 0.  0.
<mgrwt>
<rscale>  0 0.26554907E+04</rscale>
<asrwt>0</asrwt>
<pdfrwt beam="2">  1        2 0.24587995E+00 0.26554907E+04</pdfrwt>
<pdfrwt beam="1">  1       -2 0.16969918E+00 0.26554907E+04</pdfrwt>
<totfact> 0.21083822E+00</totfact>
</mgrwt>
</event>
<event>
 4    1  0.2019612E-008  0.2223262E+04  0.7816531E-02  0.8508808E-01
          2   -1    0    0  501    0  0.00000000000E+00  0.00000000000E+00  0.17814281154E+04  0.17814281154E+04  0.00000000000E+00 0.  1.
         -2   -1    0    0    0  501 -0.00000000000E+00 -0.00000000000E+00 -0.69367043935E+03  0.69367043935E+03  0.00000000000E+00 0. -1.
    2000013    1    1    2    0    0 -0.44581985227E+03  0.32732804765E+03  0.35985160512E+03  0.11566728877E+04  0.95000000000E+03 0.  0.
   -2000013    1    1    2    0    0  0.44581985227E+03 -0.32732804765E+03  0.72790607096E+03  0.13184256671E+04  0.95000000000E+03 0.  0.
<mgrwt>
<rscale>  0 0.22232625E+04</rscale>
<asrwt>0</asrwt>
<pdfrwt beam="1">  1        2 0.27406586E+00 0.22232625E+04</pdfrwt>
<pdfrwt beam="2">  1       -2 0.10671853E+00 0.22232625E+04</pdfrwt>
<totfact> 0.56988061E+00</totfact>
</mgrwt>
</event>
<event>
 4    1  0.2019612E-008  0.2106683E+04  0.7816531E-02  0.8558305E-01
          2   -1    0    0  501    0  0.00000000000E+00  0.00000000000E+00  0.21166858717E+04  0.21166858717E+04  0.00000000000E+00 0.  1.
         -2   -1    0    0    0  501 -0.00000000000E+00 -0.00000000000E+00 -0.52418185585E+03  0.52418185585E+03  0.00000000000E+00 0. -1.
    2000013    1    1    2    0    0  0.26141562629E+03 -0.36902231756E+03  0.73341432063E+03  0.12825412922E+04  0.95000000000E+03 0.  0.
   -2000013    1    1    2    0    0 -0.26141562629E+03  0.36902231756E+03  0.85908969523E+03  0.13583264354E+04  0.95000000000E+03 0.  0.
<mgrwt>
<rscale>  0 0.21066830E+04</rscale>
<asrwt>0</asrwt>
<pdfrwt beam="1">  1        2 0.32564398E+00 0.21066830E+04</pdfrwt>
<pdfrwt beam="2">  1       -2 0.80643363E-01 0.21066830E+04</pdfrwt>
<totfact> 0.71902301E+00</totfact>
</mgrwt>
</event>
<event>
 4    1  0.2019612E-008  0.2082335E+04  0.7816531E-02  0.8569065E-01
          2   -1    0    0  501    0  0.00000000000E+00  0.00000000000E+00  0.46928157197E+04  0.46928157197E+04  0.00000000000E+00 0.  1.
         -2   -1    0    0    0  501 -0.00000000000E+00 -0.00000000000E+00 -0.23099770048E+03  0.23099770048E+03  0.00000000000E+00 0. -1.
    2000013    1    1    2    0    0  0.23903119756E+03  0.29785218882E+03  0.17842767913E+04  0.20571814474E+04  0.95000000000E+03 0.  0.
   -2000013    1    1    2    0    0 -0.23903119756E+03 -0.29785218882E+03  0.26775412279E+04  0.28666319727E+04  0.95000000000E+03 0.  0.
<mgrwt>
<rscale>  0 0.20823349E+04</rscale>
<asrwt>0</asrwt>
<pdfrwt beam="1">  1        2 0.72197158E+00 0.20823349E+04</pdfrwt>
<pdfrwt beam="2">  1       -2 0.35538111E-01 0.20823349E+04</pdfrwt>
<totfact> 0.54560578E-01</totfact>
</mgrwt>
</event>
<event>
 4    1  0.2019612E-008  0.2496397E+04  0.7816531E-02  0.8404270E-01
         -1   -1    0    0    0  501 -0.00000000000E+00  0.00000000000E+00  0.81542400295E+03  0.81542400295E+03  0.00000000000E+00 0. -1.
          1   -1    0    0  501    0  0.00000000000E+00 -0.00000000000E+00 -0.19106625083E+04  0.19106625083E+04  0.00000000000E+00 0.  1.
    2000013    1    1    2    0    0 -0.15722787545E+03 -0.67786870574E+03 -0.95689465115E+02  0.11814749514E+04  0.95000000000E+03 0.  0.
   -2000013    1    1    2    0    0  0.15722787545E+03  0.67786870574E+03 -0.99954904026E+03  0.15446115599E+04  0.95000000000E+03 0.  0.
<mgrwt>
<rscale>  0 0.24963975E+04</rscale>
<asrwt>0</asrwt>
<pdfrwt beam="2">  1        1 0.29394808E+00 0.24963975E+04</pdfrwt>
<pdfrwt beam="1">  1       -1 0.12544985E+00 0.24963975E+04</pdfrwt>
<totfact> 0.16886958E+00</totfact>
</mgrwt>
</event>
<event>
 4    1  0.2019612E-008  0.3203819E+04  0.7816531E-02  0.8187809E-01
          2   -1    0    0  501    0  0.00000000000E+00  0.00000000000E+00  0.17764476959E+04  0.17764476959E+04  0.00000000000E+00 0.  1.
         -2   -1    0    0    0  501 -0.00000000000E+00 -0.00000000000E+00 -0.14445200091E+04  0.14445200091E+04  0.00000000000E+00 0. -1.
    2000013    1    1    2    0    0 -0.79700335761E+03  0.80106675613E+03 -0.45921020599E+03  0.15460583149E+04  0.95000000000E+03 0.  0.
   -2000013    1    1    2    0    0  0.79700335761E+03 -0.80106675613E+03  0.79113789273E+03  0.16749093901E+04  0.95000000000E+03 0.  0.
<mgrwt>
<rscale>  0 0.32038191E+04</rscale>
<asrwt>0</asrwt>
<pdfrwt beam="1">  1        2 0.27329965E+00 0.32038191E+04</pdfrwt>
<pdfrwt beam="2">  1       -2 0.22223385E+00 0.32038191E+04</pdfrwt>
<totfact> 0.71621995E-01</totfact>
</mgrwt>
</event>
<event>
 4    1  0.2019612E-008  0.3340957E+04  0.7816531E-02  0.8152551E-01
          2   -1    0    0  501    0  0.00000000000E+00  0.00000000000E+00  0.31995388616E+04  0.31995388616E+04  0.00000000000E+00 0.  1.
         -2   -1    0    0    0  501 -0.00000000000E+00 -0.00000000000E+00 -0.87215620537E+03  0.87215620537E+03  0.00000000000E+00 0. -1.
    2000013    1    1    2    0    0  0.22647400829E+03 -0.10759462803E+04  0.21679700719E+04  0.26098936966E+04  0.95000000000E+03 0.  0.
   -2000013    1    1    2    0    0 -0.22647400829E+03  0.10759462803E+04  0.15941258432E+03  0.14618013704E+04  0.95000000000E+03 0.  0.
<mgrwt>
<rscale>  0 0.33409566E+04</rscale>
<asrwt>0</asrwt>
<pdfrwt beam="1">  1        2 0.49223674E+00 0.33409566E+04</pdfrwt>
<pdfrwt beam="2">  1       -2 0.13417788E+00 0.33409566E+04</pdfrwt>
<totfact> 0.43242737E-01</totfact>
</mgrwt>
</event>
<event>
 4    1  0.2019612E-008  0.2212438E+04  0.7816531E-02  0.8513269E-01
          2   -1    0    0  501    0  0.00000000000E+00  0.00000000000E+00  0.10780557941E+04  0.10780557941E+04  0.00000000000E+00 0.  1.
         -2   -1    0    0    0  501 -0.00000000000E+00 -0.00000000000E+00 -0.11351183802E+04  0.11351183802E+04  0.00000000000E+00 0. -1.
    2000013    1    1    2    0    0  0.20669033021E+02  0.55139363096E+03 -0.15803013411E+03  0.11099259743E+04  0.95000000000E+03 0.  0.
   -2000013    1    1    2    0    0 -0.20669033021E+02 -0.55139363096E+03  0.10096754801E+03  0.11032482001E+04  0.95000000000E+03 0.  0.
<mgrwt>
<rscale>  0 0.22124384E+04</rscale>
<asrwt>0</asrwt>
<pdfrwt beam="1">  1        2 0.16585474E+00 0.22124384E+04</pdfrwt>
<pdfrwt beam="2">  1       -2 0.17463360E+00 0.22124384E+04</pdfrwt>
<totfact> 0.40566490E+00</totfact>
</mgrwt>
</event>
<event>
 4    1  0.2019612E-008  0.2906143E+04  0.7816531E-02  0.8271052E-01
          1   -1    0    0  501    0  0.00000000000E+00  0.00000000000E+00  0.12452434876E+04  0.12452434876E+04  0.00000000000E+00 0.  1.
         -1   -1    0    0    0  501 -0.00000000000E+00 -0.00000000000E+00 -0.16955856225E+04  0.16955856225E+04  0.00000000000E+00 0. -1.
    2000013    1    1    2    0    0  0.10151495068E+04 -0.12559025736E+03  0.18289810488E+03  0.14079251225E+04  0.95000000000E+03 0.  0.
   -2000013    1    1    2    0    0 -0.10151495068E+04  0.12559025736E+03 -0.63324023973E+03  0.15329039876E+04  0.95000000000E+03 0.  0.
<mgrwt>
<rscale>  0 0.29061431E+04</rscale>
<asrwt>0</asrwt>
<pdfrwt beam="1">  1        1 0.19157592E+00 0.29061431E+04</pdfrwt>
<pdfrwt beam="2">  1       -1 0.26085933E+00 0.29061431E+04</pdfrwt>
<totfact> 0.50333109E-01</totfact>
</mgrwt>
</event>
<event>
 4    1  0.2019612E-008  0.2939453E+04  0.7816531E-02  0.8261235E-01
          2   -1    0    0  501    0  0.00000000000E+00  0.00000000000E+00  0.35931568712E+04  0.35931568712E+04  0.00000000000E+00 0.  1.
         -2   -1    0    0    0  501 -0.00000000000E+00 -0.00000000000E+00 -0.60116930211E+03  0.60116930211E+03  0.00000000000E+00 0. -1.
    2000013    1    1    2    0    0  0.10022186510E+04 -0.47188708973E+03  0.12468933949E+04  0.19194694027E+04  0.95000000000E+03 0.  0.
   -2000013    1    1    2    0    0 -0.10022186510E+04  0.47188708973E+03  0.17450941742E+04  0.22748567706E+04  0.95000000000E+03 0.  0.
<mgrwt>
<rscale>  0 0.29394527E+04</rscale>
<asrwt>0</asrwt>
<pdfrwt beam="1">  1        2 0.55279336E+00 0.29394527E+04</pdfrwt>
<pdfrwt beam="2">  1       -2 0.92487587E-01 0.29394527E+04</pdfrwt>
<totfact> 0.59560926E-01</totfact>
</mgrwt>
</event>
<event>
 4    1  0.2019612E-008  0.2599668E+04  0.7816531E-02  0.8368314E-01
         -2   -1    0    0    0  501 -0.00000000000E+00  0.00000000000E+00  0.11292274102E+04  0.11292274102E+04  0.00000000000E+00 0. -1.
          2   -1    0    0  501    0  0.00000000000E+00 -0.00000000000E+00 -0.14962166455E+04  0.14962166455E+04  0.00000000000E+00 0.  1.
    2000013    1    1    2    0    0 -0.16602848555E+03 -0.82103683408E+03 -0.47862818693E+03  0.13539763226E+04  0.95000000000E+03 0.  0.
   -2000013    1    1    2    0    0  0.16602848555E+03  0.82103683408E+03  0.11163895162E+03  0.12714677332E+04  0.95000000000E+03 0.  0.
<mgrwt>
<rscale>  0 0.25996683E+04</rscale>
<asrwt>0</asrwt>
<pdfrwt beam="2">  1        2 0.23018718E+00 0.25996683E+04</pdfrwt>
<pdfrwt beam="1">  1       -2 0.17372729E+00 0.25996683E+04</pdfrwt>
<totfact> 0.22636606E+00</totfact>
</mgrwt>
</event>
<event>
 4    1  0.2019612E-008  0.2209936E+04  0.7816531E-02  0.8514304E-01
          1   -1    0    0  501    0  0.00000000000E+00  0.00000000000E+00  0.32368940207E+04  0.32368940207E+04  0.00000000000E+00 0.  1.
         -1   -1    0    0    0  501 -0.00000000000E+00 -0.00000000000E+00 -0.37719923928E+03  0.37719923928E+03  0.00000000000E+00 0. -1.
    2000013    1    1    2    0    0 -0.34579700236E+03  0.44147233886E+03  0.15330266285E+04  0.18886884435E+04  0.95000000000E+03 0.  0.
   -2000013    1    1    2    0    0  0.34579700236E+03 -0.44147233886E+03  0.13266681529E+04  0.17254048165E+04  0.95000000000E+03 0.  0.
<mgrwt>
<rscale>  0 0.22099357E+04</rscale>
<asrwt>0</asrwt>
<pdfrwt beam="1">  1        1 0.49798368E+00 0.22099357E+04</pdfrwt>
<pdfrwt beam="2">  1       -1 0.58030654E-01 0.22099357E+04</pdfrwt>
<totfact> 0.10944857E+00</totfact>
</mgrwt>
</event>
<event>
 4    1  0.2019612E-008  0.2848904E+04  0.7816531E-02  0.8288244E-01
          2   -1    0    0  501    0  0.00000000000E+00  0.00000000000E+00  0.18115373217E+04  0.18115373217E+04  0.00000000000E+00 0.  1.
         -2   -1    0    0    0  501 -0.00000000000E+00 -0.00000000000E+00 -0.11200784639E+04  0.11200784639E+04  0.00000000000E+00 0. -1.
    2000013    1    1    2    0    0 -0.94577868569E+03 -0.25586747153E+03  0.76574430690E+03  0.15648737421E+04  0.95000000000E+03 0.  0.
   -2000013    1    1    2    0    0  0.94577868569E+03  0.25586747153E+03 -0.74285449112E+02  0.13667420434E+04  0.95000000000E+03 0.  0.
<mgrwt>
<rscale>  0 0.28489043E+04</rscale>
<asrwt>0</asrwt>
<pdfrwt beam="1">  1        2 0.27869805E+00 0.28489043E+04</pdfrwt>
<pdfrwt beam="2">  1       -2 0.17231976E+00 0.28489043E+04</pdfrwt>
<totfact> 0.15123941E+00</totfact>
</mgrwt>
</event>
<event>
 4    1  0.2019612E-008  0.2187216E+04  0.7816531E-02  0.8523768E-01
          2   -1    0    0  501    0  0.00000000000E+00  0.00000000000E+00  0.12276902844E+04  0.12276902844E+04  0.00000000000E+00 0.  1.
         -2   -1    0    0    0  501 -0.00000000000E+00 -0.00000000000E+00 -0.97416915770E+03  0.97416915770E+03  0.00000000000E+00 0. -1.
    2000013    1    1    2    0    0 -0.11066239105E+03  0.47077748045E+03  0.37252702692E+03  0.11292271635E+04  0.95000000000E+03 0.  0.
   -2000013    1    1    2    0    0  0.11066239105E+03 -0.47077748045E+03 -0.11900590022E+03  0.10726322786E+04  0.95000000000E+03 0.  0.
<mgrwt>
<rscale>  0 0.21872156E+04</rscale>
<asrwt>0</asrwt>
<pdfrwt beam="1">  1        2 0.18887543E+00 0.21872156E+04</pdfrwt>
<pdfrwt beam="2">  1       -2 0.14987218E+00 0.21872156E+04</pdfrwt>
<totfact> 0.50107513E+00</totfact>
</mgrwt>
</event>
<event>
 4    1  0.2019612E-008  0.2954922E+04  0.7816531E-02  0.8256722E-01
         -2   -1    0    0    0  501 -0.00000000000E+00  0.00000000000E+00  0.10409767036E+04  0.10409767036E+04  0.00000000000E+00 0. -1.
          2   -1    0    0  501    0  0.00000000000E+00 -0.00000000000E+00 -0.20969642965E+04  0.20969642965E+04  0.00000000000E+00 0.  1.
    2000013    1    1    2    0    0  0.77558110797E+03 -0.60796531419E+03 -0.11185330431E+04  0.17677002141E+04  0.95000000000E+03 0.  0.
   -2000013    1    1    2    0    0 -0.77558110797E+03  0.60796531419E+03  0.62545450231E+02  0.13702407860E+04  0.95000000000E+03 0.  0.
<mgrwt>
<rscale>  0 0.29549220E+04</rscale>
<asrwt>0</asrwt>
<pdfrwt beam="2">  1        2 0.32260989E+00 0.29549220E+04</pdfrwt>
<pdfrwt beam="1">  1       -2 0.16015026E+00 0.29549220E+04</pdfrwt>
<totfact> 0.12734321E+00</totfact>
</mgrwt>
</event>
<event>
 4    1  0.2019612E-008  0.2258843E+04  0.7816531E-02  0.8494328E-01
         -1   -1    0    0    0  501 -0.00000000000E+00  0.00000000000E+00  0.19438554109E+04  0.19438554109E+04  0.00000000000E+00 0. -1.
          1   -1    0    0  501    0  0.00000000000E+00 -0.00000000000E+00 -0.65621775526E+03  0.65621775526E+03  0.00000000000E+00 0.  1.
    2000013    1    1    2    0    0  0.43453785510E+03  0.40868986234E+03  0.49267446456E+03  0.12251851612E+04  0.95000000000E+03 0.  0.
   -2000013    1    1    2    0    0 -0.43453785510E+03 -0.40868986234E+03  0.79496319105E+03  0.13748880050E+04  0.95000000000E+03 0.  0.
<mgrwt>
<rscale>  0 0.22588426E+04</rscale>
<asrwt>0</asrwt>
<pdfrwt beam="2">  1        1 0.10095658E+00 0.22588426E+04</pdfrwt>
<pdfrwt beam="1">  1       -1 0.29905468E+00 0.22588426E+04</pdfrwt>
<totfact> 0.91260217E-01</totfact>
</mgrwt>
</event>
<event>
 4    1  0.2019612E-008  0.1998025E+04  0.7816531E-02  0.8607544E-01
         -1   -1    0    0    0  501 -0.00000000000E+00  0.00000000000E+00  0.76516860854E+03  0.76516860854E+03  0.00000000000E+00 0. -1.
          1   -1    0    0  501    0  0.00000000000E+00 -0.00000000000E+00 -0.13043221476E+04  0.13043221476E+04  0.00000000000E+00 0.  1.
    2000013    1    1    2    0    0  0.97547810954E+02  0.27312003361E+03 -0.38024524576E+03  0.10635772539E+04  0.95000000000E+03 0.  0.
   -2000013    1    1    2    0    0 -0.97547810954E+02 -0.27312003361E+03 -0.15890829327E+03  0.10059135022E+04  0.95000000000E+03 0.  0.
<mgrwt>
<rscale>  0 0.19980254E+04</rscale>
<asrwt>0</asrwt>
<pdfrwt beam="2">  1        1 0.20066494E+00 0.19980254E+04</pdfrwt>
<pdfrwt beam="1">  1       -1 0.11771825E+00 0.19980254E+04</pdfrwt>
<totfact> 0.54066999E+00</totfact>
</mgrwt>
</event>
<event>
 4    1  0.2019612E-008  0.2523221E+04  0.7816531E-02  0.8394759E-01
          2   -1    0    0  501    0  0.00000000000E+00  0.00000000000E+00  0.20947839605E+04  0.20947839605E+04  0.00000000000E+00 0.  1.
         -2   -1    0    0    0  501 -0.00000000000E+00 -0.00000000000E+00 -0.75982089954E+03  0.75982089954E+03  0.00000000000E+00 0. -1.
    2000013    1    1    2    0    0 -0.11889043586E+03  0.76710442240E+03  0.10003638943E+04  0.15829756952E+04  0.95000000000E+03 0.  0.
   -2000013    1    1    2    0    0  0.11889043586E+03 -0.76710442240E+03  0.33459916673E+03  0.12716291649E+04  0.95000000000E+03 0.  0.
<mgrwt>
<rscale>  0 0.25232207E+04</rscale>
<asrwt>0</asrwt>
<pdfrwt beam="1">  1        2 0.32227445E+00 0.25232207E+04</pdfrwt>
<pdfrwt beam="2">  1       -2 0.11689552E+00 0.25232207E+04</pdfrwt>
<totfact> 0.29830248E+00</totfact>
</mgrwt>
</event>
<event>
 4    1  0.2019612E-008  0.3112501E+04  0.7816531E-02  0.8212315E-01
          2   -1    0    0  501    0  0.00000000000E+00  0.00000000000E+00  0.18302874650E+04  0.18302874650E+04  0.00000000000E+00 0.  1.
         -2   -1    0    0    0  501 -0.00000000000E+00 -0.00000000000E+00 -0.13232436432E+04  0.13232436432E+04  0.00000000000E+00 0. -1.
    2000013    1    1    2    0    0  0.12148188415E+03  0.12250983788E+04  0.19112792061E+03  0.15667334706E+04  0.95000000000E+03 0.  0.
   -2000013    1    1    2    0    0 -0.12148188415E+03 -0.12250983788E+04  0.31591590122E+03  0.15867976376E+04  0.95000000000E+03 0.  0.
<mgrwt>
<rscale>  0 0.31125014E+04</rscale>
<asrwt>0</asrwt>
<pdfrwt beam="1">  1        2 0.28158269E+00 0.31125014E+04</pdfrwt>
<pdfrwt beam="2">  1       -2 0.20357594E+00 0.31125014E+04</pdfrwt>
<totfact> 0.88734901E-01</totfact>
</mgrwt>
</event>
<event>
 4    1  0.2019612E-008  0.2396200E+04  0.7816531E-02  0.8440928E-01
         -2   -1    0    0    0  501 -0.00000000000E+00  0.00000000000E+00  0.36240786956E+04  0.36240786956E+04  0.00000000000E+00 0. -1.
          2   -1    0    0  501    0  0.00000000000E+00 -0.00000000000E+00 -0.39608516945E+03  0.39608516945E+03  0.00000000000E+00 0.  1.
    2000013    1    1    2    0    0  0.55407501629E+03  0.45618258805E+03  0.18380979802E+04  0.21900241693E+04  0.95000000000E+03 0.  0.
   -2000013    1    1    2    0    0 -0.55407501629E+03 -0.45618258805E+03  0.13898955460E+04  0.18301396958E+04  0.95000000000E+03 0.  0.
<mgrwt>
<rscale>  0 0.23962002E+04</rscale>
<asrwt>0</asrwt>
<pdfrwt beam="2">  1        2 0.60936182E-01 0.23962002E+04</pdfrwt>
<pdfrwt beam="1">  1       -2 0.55755055E+00 0.23962002E+04</pdfrwt>
<totfact> 0.55832340E-02</totfact>
</mgrwt>
</event>
<event>
 4    1  0.2019612E-008  0.2699005E+04  0.7816531E-02  0.8335328E-01
          2   -1    0    0  501    0  0.00000000000E+00  0.00000000000E+00  0.13236775148E+04  0.13236775148E+04  0.00000000000E+00 0.  1.
         -2   -1    0    0    0  501 -0.00000000000E+00 -0.00000000000E+00 -0.13758310019E+04  0.13758310019E+04  0.00000000000E+00 0. -1.
    2000013    1    1    2    0    0  0.40928479250E+03  0.75704991066E+03 -0.44807724404E+03  0.13579071490E+04  0.95000000000E+03 0.  0.
   -2000013    1    1    2    0    0 -0.40928479250E+03 -0.75704991066E+03  0.39592375698E+03  0.13416013677E+04  0.95000000000E+03 0.  0.
<mgrwt>
<rscale>  0 0.26990047E+04</rscale>
<asrwt>0</asrwt>
<pdfrwt beam="1">  1        2 0.20364270E+00 0.26990047E+04</pdfrwt>
<pdfrwt beam="2">  1       -2 0.21166631E+00 0.26990047E+04</pdfrwt>
<totfact> 0.15697570E+00</totfact>
</mgrwt>
</event>
<event>
 4    1  0.2019612E-008  0.3230560E+04  0.7816531E-02  0.8180793E-01
         -2   -1    0    0    0  501 -0.00000000000E+00  0.00000000000E+00  0.17633183820E+04  0.17633183820E+04  0.00000000000E+00 0. -1.
          2   -1    0    0  501    0  0.00000000000E+00 -0.00000000000E+00 -0.14796699283E+04  0.14796699283E+04  0.00000000000E+00 0.  1.
    2000013    1    1    2    0    0 -0.16794638009E+02  0.98329285883E+03  0.10050640785E+04  0.16969975568E+04  0.95000000000E+03 0.  0.
   -2000013    1    1    2    0    0  0.16794638009E+02 -0.98329285883E+03 -0.72141562479E+03  0.15459907535E+04  0.95000000000E+03 0.  0.
<mgrwt>
<rscale>  0 0.32305598E+04</rscale>
<asrwt>0</asrwt>
<pdfrwt beam="2">  1        2 0.22764153E+00 0.32305598E+04</pdfrwt>
<pdfrwt beam="1">  1       -2 0.27127975E+00 0.32305598E+04</pdfrwt>
<totfact> 0.52115750E-01</totfact>
</mgrwt>
</event>
<event>
 4    1  0.2019612E-008  0.2302491E+04  0.7816531E-02  0.8476940E-01
          2   -1    0    0  501    0  0.00000000000E+00  0.00000000000E+00  0.13488630437E+04  0.13488630437E+04  0.00000000000E+00 0.  1.
         -2   -1    0    0    0  501 -0.00000000000E+00 -0.00000000000E+00 -0.98258007431E+03  0.98258007431E+03  0.00000000000E+00 0. -1.
    2000013    1    1    2    0    0  0.31691108687E+03 -0.36691607123E+03  0.62195657167E+03  0.12346619041E+04  0.95000000000E+03 0.  0.
   -2000013    1    1    2    0    0 -0.31691108687E+03  0.36691607123E+03 -0.25567360229E+03  0.10967812139E+04  0.95000000000E+03 0.  0.
<mgrwt>
<rscale>  0 0.23024908E+04</rscale>
<asrwt>0</asrwt>
<pdfrwt beam="1">  1        2 0.20751739E+00 0.23024908E+04</pdfrwt>
<pdfrwt beam="2">  1       -2 0.15116617E+00 0.23024908E+04</pdfrwt>
<totfact> 0.41204939E+00</totfact>
</mgrwt>
</event>
<event>
 4    1  0.2019612E-008  0.2920334E+04  0.7816531E-02  0.8266853E-01
          2   -1    0    0  501    0  0.00000000000E+00  0.00000000000E+00  0.32835829669E+04  0.32835829669E+04  0.00000000000E+00 0.  1.
         -2   -1    0    0    0  501 -0.00000000000E+00 -0.00000000000E+00 -0.64931742755E+03  0.64931742755E+03  0.00000000000E+00 0. -1.
    2000013    1    1    2    0    0 -0.10228800510E+04 -0.89868830286E+02  0.75338903183E+03  0.15888533723E+04  0.95000000000E+03 0.  0.
   -2000013    1    1    2    0    0  0.10228800510E+04  0.89868830286E+02  0.18808765076E+04  0.23440470222E+04  0.95000000000E+03 0.  0.
<mgrwt>
<rscale>  0 0.29203340E+04</rscale>
<asrwt>0</asrwt>
<pdfrwt beam="1">  1        2 0.50516660E+00 0.29203340E+04</pdfrwt>
<pdfrwt beam="2">  1       -2 0.99894991E-01 0.29203340E+04</pdfrwt>
<totfact> 0.81451462E-01</totfact>
</mgrwt>
</event>
<event>
 4    1  0.2019612E-008  0.2567446E+04  0.7816531E-02  0.8379344E-01
         -2   -1    0    0    0  501 -0.00000000000E+00  0.00000000000E+00  0.10702291481E+04  0.10702291481E+04  0.00000000000E+00 0. -1.
          2   -1    0    0  501    0  0.00000000000E+00 -0.00000000000E+00 -0.15398051526E+04  0.15398051526E+04  0.00000000000E+00 0.  1.
    2000013    1    1    2    0    0  0.76543259168E+03 -0.33873562240E+03 -0.19579717979E+02  0.12662986376E+04  0.95000000000E+03 0.  0.
   -2000013    1    1    2    0    0 -0.76543259168E+03  0.33873562240E+03 -0.44999628655E+03  0.13437356631E+04  0.95000000000E+03 0.  0.
<mgrwt>
<rscale>  0 0.25674457E+04</rscale>
<asrwt>0</asrwt>
<pdfrwt beam="2">  1        2 0.23689310E+00 0.25674457E+04</pdfrwt>
<pdfrwt beam="1">  1       -2 0.16465064E+00 0.25674457E+04</pdfrwt>
<totfact> 0.24901510E+00</totfact>
</mgrwt>
</event>
<event>
 4    1  0.2019612E-008  0.2484335E+04  0.7816531E-02  0.8408588E-01
          2   -1    0    0  501    0  0.00000000000E+00  0.00000000000E+00  0.26444697303E+04  0.26444697303E+04  0.00000000000E+00 0.  1.
         -2   -1    0    0    0  501 -0.00000000000E+00 -0.00000000000E+00 -0.58347428592E+03  0.58347428592E+03  0.00000000000E+00 0. -1.
    2000013    1    1    2    0    0  0.24200770593E+03  0.54509694428E+03  0.17238786005E+04  0.20566856438E+04  0.95000000000E+03 0.  0.
   -2000013    1    1    2    0    0 -0.24200770593E+03 -0.54509694428E+03  0.33711684388E+03  0.11712583724E+04  0.95000000000E+03 0.  0.
<mgrwt>
<rscale>  0 0.24843350E+04</rscale>
<asrwt>0</asrwt>
<pdfrwt beam="1">  1        2 0.40684149E+00 0.24843350E+04</pdfrwt>
<pdfrwt beam="2">  1       -2 0.89765276E-01 0.24843350E+04</pdfrwt>
<totfact> 0.27198615E+00</totfact>
</mgrwt>
</event>
<event>
 4    1  0.2019612E-008  0.2636881E+04  0.7816531E-02  0.8355781E-01
          2   -1    0    0  501    0  0.00000000000E+00  0.00000000000E+00  0.27279390591E+04  0.27279390591E+04  0.00000000000E+00 0.  1.
         -2   -1    0    0    0  501 -0.00000000000E+00 -0.00000000000E+00 -0.63721537134E+03  0.63721537134E+03  0.00000000000E+00 0. -1.
    2000013    1    1    2    0    0  0.80647550021E+03 -0.42131334795E+03  0.93209681882E+03  0.16122072290E+04  0.95000000000E+03 0.  0.
   -2000013    1    1    2    0    0 -0.80647550021E+03  0.42131334795E+03  0.11586268689E+04  0.17529472014E+04  0.95000000000E+03 0.  0.
<mgrwt>
<rscale>  0 0.26368805E+04</rscale>
<asrwt>0</asrwt>
<pdfrwt beam="1">  1        2 0.41968293E+00 0.26368805E+04</pdfrwt>
<pdfrwt beam="2">  1       -2 0.98033136E-01 0.26368805E+04</pdfrwt>
<totfact> 0.19503914E+00</totfact>
</mgrwt>
</event>
<event>
 4    1  0.2019612E-008  0.2033896E+04  0.7816531E-02  0.8590935E-01
          2   -1    0    0  501    0  0.00000000000E+00  0.00000000000E+00  0.95268384082E+03  0.95268384082E+03  0.00000000000E+00 0.  1.
         -2   -1    0    0    0  501 -0.00000000000E+00 -0.00000000000E+00 -0.10855476716E+04  0.10855476716E+04  0.00000000000E+00 0. -1.
    2000013    1    1    2    0    0  0.10213327868E+03  0.34813017802E+03 -0.58806643250E+02  0.10186186964E+04  0.95000000000E+03 0.  0.
   -2000013    1    1    2    0    0 -0.10213327868E+03 -0.34813017802E+03 -0.74057187518E+02  0.10196128160E+04  0.95000000000E+03 0.  0.
<mgrwt>
<rscale>  0 0.20338965E+04</rscale>
<asrwt>0</asrwt>
<pdfrwt beam="1">  1        2 0.14656675E+00 0.20338965E+04</pdfrwt>
<pdfrwt beam="2">  1       -2 0.16700733E+00 0.20338965E+04</pdfrwt>
<totfact> 0.56082304E+00</totfact>
</mgrwt>
</event>
<event>
 4    1  0.2019612E-008  0.2491296E+04  0.7816531E-02  0.8406093E-01
          2   -1    0    0  501    0  0.00000000000E+00  0.00000000000E+00  0.42536674605E+04  0.42536674605E+04  0.00000000000E+00 0.  1.
         -2   -1    0    0    0  501 -0.00000000000E+00 -0.00000000000E+00 -0.36477677629E+03  0.36477677629E+03  0.00000000000E+00 0. -1.
    2000013    1    1    2    0    0 -0.64460710594E+03 -0.34201958988E+03  0.25775862923E+04  0.28423488201E+04  0.95000000000E+03 0.  0.
   -2000013    1    1    2    0    0  0.64460710594E+03  0.34201958988E+03  0.13113043919E+04  0.17760954166E+04  0.95000000000E+03 0.  0.
<mgrwt>
<rscale>  0 0.24912961E+04</rscale>
<asrwt>0</asrwt>
<pdfrwt beam="1">  1        2 0.65441035E+00 0.24912961E+04</pdfrwt>
<pdfrwt beam="2">  1       -2 0.56119507E-01 0.24912961E+04</pdfrwt>
<totfact> 0.55780177E-01</totfact>
</mgrwt>
</event>
<event>
 4    1  0.2019612E-008  0.2630550E+04  0.7816531E-02  0.8357898E-01
          2   -1    0    0  501    0  0.00000000000E+00  0.00000000000E+00  0.77808115589E+03  0.77808115589E+03  0.00000000000E+00 0.  1.
         -2   -1    0    0    0  501 -0.00000000000E+00 -0.00000000000E+00 -0.22233512238E+04  0.22233512238E+04  0.00000000000E+00 0. -1.
    2000013    1    1    2    0    0  0.45743935252E+03  0.76895807341E+03 -0.53549722774E+03  0.14106043247E+04  0.95000000000E+03 0.  0.
   -2000013    1    1    2    0    0 -0.45743935252E+03 -0.76895807341E+03 -0.90977284020E+03  0.15908280550E+04  0.95000000000E+03 0.  0.
<mgrwt>
<rscale>  0 0.26305495E+04</rscale>
<asrwt>0</asrwt>
<pdfrwt beam="1">  1        2 0.11970479E+00 0.26305495E+04</pdfrwt>
<pdfrwt beam="2">  1       -2 0.34205403E+00 0.26305495E+04</pdfrwt>
<totfact> 0.55054991E-01</totfact>
</mgrwt>
</event>
<event>
 4    1  0.2019612E-008  0.2212643E+04  0.7816531E-02  0.8513184E-01
         -2   -1    0    0    0  501 -0.00000000000E+00  0.00000000000E+00  0.87967694107E+03  0.87967694107E+03  0.00000000000E+00 0. -1.
          2   -1    0    0  501    0  0.00000000000E+00 -0.00000000000E+00 -0.13913596914E+04  0.13913596914E+04  0.00000000000E+00 0.  1.
    2000013    1    1    2    0    0 -0.53491869333E+03 -0.79562693125E+02 -0.81117167470E+02  0.10961515522E+04  0.95000000000E+03 0.  0.
   -2000013    1    1    2    0    0  0.53491869333E+03  0.79562693125E+02 -0.43056558287E+03  0.11748850802E+04  0.95000000000E+03 0.  0.
<mgrwt>
<rscale>  0 0.22126428E+04</rscale>
<asrwt>0</asrwt>
<pdfrwt beam="2">  1        2 0.21405534E+00 0.22126428E+04</pdfrwt>
<pdfrwt beam="1">  1       -2 0.13533491E+00 0.22126428E+04</pdfrwt>
<totfact> 0.52401598E+00</totfact>
</mgrwt>
</event>
<event>
 4    1  0.2019612E-008  0.2252428E+04  0.7816531E-02  0.8496918E-01
          1   -1    0    0  501    0  0.00000000000E+00  0.00000000000E+00  0.17172094802E+04  0.17172094802E+04  0.00000000000E+00 0.  1.
         -1   -1    0    0    0  501 -0.00000000000E+00 -0.00000000000E+00 -0.73861578290E+03  0.73861578290E+03  0.00000000000E+00 0. -1.
    2000013    1    1    2    0    0  0.43638671520E+03 -0.32177908323E+03  0.19697634783E+03  0.11114291814E+04  0.95000000000E+03 0.  0.
   -2000013    1    1    2    0    0 -0.43638671520E+03  0.32177908323E+03  0.78161734951E+03  0.13443960818E+04  0.95000000000E+03 0.  0.
<mgrwt>
<rscale>  0 0.22524280E+04</rscale>
<asrwt>0</asrwt>
<pdfrwt beam="1">  1        1 0.26418607E+00 0.22524280E+04</pdfrwt>
<pdfrwt beam="2">  1       -1 0.11363320E+00 0.22524280E+04</pdfrwt>
<totfact> 0.29736622E+00</totfact>
</mgrwt>
</event>
<event>
 4    1  0.2019612E-008  0.2066382E+04  0.7816531E-02  0.8576199E-01
         -2   -1    0    0    0  501 -0.00000000000E+00  0.00000000000E+00  0.12793633224E+04  0.12793633224E+04  0.00000000000E+00 0. -1.
          2   -1    0    0  501    0  0.00000000000E+00 -0.00000000000E+00 -0.83438650599E+03  0.83438650599E+03  0.00000000000E+00 0.  1.
    2000013    1    1    2    0    0  0.40286731933E+03  0.43436350307E+02  0.19365178968E+03  0.10508043629E+04  0.95000000000E+03 0.  0.
   -2000013    1    1    2    0    0 -0.40286731933E+03 -0.43436350307E+02  0.25132502675E+03  0.10629454655E+04  0.95000000000E+03 0.  0.
<mgrwt>
<rscale>  0 0.20663819E+04</rscale>
<asrwt>0</asrwt>
<pdfrwt beam="2">  1        2 0.12836716E+00 0.20663819E+04</pdfrwt>
<pdfrwt beam="1">  1       -2 0.19682513E+00 0.20663819E+04</pdfrwt>
<totfact> 0.41962564E+00</totfact>
</mgrwt>
</event>
<event>
 4    1  0.2019612E-008  0.3143378E+04  0.7816531E-02  0.8203933E-01
         -2   -1    0    0    0  501 -0.00000000000E+00  0.00000000000E+00  0.24949553517E+04  0.24949553517E+04  0.00000000000E+00 0. -1.
          2   -1    0    0  501    0  0.00000000000E+00 -0.00000000000E+00 -0.99008011599E+03  0.99008011599E+03  0.00000000000E+00 0.  1.
    2000013    1    1    2    0    0  0.65958194455E+03 -0.98063216555E+03  0.12109292679E+04  0.19404992856E+04  0.95000000000E+03 0.  0.
   -2000013    1    1    2    0    0 -0.65958194455E+03  0.98063216555E+03  0.29394596782E+03  0.15445361821E+04  0.95000000000E+03 0.  0.
<mgrwt>
<rscale>  0 0.31433776E+04</rscale>
<asrwt>0</asrwt>
<pdfrwt beam="2">  1        2 0.15232002E+00 0.31433776E+04</pdfrwt>
<pdfrwt beam="1">  1       -2 0.38383928E+00 0.31433776E+04</pdfrwt>
<totfact> 0.20435774E-01</totfact>
</mgrwt>
</event>
<event>
 4    1  0.2019612E-008  0.2678496E+04  0.7816531E-02  0.8342016E-01
         -2   -1    0    0    0  501 -0.00000000000E+00  0.00000000000E+00  0.22837684608E+04  0.22837684608E+04  0.00000000000E+00 0. -1.
          2   -1    0    0  501    0  0.00000000000E+00 -0.00000000000E+00 -0.78536201201E+03  0.78536201201E+03  0.00000000000E+00 0.  1.
    2000013    1    1    2    0    0  0.13006110300E+03 -0.89557058493E+03  0.10569259361E+04  0.16848011745E+04  0.95000000000E+03 0.  0.
   -2000013    1    1    2    0    0 -0.13006110300E+03  0.89557058493E+03  0.44148051268E+03  0.13843292983E+04  0.95000000000E+03 0.  0.
<mgrwt>
<rscale>  0 0.26784958E+04</rscale>
<asrwt>0</asrwt>
<pdfrwt beam="2">  1        2 0.12082493E+00 0.26784958E+04</pdfrwt>
<pdfrwt beam="1">  1       -2 0.35134899E+00 0.26784958E+04</pdfrwt>
<totfact> 0.47337159E-01</totfact>
</mgrwt>
</event>
<event>
 4    1  0.2019612E-008  0.2616196E+04  0.7816531E-02  0.8362721E-01
         -1   -1    0    0    0  501 -0.00000000000E+00  0.00000000000E+00  0.13731140383E+04  0.13731140383E+04  0.00000000000E+00 0. -1.
          1   -1    0    0  501    0  0.00000000000E+00 -0.00000000000E+00 -0.12461601391E+04  0.12461601391E+04  0.00000000000E+00 0.  1.
    2000013    1    1    2    0    0 -0.94600679396E+02  0.81114425492E+03 -0.31341746591E+03  0.12913693503E+04  0.95000000000E+03 0.  0.
   -2000013    1    1    2    0    0  0.94600679396E+02 -0.81114425492E+03  0.44037136510E+03  0.13279048272E+04  0.95000000000E+03 0.  0.
<mgrwt>
<rscale>  0 0.26161957E+04</rscale>
<asrwt>0</asrwt>
<pdfrwt beam="2">  1        1 0.19171694E+00 0.26161957E+04</pdfrwt>
<pdfrwt beam="1">  1       -1 0.21124831E+00 0.26161957E+04</pdfrwt>
<totfact> 0.10966449E+00</totfact>
</mgrwt>
</event>
<event>
 4    1  0.2019612E-008  0.2717087E+04  0.7816531E-02  0.8329482E-01
         -2   -1    0    0    0  501 -0.00000000000E+00  0.00000000000E+00  0.55487555067E+03  0.55487555067E+03  0.00000000000E+00 0. -1.
          2   -1    0    0  501    0  0.00000000000E+00 -0.00000000000E+00 -0.33262240761E+04  0.33262240761E+04  0.00000000000E+00 0.  1.
    2000013    1    1    2    0    0  0.71339378669E+03 -0.27690017936E+03 -0.53156949694E+03  0.13306654479E+04  0.95000000000E+03 0.  0.
   -2000013    1    1    2    0    0 -0.71339378669E+03  0.27690017936E+03 -0.22397790285E+04  0.25504341789E+04  0.95000000000E+03 0.  0.
<mgrwt>
<rscale>  0 0.27170870E+04</rscale>
<asrwt>0</asrwt>
<pdfrwt beam="2">  1        2 0.51172677E+00 0.27170870E+04</pdfrwt>
<pdfrwt beam="1">  1       -2 0.85365472E-01 0.27170870E+04</pdfrwt>
<totfact> 0.11180790E+00</totfact>
</mgrwt>
</event>
<event>
 4    1  0.2019612E-008  0.2869517E+04  0.7816531E-02  0.8282005E-01
          2   -1    0    0  501    0  0.00000000000E+00  0.00000000000E+00  0.16858903782E+04  0.16858903782E+04  0.00000000000E+00 0.  1.
         -2   -1    0    0    0  501 -0.00000000000E+00 -0.00000000000E+00 -0.12210353376E+04  0.12210353376E+04  0.00000000000E+00 0. -1.
    2000013    1    1    2    0    0  0.59830640986E+03 -0.15397374052E+03 -0.65901782092E+03  0.13109092116E+04  0.95000000000E+03 0.  0.
   -2000013    1    1    2    0    0 -0.59830640986E+03  0.15397374052E+03  0.11238728615E+04  0.15960165042E+04  0.95000000000E+03 0.  0.
<mgrwt>
<rscale>  0 0.28695168E+04</rscale>
<asrwt>0</asrwt>
<pdfrwt beam="1">  1        2 0.25936775E+00 0.28695168E+04</pdfrwt>
<pdfrwt beam="2">  1       -2 0.18785159E+00 0.28695168E+04</pdfrwt>
<totfact> 0.13847819E+00</totfact>
</mgrwt>
</event>
<event>
 4    1  0.2019612E-008  0.2771195E+04  0.7816531E-02  0.8312267E-01
         -2   -1    0    0    0  501 -0.00000000000E+00  0.00000000000E+00  0.10703922635E+04  0.10703922635E+04  0.00000000000E+00 0. -1.
          2   -1    0    0  501    0  0.00000000000E+00 -0.00000000000E+00 -0.17936233513E+04  0.17936233513E+04  0.00000000000E+00 0.  1.
    2000013    1    1    2    0    0 -0.95827852212E+03  0.10050284049E+03 -0.53325577277E+02  0.13541573631E+04  0.95000000000E+03 0.  0.
   -2000013    1    1    2    0    0  0.95827852212E+03 -0.10050284049E+03 -0.66990551052E+03  0.15098582516E+04  0.95000000000E+03 0.  0.
<mgrwt>
<rscale>  0 0.27711951E+04</rscale>
<asrwt>0</asrwt>
<pdfrwt beam="2">  1        2 0.27594205E+00 0.27711951E+04</pdfrwt>
<pdfrwt beam="1">  1       -2 0.16467573E+00 0.27711951E+04</pdfrwt>
<totfact> 0.17664964E+00</totfact>
</mgrwt>
</event>
<event>
 4    1  0.2019612E-008  0.2575803E+04  0.7816531E-02  0.8376467E-01
         -2   -1    0    0    0  501 -0.00000000000E+00  0.00000000000E+00  0.51315955848E+03  0.51315955848E+03  0.00000000000E+00 0.  1.
          2   -1    0    0  501    0  0.00000000000E+00 -0.00000000000E+00 -0.32323084945E+04  0.32323084945E+04  0.00000000000E+00 0. -1.
    2000013    1    1    2    0    0  0.79566469710E+03  0.24775928909E+03 -0.99831678907E+03  0.16104668227E+04  0.95000000000E+03 0.  0.
   -2000013    1    1    2    0    0 -0.79566469710E+03 -0.24775928909E+03 -0.17208321470E+04  0.21350012303E+04  0.95000000000E+03 0.  0.
<mgrwt>
<rscale>  0 0.25758028E+04</rscale>
<asrwt>0</asrwt>
<pdfrwt beam="2">  1        2 0.49727824E+00 0.25758028E+04</pdfrwt>
<pdfrwt beam="1">  1       -2 0.78947623E-01 0.25758028E+04</pdfrwt>
<totfact> 0.15593054E+00</totfact>
</mgrwt>
</event>
<event>
 4    1  0.2019612E-008  0.1924975E+04  0.7816531E-02  0.8642524E-01
         -2   -1    0    0    0  501 -0.00000000000E+00  0.00000000000E+00  0.27567616481E+03  0.27567616481E+03  0.00000000000E+00 0. -1.
          2   -1    0    0  501    0  0.00000000000E+00 -0.00000000000E+00 -0.33603993185E+04  0.33603993185E+04  0.00000000000E+00 0.  1.
    2000013    1    1    2    0    0 -0.68347985215E+02  0.13845574044E+03 -0.15543909171E+04  0.18282430260E+04  0.95000000000E+03 0.  0.
   -2000013    1    1    2    0    0  0.68347985215E+02 -0.13845574044E+03 -0.15303322366E+04  0.18078324573E+04  0.95000000000E+03 0.  0.
<mgrwt>
<rscale>  0 0.19249748E+04</rscale>
<asrwt>0</asrwt>
<pdfrwt beam="2">  1        2 0.51698451E+00 0.19249748E+04</pdfrwt>
<pdfrwt beam="1">  1       -2 0.42411718E-01 0.19249748E+04</pdfrwt>
<totfact> 0.50234070E+00</totfact>
</mgrwt>
</event>
<event>
 4    1  0.2019612E-008  0.2539323E+04  0.7816531E-02  0.8389109E-01
         -2   -1    0    0    0  501 -0.00000000000E+00  0.00000000000E+00  0.11085696847E+04  0.11085696847E+04  0.00000000000E+00 0. -1.
          2   -1    0    0  501    0  0.00000000000E+00 -0.00000000000E+00 -0.14541621325E+04  0.14541621325E+04  0.00000000000E+00 0.  1.
    2000013    1    1    2    0    0  0.64677880063E+02 -0.83975402511E+03 -0.15963739752E+03  0.12795913995E+04  0.95000000000E+03 0.  0.
   -2000013    1    1    2    0    0 -0.64677880063E+02  0.83975402511E+03 -0.18595505030E+03  0.12831404177E+04  0.95000000000E+03 0.  0.
<mgrwt>
<rscale>  0 0.25393228E+04</rscale>
<asrwt>0</asrwt>
<pdfrwt beam="2">  1        2 0.22371725E+00 0.25393228E+04</pdfrwt>
<pdfrwt beam="1">  1       -2 0.17054918E+00 0.25393228E+04</pdfrwt>
<totfact> 0.25309411E+00</totfact>
</mgrwt>
</event>
<event>
 4    1  0.2019612E-008  0.2661923E+04  0.7816531E-02  0.8347466E-01
         -2   -1    0    0    0  501 -0.00000000000E+00  0.00000000000E+00  0.10449859446E+04  0.10449859446E+04  0.00000000000E+00 0. -1.
          2   -1    0    0  501    0  0.00000000000E+00 -0.00000000000E+00 -0.16951985748E+04  0.16951985748E+04  0.00000000000E+00 0.  1.
    2000013    1    1    2    0    0 -0.84528350529E+03  0.35139623838E+03 -0.50627832462E+03  0.14130821854E+04  0.95000000000E+03 0.  0.
   -2000013    1    1    2    0    0  0.84528350529E+03 -0.35139623838E+03 -0.14393430549E+03  0.13271023340E+04  0.95000000000E+03 0.  0.
<mgrwt>
<rscale>  0 0.26619231E+04</rscale>
<asrwt>0</asrwt>
<pdfrwt beam="2">  1        2 0.26079978E+00 0.26619231E+04</pdfrwt>
<pdfrwt beam="1">  1       -2 0.16076707E+00 0.26619231E+04</pdfrwt>
<totfact> 0.21593890E+00</totfact>
</mgrwt>
</event>
<event>
 4    1  0.2019612E-008  0.2924711E+04  0.7816531E-02  0.8265563E-01
         -2   -1    0    0    0  501 -0.00000000000E+00  0.00000000000E+00  0.12490276530E+04  0.12490276530E+04  0.00000000000E+00 0. -1.
          2   -1    0    0  501    0  0.00000000000E+00 -0.00000000000E+00 -0.17121191291E+04  0.17121191291E+04  0.00000000000E+00 0.  1.
    2000013    1    1    2    0    0 -0.17374395104E+03 -0.10161602780E+04 -0.65292218533E+03  0.15464721307E+04  0.95000000000E+03 0.  0.
   -2000013    1    1    2    0    0  0.17374395104E+03  0.10161602780E+04  0.18983070926E+03  0.14146746514E+04  0.95000000000E+03 0.  0.
<mgrwt>
<rscale>  0 0.29247114E+04</rscale>
<asrwt>0</asrwt>
<pdfrwt beam="2">  1        2 0.26340294E+00 0.29247114E+04</pdfrwt>
<pdfrwt beam="1">  1       -2 0.19215810E+00 0.29247114E+04</pdfrwt>
<totfact> 0.12470393E+00</totfact>
</mgrwt>
</event>
<event>
 4    1  0.2019612E-008  0.2218639E+04  0.7816531E-02  0.8510710E-01
          2   -1    0    0  501    0  0.00000000000E+00  0.00000000000E+00  0.10118162010E+04  0.10118162010E+04  0.00000000000E+00 0. -1.
         -2   -1    0    0    0  501 -0.00000000000E+00 -0.00000000000E+00 -0.12162183567E+04  0.12162183567E+04  0.00000000000E+00 0.  1.
    2000013    1    1    2    0    0 -0.10476665695E+03 -0.55057828150E+03 -0.22092586465E+03  0.11249092115E+04  0.95000000000E+03 0.  0.
   -2000013    1    1    2    0    0  0.10476665695E+03  0.55057828150E+03  0.16523708976E+02  0.11031253462E+04  0.95000000000E+03 0.  0.
<mgrwt>
<rscale>  0 0.22186387E+04</rscale>
<asrwt>0</asrwt>
<pdfrwt beam="1">  1        2 0.15566403E+00 0.22186387E+04</pdfrwt>
<pdfrwt beam="2">  1       -2 0.18711051E+00 0.22186387E+04</pdfrwt>
<totfact> 0.36613986E+00</totfact>
</mgrwt>
</event>
<event>
 4    1  0.2019612E-008  0.2730248E+04  0.7816531E-02  0.8325257E-01
          1   -1    0    0  501    0  0.00000000000E+00  0.00000000000E+00  0.40314457832E+04  0.40314457832E+04  0.00000000000E+00 0. -1.
         -1   -1    0    0    0  501 -0.00000000000E+00 -0.00000000000E+00 -0.46225698783E+03  0.46225698783E+03  0.00000000000E+00 0.  1.
    2000013    1    1    2    0    0 -0.57672529966E+03  0.37295177765E+03  0.63322168606E+03  0.13323568604E+04  0.95000000000E+03 0.  0.
   -2000013    1    1    2    0    0  0.57672529966E+03 -0.37295177765E+03  0.29359671093E+04  0.31613459106E+04  0.95000000000E+03 0.  0.
<mgrwt>
<rscale>  0 0.27302483E+04</rscale>
<asrwt>0</asrwt>
<pdfrwt beam="1">  1        1 0.62022241E+00 0.27302483E+04</pdfrwt>
<pdfrwt beam="2">  1       -1 0.71116462E-01 0.27302483E+04</pdfrwt>
<totfact> 0.15666167E-01</totfact>
</mgrwt>
</event>
<event>
 4    1  0.2019612E-008  0.2110471E+04  0.7816531E-02  0.8556645E-01
         -2   -1    0    0    0  501 -0.00000000000E+00  0.00000000000E+00  0.18683884932E+04  0.18683884932E+04  0.00000000000E+00 0. -1.
          2   -1    0    0  501    0  0.00000000000E+00 -0.00000000000E+00 -0.59598007128E+03  0.59598007128E+03  0.00000000000E+00 0.  1.
    2000013    1    1    2    0    0  0.40531406782E+03 -0.20290142891E+03  0.72338139299E+03  0.12771958045E+04  0.95000000000E+03 0.  0.
   -2000013    1    1    2    0    0 -0.40531406782E+03  0.20290142891E+03  0.54902702894E+03  0.11871727599E+04  0.95000000000E+03 0.  0.
<mgrwt>
<rscale>  0 0.21104713E+04</rscale>
<asrwt>0</asrwt>
<pdfrwt beam="2">  1        2 0.91689242E-01 0.21104713E+04</pdfrwt>
<pdfrwt beam="1">  1       -2 0.28744438E+00 0.21104713E+04</pdfrwt>
<totfact> 0.17470676E+00</totfact>
</mgrwt>
</event>
<event>
 4    1  0.2019612E-008  0.2315146E+04  0.7816531E-02  0.8471973E-01
         -2   -1    0    0    0  501 -0.00000000000E+00  0.00000000000E+00  0.22089546610E+04  0.22089546610E+04  0.00000000000E+00 0. -1.
          2   -1    0    0  501    0  0.00000000000E+00 -0.00000000000E+00 -0.60661079905E+03  0.60661079905E+03  0.00000000000E+00 0.  1.
    2000013    1    1    2    0    0  0.45359437000E+03  0.17026704792E+03  0.13487596576E+04  0.17194159863E+04  0.95000000000E+03 0.  0.
   -2000013    1    1    2    0    0 -0.45359437000E+03 -0.17026704792E+03  0.25358420440E+03  0.10961494738E+04  0.95000000000E+03 0.  0.
<mgrwt>
<rscale>  0 0.23151464E+04</rscale>
<asrwt>0</asrwt>
<pdfrwt beam="2">  1        2 0.93324740E-01 0.23151464E+04</pdfrwt>
<pdfrwt beam="1">  1       -2 0.33983917E+00 0.23151464E+04</pdfrwt>
<totfact> 0.79940858E-01</totfact>
</mgrwt>
</event>
<event>
 4    1  0.2019612E-008  0.1996669E+04  0.7816531E-02  0.8608180E-01
          2   -1    0    0  501    0  0.00000000000E+00  0.00000000000E+00  0.98628122419E+03  0.98628122419E+03  0.00000000000E+00 0.  1.
         -2   -1    0    0    0  501 -0.00000000000E+00 -0.00000000000E+00 -0.10105350619E+04  0.10105350619E+04  0.00000000000E+00 0. -1.
    2000013    1    1    2    0    0  0.97953949443E+02 -0.23699107624E+03 -0.18069798334E+03  0.10004556500E+04  0.95000000000E+03 0.  0.
   -2000013    1    1    2    0    0 -0.97953949443E+02  0.23699107624E+03  0.15644414564E+03  0.99636063608E+03  0.95000000000E+03 0.  0.
<mgrwt>
<rscale>  0 0.19966690E+04</rscale>
<asrwt>0</asrwt>
<pdfrwt beam="1">  1        2 0.15173557E+00 0.19966690E+04</pdfrwt>
<pdfrwt beam="2">  1       -2 0.15546693E+00 0.19966690E+04</pdfrwt>
<totfact> 0.65045444E+00</totfact>
</mgrwt>
</event>
<event>
 4    1  0.2019612E-008  0.2515411E+04  0.7816531E-02  0.8397516E-01
          2   -1    0    0  501    0  0.00000000000E+00  0.00000000000E+00  0.32640970166E+04  0.32640970166E+04  0.00000000000E+00 0.  1.
         -2   -1    0    0    0  501 -0.00000000000E+00 -0.00000000000E+00 -0.48461279108E+03  0.48461279108E+03  0.00000000000E+00 0. -1.
    2000013    1    1    2    0    0  0.34162095261E+03  0.28195945173E+03  0.35388681406E+03  0.11063190701E+04  0.95000000000E+03 0.  0.
   -2000013    1    1    2    0    0 -0.34162095261E+03 -0.28195945173E+03  0.24255974115E+04  0.26423907376E+04  0.95000000000E+03 0.  0.
<mgrwt>
<rscale>  0 0.25154110E+04</rscale>
<asrwt>0</asrwt>
<pdfrwt beam="1">  1        2 0.50216876E+00 0.25154110E+04</pdfrwt>
<pdfrwt beam="2">  1       -2 0.74555816E-01 0.25154110E+04</pdfrwt>
<totfact> 0.16970286E+00</totfact>
</mgrwt>
</event>
<event>
 4    1  0.2019612E-008  0.2350173E+04  0.7816531E-02  0.8458397E-01
          2   -1    0    0  501    0  0.00000000000E+00  0.00000000000E+00  0.23759587517E+04  0.23759587517E+04  0.00000000000E+00 0.  1.
         -2   -1    0    0    0  501 -0.00000000000E+00 -0.00000000000E+00 -0.58116673714E+03  0.58116673714E+03  0.00000000000E+00 0. -1.
    2000013    1    1    2    0    0  0.50251704792E+03  0.37497977632E+03  0.53013321110E+03  0.12556569745E+04  0.95000000000E+03 0.  0.
   -2000013    1    1    2    0    0 -0.50251704792E+03 -0.37497977632E+03  0.12646588034E+04  0.17014685143E+04  0.95000000000E+03 0.  0.
<mgrwt>
<rscale>  0 0.23501729E+04</rscale>
<asrwt>0</asrwt>
<pdfrwt beam="1">  1        2 0.36553211E+00 0.23501729E+04</pdfrwt>
<pdfrwt beam="2">  1       -2 0.89410268E-01 0.23501729E+04</pdfrwt>
<totfact> 0.39749742E+00</totfact>
</mgrwt>
</event>
<event>
 4    1  0.2019612E-008  0.2058938E+04  0.7816531E-02  0.8579550E-01
         -1   -1    0    0    0  501 -0.00000000000E+00  0.00000000000E+00  0.73700440120E+03  0.73700440120E+03  0.00000000000E+00 0. -1.
          1   -1    0    0  501    0  0.00000000000E+00 -0.00000000000E+00 -0.14379918961E+04  0.14379918961E+04  0.00000000000E+00 0.  1.
    2000013    1    1    2    0    0  0.39141905133E+03 -0.55224146072E+02 -0.31629977558E+03  0.10764776487E+04  0.95000000000E+03 0.  0.
   -2000013    1    1    2    0    0 -0.39141905133E+03  0.55224146072E+02 -0.38468771936E+03  0.10985186487E+04  0.95000000000E+03 0.  0.
<mgrwt>
<rscale>  0 0.20589379E+04</rscale>
<asrwt>0</asrwt>
<pdfrwt beam="2">  1        1 0.22122952E+00 0.20589379E+04</pdfrwt>
<pdfrwt beam="1">  1       -1 0.11338529E+00 0.20589379E+04</pdfrwt>
<totfact> 0.47354603E+00</totfact>
</mgrwt>
</event>
<event>
 4    1  0.2019612E-008  0.4048523E+04  0.7816531E-02  0.7994829E-01
         -2   -1    0    0    0  501 -0.00000000000E+00  0.00000000000E+00  0.15527107870E+04  0.15527107870E+04  0.00000000000E+00 0. -1.
          2   -1    0    0  501    0  0.00000000000E+00 -0.00000000000E+00 -0.26390198432E+04  0.26390198432E+04  0.00000000000E+00 0.  1.
    2000013    1    1    2    0    0  0.65297817995E+03  0.91426821606E+03  0.89629957588E+03  0.17228232074E+04  0.95000000000E+03 0.  0.
   -2000013    1    1    2    0    0 -0.65297817995E+03 -0.91426821606E+03 -0.19826086321E+04  0.24689074228E+04  0.95000000000E+03 0.  0.
<mgrwt>
<rscale>  0 0.40485230E+04</rscale>
<asrwt>0</asrwt>
<pdfrwt beam="2">  1        2 0.40600305E+00 0.40485230E+04</pdfrwt>
<pdfrwt beam="1">  1       -2 0.23887858E+00 0.40485230E+04</pdfrwt>
<totfact> 0.17070248E-01</totfact>
</mgrwt>
</event>
<event>
 4    1  0.2019612E-008  0.2127721E+04  0.7816531E-02  0.8549129E-01
          2   -1    0    0  501    0  0.00000000000E+00  0.00000000000E+00  0.18934571294E+04  0.18934571294E+04  0.00000000000E+00 0.  1.
         -2   -1    0    0    0  501 -0.00000000000E+00 -0.00000000000E+00 -0.59774215839E+03  0.59774215839E+03  0.00000000000E+00 0. -1.
    2000013    1    1    2    0    0 -0.46643338716E+03 -0.77040257405E+02  0.73705478640E+03  0.12919926718E+04  0.95000000000E+03 0.  0.
   -2000013    1    1    2    0    0  0.46643338716E+03  0.77040257405E+02  0.55866018463E+03  0.11992066160E+04  0.95000000000E+03 0.  0.
<mgrwt>
<rscale>  0 0.21277210E+04</rscale>
<asrwt>0</asrwt>
<pdfrwt beam="1">  1        2 0.29130109E+00 0.21277210E+04</pdfrwt>
<pdfrwt beam="2">  1       -2 0.91960333E-01 0.21277210E+04</pdfrwt>
<totfact> 0.70780458E+00</totfact>
</mgrwt>
</event>
<event>
 4    1  0.2019612E-008  0.2286686E+04  0.7816531E-02  0.8483189E-01
          2   -1    0    0  501    0  0.00000000000E+00  0.00000000000E+00  0.13945320111E+04  0.13945320111E+04  0.00000000000E+00 0.  1.
         -2   -1    0    0    0  501 -0.00000000000E+00 -0.00000000000E+00 -0.93739886833E+03  0.93739886833E+03  0.00000000000E+00 0. -1.
    2000013    1    1    2    0    0 -0.34718073915E+03 -0.46006978880E+03 -0.46083801887E+02  0.11121251697E+04  0.95000000000E+03 0.  0.
   -2000013    1    1    2    0    0  0.34718073915E+03  0.46006978880E+03  0.50321694467E+03  0.12198057098E+04  0.95000000000E+03 0.  0.
<mgrwt>
<rscale>  0 0.22866856E+04</rscale>
<asrwt>0</asrwt>
<pdfrwt beam="1">  1        2 0.21454339E+00 0.22866856E+04</pdfrwt>
<pdfrwt beam="2">  1       -2 0.14421521E+00 0.22866856E+04</pdfrwt>
<totfact> 0.43976782E+00</totfact>
</mgrwt>
</event>
<event>
 4    1  0.2019612E-008  0.3505503E+04  0.7816531E-02  0.8112487E-01
         -2   -1    0    0    0  501 -0.00000000000E+00  0.00000000000E+00  0.10271896475E+04  0.10271896475E+04  0.00000000000E+00 0. -1.
          2   -1    0    0  501    0  0.00000000000E+00 -0.00000000000E+00 -0.29908184556E+04  0.29908184556E+04  0.00000000000E+00 0.  1.
    2000013    1    1    2    0    0  0.27604431749E+03  0.14086809491E+04 -0.60329878446E+03  0.18240208071E+04  0.95000000000E+03 0.  0.
   -2000013    1    1    2    0    0 -0.27604431749E+03 -0.14086809491E+04 -0.13603300237E+04  0.21939872960E+04  0.95000000000E+03 0.  0.
<mgrwt>
<rscale>  0 0.35055030E+04</rscale>
<asrwt>0</asrwt>
<pdfrwt beam="2">  1        2 0.46012592E+00 0.35055030E+04</pdfrwt>
<pdfrwt beam="1">  1       -2 0.15802918E+00 0.35055030E+04</pdfrwt>
<totfact> 0.37728341E-01</totfact>
</mgrwt>
</event>
<event>
 4    1  0.2019612E-008  0.2028689E+04  0.7816531E-02  0.8593324E-01
          2   -1    0    0  501    0  0.00000000000E+00  0.00000000000E+00  0.16137759958E+04  0.16137759958E+04  0.00000000000E+00 0.  1.
         -2   -1    0    0    0  501 -0.00000000000E+00 -0.00000000000E+00 -0.63757006395E+03  0.63757006395E+03  0.00000000000E+00 0. -1.
    2000013    1    1    2    0    0  0.23948724197E+03 -0.21601313763E+03  0.65411951533E+03  0.11976594487E+04  0.95000000000E+03 0.  0.
   -2000013    1    1    2    0    0 -0.23948724197E+03  0.21601313763E+03  0.32208641656E+03  0.10536866111E+04  0.95000000000E+03 0.  0.
<mgrwt>
<rscale>  0 0.20286895E+04</rscale>
<asrwt>0</asrwt>
<pdfrwt beam="1">  1        2 0.24827323E+00 0.20286895E+04</pdfrwt>
<pdfrwt beam="2">  1       -2 0.98087702E-01 0.20286895E+04</pdfrwt>
<totfact> 0.87801936E+00</totfact>
</mgrwt>
</event>
<event>
 4    1  0.2019612E-008  0.3480707E+04  0.7816531E-02  0.8118377E-01
          2   -1    0    0  501    0  0.00000000000E+00  0.00000000000E+00  0.24015754456E+04  0.24015754456E+04  0.00000000000E+00 0.  1.
         -2   -1    0    0    0  501 -0.00000000000E+00 -0.00000000000E+00 -0.12611847843E+04  0.12611847843E+04  0.00000000000E+00 0. -1.
    2000013    1    1    2    0    0 -0.11836510933E+04  0.32592241306E+03  0.13981616626E+04  0.20891652315E+04  0.95000000000E+03 0.  0.
   -2000013    1    1    2    0    0  0.11836510933E+04 -0.32592241306E+03 -0.25777100127E+03  0.15735949984E+04  0.95000000000E+03 0.  0.
<mgrwt>
<rscale>  0 0.34807071E+04</rscale>
<asrwt>0</asrwt>
<pdfrwt beam="1">  1        2 0.36947314E+00 0.34807071E+04</pdfrwt>
<pdfrwt beam="2">  1       -2 0.19402843E+00 0.34807071E+04</pdfrwt>
<totfact> 0.47560112E-01</totfact>
</mgrwt>
</event>
<event>
 4    1  0.2019612E-008  0.2265409E+04  0.7816531E-02  0.8491686E-01
         -3   -1    0    0    0  501 -0.00000000000E+00  0.00000000000E+00  0.12637628787E+04  0.12637628787E+04  0.00000000000E+00 0. -1.
          3   -1    0    0  501    0  0.00000000000E+00 -0.00000000000E+00 -0.10152378528E+04  0.10152378528E+04  0.00000000000E+00 0.  1.
    2000013    1    1    2    0    0  0.44412339564E+03 -0.41162859532E+03  0.24259568487E+03  0.11524045979E+04  0.95000000000E+03 0.  0.
   -2000013    1    1    2    0    0 -0.44412339564E+03  0.41162859532E+03  0.59293410893E+01  0.11265961335E+04  0.95000000000E+03 0.  0.
<mgrwt>
<rscale>  0 0.22654094E+04</rscale>
<asrwt>0</asrwt>
<pdfrwt beam="2">  1        3 0.15619044E+00 0.22654094E+04</pdfrwt>
<pdfrwt beam="1">  1       -3 0.19442506E+00 0.22654094E+04</pdfrwt>
<totfact> 0.10975296E-01</totfact>
</mgrwt>
</event>
<event>
 4    1  0.2019612E-008  0.2662066E+04  0.7816531E-02  0.8347419E-01
         -2   -1    0    0    0  501 -0.00000000000E+00  0.00000000000E+00  0.12007154492E+04  0.12007154492E+04  0.00000000000E+00 0. -1.
          2   -1    0    0  501    0  0.00000000000E+00 -0.00000000000E+00 -0.14754941021E+04  0.14754941021E+04  0.00000000000E+00 0.  1.
    2000013    1    1    2    0    0  0.68596216749E+03  0.28286845084E+03  0.43004726712E+03  0.12798434700E+04  0.95000000000E+03 0.  0.
   -2000013    1    1    2    0    0 -0.68596216749E+03 -0.28286845084E+03 -0.70482592000E+03  0.13963660814E+04  0.95000000000E+03 0.  0.
<mgrwt>
<rscale>  0 0.26620658E+04</rscale>
<asrwt>0</asrwt>
<pdfrwt beam="2">  1        2 0.22699909E+00 0.26620658E+04</pdfrwt>
<pdfrwt beam="1">  1       -2 0.18472546E+00 0.26620658E+04</pdfrwt>
<totfact> 0.19410789E+00</totfact>
</mgrwt>
</event>
<event>
 4    1  0.2019612E-008  0.2657757E+04  0.7816531E-02  0.8348843E-01
         -2   -1    0    0    0  501 -0.00000000000E+00  0.00000000000E+00  0.90648814788E+03  0.90648814788E+03  0.00000000000E+00 0. -1.
          2   -1    0    0  501    0  0.00000000000E+00 -0.00000000000E+00 -0.19480878396E+04  0.19480878396E+04  0.00000000000E+00 0.  1.
    2000013    1    1    2    0    0  0.53366130416E+03  0.65296455176E+03 -0.93990331162E+03  0.15802136971E+04  0.95000000000E+03 0.  0.
   -2000013    1    1    2    0    0 -0.53366130416E+03 -0.65296455176E+03 -0.10169638015E+03  0.12743622904E+04  0.95000000000E+03 0.  0.
<mgrwt>
<rscale>  0 0.26577574E+04</rscale>
<asrwt>0</asrwt>
<pdfrwt beam="2">  1        2 0.29970582E+00 0.26577574E+04</pdfrwt>
<pdfrwt beam="1">  1       -2 0.13945972E+00 0.26577574E+04</pdfrwt>
<totfact> 0.22807130E+00</totfact>
</mgrwt>
</event>
<event>
 4    1  0.2019612E-008  0.2807532E+04  0.7816531E-02  0.8300934E-01
         -2   -1    0    0    0  501 -0.00000000000E+00  0.00000000000E+00  0.92540005874E+03  0.92540005874E+03  0.00000000000E+00 0. -1.
          2   -1    0    0  501    0  0.00000000000E+00 -0.00000000000E+00 -0.21294134810E+04  0.21294134810E+04  0.00000000000E+00 0.  1.
    2000013    1    1    2    0    0 -0.53897101426E+03 -0.68803024345E+03 -0.19004933693E+01  0.12908830241E+04  0.95000000000E+03 0.  0.
   -2000013    1    1    2    0    0  0.53897101426E+03  0.68803024345E+03 -0.12021129289E+04  0.17639305156E+04  0.95000000000E+03 0.  0.
<mgrwt>
<rscale>  0 0.28075323E+04</rscale>
<asrwt>0</asrwt>
<pdfrwt beam="2">  1        2 0.32760207E+00 0.28075323E+04</pdfrwt>
<pdfrwt beam="1">  1       -2 0.14236924E+00 0.28075323E+04</pdfrwt>
<totfact> 0.16913093E+00</totfact>
</mgrwt>
</event>
<event>
 4    1  0.2019612E-008  0.2466274E+04  0.7816531E-02  0.8415100E-01
          1   -1    0    0  501    0  0.00000000000E+00  0.00000000000E+00  0.11784931040E+04  0.11784931040E+04  0.00000000000E+00 0.  1.
         -1   -1    0    0    0  501 -0.00000000000E+00 -0.00000000000E+00 -0.12903144908E+04  0.12903144908E+04  0.00000000000E+00 0. -1.
    2000013    1    1    2    0    0  0.80816952964E+02  0.76075242887E+03 -0.23734559804E+03  0.12426216523E+04  0.95000000000E+03 0.  0.
   -2000013    1    1    2    0    0 -0.80816952964E+02 -0.76075242887E+03  0.12552421122E+03  0.12261859425E+04  0.95000000000E+03 0.  0.
<mgrwt>
<rscale>  0 0.24662739E+04</rscale>
<asrwt>0</asrwt>
<pdfrwt beam="1">  1        1 0.18130663E+00 0.24662739E+04</pdfrwt>
<pdfrwt beam="2">  1       -1 0.19850992E+00 0.24662739E+04</pdfrwt>
<totfact> 0.15217199E+00</totfact>
</mgrwt>
</event>
<event>
 4    1  0.2019612E-008  0.2790913E+04  0.7816531E-02  0.8306095E-01
          2   -1    0    0  501    0  0.00000000000E+00  0.00000000000E+00  0.35341810205E+04  0.35341810205E+04  0.00000000000E+00 0.  1.
         -2   -1    0    0    0  501 -0.00000000000E+00 -0.00000000000E+00 -0.55099002511E+03  0.55099002511E+03  0.00000000000E+00 0. -1.
    2000013    1    1    2    0    0  0.89476161017E+03 -0.48496718355E+03  0.13526790687E+04  0.19411419760E+04  0.95000000000E+03 0.  0.
   -2000013    1    1    2    0    0 -0.89476161017E+03  0.48496718355E+03  0.16305119267E+04  0.21440290696E+04  0.95000000000E+03 0.  0.
<mgrwt>
<rscale>  0 0.27909127E+04</rscale>
<asrwt>0</asrwt>
<pdfrwt beam="1">  1        2 0.54372014E+00 0.27909127E+04</pdfrwt>
<pdfrwt beam="2">  1       -2 0.84767698E-01 0.27909127E+04</pdfrwt>
<totfact> 0.81202040E-01</totfact>
</mgrwt>
</event>
<event>
 4    1  0.2019612E-008  0.3237702E+04  0.7816531E-02  0.8178931E-01
         -2   -1    0    0    0  501 -0.00000000000E+00  0.00000000000E+00  0.15435056167E+04  0.15435056167E+04  0.00000000000E+00 0. -1.
          2   -1    0    0  501    0  0.00000000000E+00 -0.00000000000E+00 -0.16978743463E+04  0.16978743463E+04  0.00000000000E+00 0.  1.
    2000013    1    1    2    0    0  0.50771749361E+03  0.11978232973E+04 -0.23743144743E+03  0.16283216504E+04  0.95000000000E+03 0.  0.
   -2000013    1    1    2    0    0 -0.50771749361E+03 -0.11978232973E+04  0.83062717829E+02  0.16130583126E+04  0.95000000000E+03 0.  0.
<mgrwt>
<rscale>  0 0.32377020E+04</rscale>
<asrwt>0</asrwt>
<pdfrwt beam="2">  1        2 0.26121144E+00 0.32377020E+04</pdfrwt>
<pdfrwt beam="1">  1       -2 0.23746240E+00 0.32377020E+04</pdfrwt>
<totfact> 0.63409452E-01</totfact>
</mgrwt>
</event>
<event>
 4    1  0.2019612E-008  0.2186213E+04  0.7816531E-02  0.8524188E-01
         -2   -1    0    0    0  501 -0.00000000000E+00  0.00000000000E+00  0.44661659705E+03  0.44661659705E+03  0.00000000000E+00 0. -1.
          2   -1    0    0  501    0  0.00000000000E+00 -0.00000000000E+00 -0.26754090264E+04  0.26754090264E+04  0.00000000000E+00 0.  1.
    2000013    1    1    2    0    0 -0.47525957860E+03 -0.25734353683E+03 -0.10903001066E+04  0.15438107674E+04  0.95000000000E+03 0.  0.
   -2000013    1    1    2    0    0  0.47525957860E+03  0.25734353683E+03 -0.11384923227E+04  0.15782148561E+04  0.95000000000E+03 0.  0.
<mgrwt>
<rscale>  0 0.21862132E+04</rscale>
<asrwt>0</asrwt>
<pdfrwt beam="2">  1        2 0.41160139E+00 0.21862132E+04</pdfrwt>
<pdfrwt beam="1">  1       -2 0.68710245E-01 0.21862132E+04</pdfrwt>
<totfact> 0.48675166E+00</totfact>
</mgrwt>
</event>
<event>
 4    1  0.2019612E-008  0.3072182E+04  0.7816531E-02  0.8223414E-01
          2   -1    0    0  501    0  0.00000000000E+00  0.00000000000E+00  0.16770075617E+04  0.16770075617E+04  0.00000000000E+00 0.  1.
         -2   -1    0    0    0  501 -0.00000000000E+00 -0.00000000000E+00 -0.14070159025E+04  0.14070159025E+04  0.00000000000E+00 0. -1.
    2000013    1    1    2    0    0  0.90378844302E+03  0.51760559639E+03  0.74753384827E+03  0.15956365368E+04  0.95000000000E+03 0.  0.
   -2000013    1    1    2    0    0 -0.90378844302E+03 -0.51760559639E+03 -0.47754218907E+03  0.14883869273E+04  0.95000000000E+03 0.  0.
<mgrwt>
<rscale>  0 0.30721825E+04</rscale>
<asrwt>0</asrwt>
<pdfrwt beam="1">  1        2 0.25800116E+00 0.30721825E+04</pdfrwt>
<pdfrwt beam="2">  1       -2 0.21646398E+00 0.30721825E+04</pdfrwt>
<totfact> 0.89470709E-01</totfact>
</mgrwt>
</event>
<event>
 4    1  0.2019612E-008  0.3805919E+04  0.7816531E-02  0.8044886E-01
          2   -1    0    0  501    0  0.00000000000E+00  0.00000000000E+00  0.21535014924E+04  0.21535014924E+04  0.00000000000E+00 0.  1.
         -2   -1    0    0    0  501 -0.00000000000E+00 -0.00000000000E+00 -0.16815659641E+04  0.16815659641E+04  0.00000000000E+00 0. -1.
    2000013    1    1    2    0    0 -0.13118470055E+04 -0.62540505164E+03 -0.54889474266E+03  0.18209501594E+04  0.95000000000E+03 0.  0.
   -2000013    1    1    2    0    0  0.13118470055E+04  0.62540505164E+03  0.10208302709E+04  0.20141172971E+04  0.95000000000E+03 0.  0.
<mgrwt>
<rscale>  0 0.38059190E+04</rscale>
<asrwt>0</asrwt>
<pdfrwt beam="1">  1        2 0.33130792E+00 0.38059190E+04</pdfrwt>
<pdfrwt beam="2">  1       -2 0.25870246E+00 0.38059190E+04</pdfrwt>
<totfact> 0.24975925E-01</totfact>
</mgrwt>
</event>
<event>
 4    1  0.2019612E-008  0.2084012E+04  0.7816531E-02  0.8568319E-01
         -2   -1    0    0    0  501 -0.00000000000E+00  0.00000000000E+00  0.47648690202E+03  0.47648690202E+03  0.00000000000E+00 0. -1.
          2   -1    0    0  501    0  0.00000000000E+00 -0.00000000000E+00 -0.22787131467E+04  0.22787131467E+04  0.00000000000E+00 0.  1.
    2000013    1    1    2    0    0  0.37432692394E+03  0.19910012506E+03 -0.82272612349E+03  0.13263256689E+04  0.95000000000E+03 0.  0.
   -2000013    1    1    2    0    0 -0.37432692394E+03 -0.19910012506E+03 -0.97950012115E+03  0.14288743798E+04  0.95000000000E+03 0.  0.
<mgrwt>
<rscale>  0 0.20840124E+04</rscale>
<asrwt>0</asrwt>
<pdfrwt beam="2">  1        2 0.35057125E+00 0.20840124E+04</pdfrwt>
<pdfrwt beam="1">  1       -2 0.73305677E-01 0.20840124E+04</pdfrwt>
<totfact> 0.72249211E+00</totfact>
</mgrwt>
</event>
<event>
 4    1  0.2019612E-008  0.2310722E+04  0.7816531E-02  0.8473706E-01
          2   -1    0    0  501    0  0.00000000000E+00  0.00000000000E+00  0.11270075143E+04  0.11270075143E+04  0.00000000000E+00 0.  1.
         -2   -1    0    0    0  501 -0.00000000000E+00 -0.00000000000E+00 -0.11844275614E+04  0.11844275614E+04  0.00000000000E+00 0. -1.
    2000013    1    1    2    0    0 -0.60110898510E+03  0.26628922113E+03 -0.39520792277E+02  0.11559860961E+04  0.95000000000E+03 0.  0.
   -2000013    1    1    2    0    0  0.60110898510E+03 -0.26628922113E+03 -0.17899254840E+02  0.11554489797E+04  0.95000000000E+03 0.  0.
<mgrwt>
<rscale>  0 0.23107218E+04</rscale>
<asrwt>0</asrwt>
<pdfrwt beam="1">  1        2 0.17338577E+00 0.23107218E+04</pdfrwt>
<pdfrwt beam="2">  1       -2 0.18221962E+00 0.23107218E+04</pdfrwt>
<totfact> 0.33246754E+00</totfact>
</mgrwt>
</event>
<event>
 4    1  0.2019612E-008  0.2456778E+04  0.7816531E-02  0.8418547E-01
         -2   -1    0    0    0  501 -0.00000000000E+00  0.00000000000E+00  0.36081959616E+03  0.36081959616E+03  0.00000000000E+00 0. -1.
          2   -1    0    0  501    0  0.00000000000E+00 -0.00000000000E+00 -0.41819777634E+04  0.41819777634E+04  0.00000000000E+00 0.  1.
    2000013    1    1    2    0    0  0.64924927213E+03  0.32079988660E+03 -0.13810734534E+04  0.18260068643E+04  0.95000000000E+03 0.  0.
   -2000013    1    1    2    0    0 -0.64924927213E+03 -0.32079988660E+03 -0.24400847138E+04  0.27167904953E+04  0.95000000000E+03 0.  0.
<mgrwt>
<rscale>  0 0.24567780E+04</rscale>
<asrwt>0</asrwt>
<pdfrwt beam="2">  1        2 0.64338116E+00 0.24567780E+04</pdfrwt>
<pdfrwt beam="1">  1       -2 0.55510710E-01 0.24567780E+04</pdfrwt>
<totfact> 0.66116909E-01</totfact>
</mgrwt>
</event>
<event>
 4    1  0.2019612E-008  0.3156828E+04  0.7816531E-02  0.8200313E-01
          2   -1    0    0  501    0  0.00000000000E+00  0.00000000000E+00  0.29364811407E+04  0.29364811407E+04  0.00000000000E+00 0. -1.
         -2   -1    0    0    0  501 -0.00000000000E+00 -0.00000000000E+00 -0.84842745496E+03  0.84842745496E+03  0.00000000000E+00 0.  1.
    2000013    1    1    2    0    0 -0.63605717413E+03  0.10674508758E+04  0.12980000414E+04  0.20325659174E+04  0.95000000000E+03 0.  0.
   -2000013    1    1    2    0    0  0.63605717413E+03 -0.10674508758E+04  0.79005364434E+03  0.17523426783E+04  0.95000000000E+03 0.  0.
<mgrwt>
<rscale>  0 0.31568283E+04</rscale>
<asrwt>0</asrwt>
<pdfrwt beam="1">  1        2 0.45176632E+00 0.31568283E+04</pdfrwt>
<pdfrwt beam="2">  1       -2 0.13052730E+00 0.31568283E+04</pdfrwt>
<totfact> 0.69246379E-01</totfact>
</mgrwt>
</event>
<event>
 4    1  0.2019612E-008  0.2798650E+04  0.7816531E-02  0.8303688E-01
          2   -1    0    0  501    0  0.00000000000E+00  0.00000000000E+00  0.15463238408E+04  0.15463238408E+04  0.00000000000E+00 0.  1.
         -2   -1    0    0    0  501 -0.00000000000E+00 -0.00000000000E+00 -0.12663000741E+04  0.12663000741E+04  0.00000000000E+00 0. -1.
    2000013    1    1    2    0    0 -0.40993259804E+03 -0.79881332668E+03  0.64196804223E+03  0.14562865216E+04  0.95000000000E+03 0.  0.
   -2000013    1    1    2    0    0  0.40993259804E+03  0.79881332668E+03 -0.36194427555E+03  0.13563373933E+04  0.95000000000E+03 0.  0.
<mgrwt>
<rscale>  0 0.27986497E+04</rscale>
<asrwt>0</asrwt>
<pdfrwt beam="1">  1        2 0.23789597E+00 0.27986497E+04</pdfrwt>
<pdfrwt beam="2">  1       -2 0.19481540E+00 0.27986497E+04</pdfrwt>
<totfact> 0.14972888E+00</totfact>
</mgrwt>
</event>
<event>
 4    1  0.2019612E-008  0.2160243E+04  0.7816531E-02  0.8535161E-01
          2   -1    0    0  501    0  0.00000000000E+00  0.00000000000E+00  0.22083749230E+04  0.22083749230E+04  0.00000000000E+00 0.  1.
         -2   -1    0    0    0  501 -0.00000000000E+00 -0.00000000000E+00 -0.52828983603E+03  0.52828983603E+03  0.00000000000E+00 0. -1.
    2000013    1    1    2    0    0  0.37105827685E+03  0.34172717284E+03  0.96481310045E+03  0.14449311486E+04  0.95000000000E+03 0.  0.
   -2000013    1    1    2    0    0 -0.37105827685E+03 -0.34172717284E+03  0.71527198648E+03  0.12917336104E+04  0.95000000000E+03 0.  0.
<mgrwt>
<rscale>  0 0.21602426E+04</rscale>
<asrwt>0</asrwt>
<pdfrwt beam="1">  1        2 0.33974998E+00 0.21602426E+04</pdfrwt>
<pdfrwt beam="2">  1       -2 0.81275361E-01 0.21602426E+04</pdfrwt>
<totfact> 0.62475157E+00</totfact>
</mgrwt>
</event>
<event>
 4    1  0.2019612E-008  0.3278260E+04  0.7816531E-02  0.8168449E-01
         -1   -1    0    0    0  501 -0.00000000000E+00  0.00000000000E+00  0.15123301150E+04  0.15123301150E+04  0.00000000000E+00 0. -1.
          1   -1    0    0  501    0  0.00000000000E+00 -0.00000000000E+00 -0.17765618389E+04  0.17765618389E+04  0.00000000000E+00 0.  1.
    2000013    1    1    2    0    0  0.77509185574E+03 -0.10396060632E+04  0.18939154618E+03  0.16186158621E+04  0.95000000000E+03 0.  0.
   -2000013    1    1    2    0    0 -0.77509185574E+03  0.10396060632E+04 -0.45362327010E+03  0.16702760917E+04  0.95000000000E+03 0.  0.
<mgrwt>
<rscale>  0 0.32782605E+04</rscale>
<asrwt>0</asrwt>
<pdfrwt beam="2">  1        1 0.27331721E+00 0.32782605E+04</pdfrwt>
<pdfrwt beam="1">  1       -1 0.23266617E+00 0.32782605E+04</pdfrwt>
<totfact> 0.31836782E-01</totfact>
</mgrwt>
</event>
<event>
 4    1  0.2019612E-008  0.2558435E+04  0.7816531E-02  0.8382458E-01
         -2   -1    0    0    0  501 -0.00000000000E+00  0.00000000000E+00  0.77780852418E+03  0.77780852418E+03  0.00000000000E+00 0. -1.
          2   -1    0    0  501    0  0.00000000000E+00 -0.00000000000E+00 -0.21038569365E+04  0.21038569365E+04  0.00000000000E+00 0.  1.
    2000013    1    1    2    0    0 -0.74313817963E+03 -0.37355537756E+03 -0.43191908596E+03  0.13344856953E+04  0.95000000000E+03 0.  0.
   -2000013    1    1    2    0    0  0.74313817963E+03  0.37355537756E+03 -0.89412932630E+03  0.15471797653E+04  0.95000000000E+03 0.  0.
<mgrwt>
<rscale>  0 0.25584353E+04</rscale>
<asrwt>0</asrwt>
<pdfrwt beam="2">  1        2 0.32367030E+00 0.25584353E+04</pdfrwt>
<pdfrwt beam="1">  1       -2 0.11966285E+00 0.25584353E+04</pdfrwt>
<totfact> 0.27748984E+00</totfact>
</mgrwt>
</event>
<event>
 4    1  0.2019612E-008  0.2048690E+04  0.7816531E-02  0.8584189E-01
          1   -1    0    0  501    0  0.00000000000E+00  0.00000000000E+00  0.14269821592E+04  0.14269821592E+04  0.00000000000E+00 0. -1.
         -1   -1    0    0    0  501 -0.00000000000E+00 -0.00000000000E+00 -0.73531612518E+03  0.73531612518E+03  0.00000000000E+00 0.  1.
    2000013    1    1    2    0    0 -0.15257666273E+03 -0.35037040746E+03  0.31704539524E+03  0.10719406901E+04  0.95000000000E+03 0.  0.
   -2000013    1    1    2    0    0  0.15257666273E+03  0.35037040746E+03  0.37462063880E+03  0.10903575943E+04  0.95000000000E+03 0.  0.
<mgrwt>
<rscale>  0 0.20486903E+04</rscale>
<asrwt>0</asrwt>
<pdfrwt beam="1">  1        1 0.21953572E+00 0.20486903E+04</pdfrwt>
<pdfrwt beam="2">  1       -1 0.11312556E+00 0.20486903E+04</pdfrwt>
<totfact> 0.48510365E+00</totfact>
</mgrwt>
</event>
<event>
 4    1  0.2019612E-008  0.3112775E+04  0.7816531E-02  0.8212241E-01
         -2   -1    0    0    0  501 -0.00000000000E+00  0.00000000000E+00  0.84092513816E+03  0.84092513816E+03  0.00000000000E+00 0. -1.
          2   -1    0    0  501    0  0.00000000000E+00 -0.00000000000E+00 -0.28805672487E+04  0.28805672487E+04  0.00000000000E+00 0.  1.
    2000013    1    1    2    0    0  0.62640462803E+02 -0.10838307293E+04 -0.32144051013E+03  0.14779840591E+04  0.95000000000E+03 0.  0.
   -2000013    1    1    2    0    0 -0.62640462803E+02  0.10838307293E+04 -0.17182016004E+04  0.22435083278E+04  0.95000000000E+03 0.  0.
<mgrwt>
<rscale>  0 0.31127746E+04</rscale>
<asrwt>0</asrwt>
<pdfrwt beam="2">  1        2 0.44316418E+00 0.31127746E+04</pdfrwt>
<pdfrwt beam="1">  1       -2 0.12937310E+00 0.31127746E+04</pdfrwt>
<totfact> 0.76961311E-01</totfact>
</mgrwt>
</event>
<event>
 4    1  0.2019612E-008  0.2609223E+04  0.7816531E-02  0.8365075E-01
          2   -1    0    0  501    0  0.00000000000E+00  0.00000000000E+00  0.22072932791E+04  0.22072932791E+04  0.00000000000E+00 0.  1.
         -2   -1    0    0    0  501 -0.00000000000E+00 -0.00000000000E+00 -0.77108533463E+03  0.77108533463E+03  0.00000000000E+00 0. -1.
    2000013    1    1    2    0    0 -0.89029613315E+03 -0.71033950578E+01  0.62374129830E+03  0.14436865554E+04  0.95000000000E+03 0.  0.
   -2000013    1    1    2    0    0  0.89029613315E+03  0.71033950578E+01  0.81246664617E+03  0.15346920584E+04  0.95000000000E+03 0.  0.
<mgrwt>
<rscale>  0 0.26092232E+04</rscale>
<asrwt>0</asrwt>
<pdfrwt beam="1">  1        2 0.33958358E+00 0.26092232E+04</pdfrwt>
<pdfrwt beam="2">  1       -2 0.11862851E+00 0.26092232E+04</pdfrwt>
<totfact> 0.24701211E+00</totfact>
</mgrwt>
</event>
<event>
 4    1  0.2019612E-008  0.2364168E+04  0.7816531E-02  0.8453042E-01
         -2   -1    0    0    0  501 -0.00000000000E+00  0.00000000000E+00  0.23000270307E+04  0.23000270307E+04  0.00000000000E+00 0. -1.
          2   -1    0    0  501    0  0.00000000000E+00 -0.00000000000E+00 -0.60752428444E+03  0.60752428444E+03  0.00000000000E+00 0.  1.
    2000013    1    1    2    0    0  0.70318151590E+03  0.12542261779E+02  0.82882736317E+03  0.14436330388E+04  0.95000000000E+03 0.  0.
   -2000013    1    1    2    0    0 -0.70318151590E+03 -0.12542261779E+02  0.86367538311E+03  0.14639182764E+04  0.95000000000E+03 0.  0.
<mgrwt>
<rscale>  0 0.23641677E+04</rscale>
<asrwt>0</asrwt>
<pdfrwt beam="2">  1        2 0.93465276E-01 0.23641677E+04</pdfrwt>
<pdfrwt beam="1">  1       -2 0.35385031E+00 0.23641677E+04</pdfrwt>
<totfact> 0.64870497E-01</totfact>
</mgrwt>
</event>
<event>
 4    1  0.2019612E-008  0.2091976E+04  0.7816531E-02  0.8564786E-01
          2   -1    0    0  501    0  0.00000000000E+00  0.00000000000E+00  0.33931911988E+04  0.33931911988E+04  0.00000000000E+00 0.  1.
         -2   -1    0    0    0  501 -0.00000000000E+00 -0.00000000000E+00 -0.32243721853E+03  0.32243721853E+03  0.00000000000E+00 0. -1.
    2000013    1    1    2    0    0 -0.73925128258E+01  0.35525270323E+03  0.19893588572E+04  0.22330042085E+04  0.95000000000E+03 0.  0.
   -2000013    1    1    2    0    0  0.73925128258E+01 -0.35525270323E+03  0.10813951230E+04  0.14826242088E+04  0.95000000000E+03 0.  0.
<mgrwt>
<rscale>  0 0.20919762E+04</rscale>
<asrwt>0</asrwt>
<pdfrwt beam="1">  1        2 0.52202939E+00 0.20919762E+04</pdfrwt>
<pdfrwt beam="2">  1       -2 0.49605728E-01 0.20919762E+04</pdfrwt>
<totfact> 0.34310413E+00</totfact>
</mgrwt>
</event>
<event>
 4    1  0.2019612E-008  0.2944506E+04  0.7816531E-02  0.8259758E-01
          2   -1    0    0  501    0  0.00000000000E+00  0.00000000000E+00  0.11585546919E+04  0.11585546919E+04  0.00000000000E+00 0.  1.
         -2   -1    0    0    0  501 -0.00000000000E+00 -0.00000000000E+00 -0.18708900535E+04  0.18708900535E+04  0.00000000000E+00 0. -1.
    2000013    1    1    2    0    0  0.51067541474E+03 -0.28427394852E+03  0.63250381545E+03  0.12822488579E+04  0.95000000000E+03 0.  0.
   -2000013    1    1    2    0    0 -0.51067541474E+03  0.28427394852E+03 -0.13448391771E+04  0.17471958875E+04  0.95000000000E+03 0.  0.
<mgrwt>
<rscale>  0 0.29445057E+04</rscale>
<asrwt>0</asrwt>
<pdfrwt beam="1">  1        2 0.17823918E+00 0.29445057E+04</pdfrwt>
<pdfrwt beam="2">  1       -2 0.28782924E+00 0.29445057E+04</pdfrwt>
<totfact> 0.65075746E-01</totfact>
</mgrwt>
</event>
<event>
 4    1  0.2019612E-008  0.2217802E+04  0.7816531E-02  0.8511055E-01
          2   -1    0    0  501    0  0.00000000000E+00  0.00000000000E+00  0.35103615632E+04  0.35103615632E+04  0.00000000000E+00 0.  1.
         -2   -1    0    0    0  501 -0.00000000000E+00 -0.00000000000E+00 -0.35029482155E+03  0.35029482155E+03  0.00000000000E+00 0. -1.
    2000013    1    1    2    0    0  0.91716647910E+02 -0.52448651114E+03  0.19437786046E+04  0.22280649244E+04  0.95000000000E+03 0.  0.
   -2000013    1    1    2    0    0 -0.91716647910E+02  0.52448651114E+03  0.12162881370E+04  0.16325914603E+04  0.95000000000E+03 0.  0.
<mgrwt>
<rscale>  0 0.22178020E+04</rscale>
<asrwt>0</asrwt>
<pdfrwt beam="1">  1        2 0.54005560E+00 0.22178020E+04</pdfrwt>
<pdfrwt beam="2">  1       -2 0.53891513E-01 0.22178020E+04</pdfrwt>
<totfact> 0.23746841E+00</totfact>
</mgrwt>
</event>
<event>
 4    1  0.2019612E-008  0.2320900E+04  0.7816531E-02  0.8469726E-01
         -2   -1    0    0    0  501 -0.00000000000E+00  0.00000000000E+00  0.12000074350E+04  0.12000074350E+04  0.00000000000E+00 0. -1.
          2   -1    0    0  501    0  0.00000000000E+00 -0.00000000000E+00 -0.11221965210E+04  0.11221965210E+04  0.00000000000E+00 0.  1.
    2000013    1    1    2    0    0  0.62474868914E+03  0.17757581127E+02 -0.19256390778E+03  0.11533460516E+04  0.95000000000E+03 0.  0.
   -2000013    1    1    2    0    0 -0.62474868914E+03 -0.17757581127E+02  0.27037482182E+03  0.11688579043E+04  0.95000000000E+03 0.  0.
<mgrwt>
<rscale>  0 0.23209000E+04</rscale>
<asrwt>0</asrwt>
<pdfrwt beam="2">  1        2 0.17264562E+00 0.23209000E+04</pdfrwt>
<pdfrwt beam="1">  1       -2 0.18461653E+00 0.23209000E+04</pdfrwt>
<totfact> 0.32205365E+00</totfact>
</mgrwt>
</event>
<event>
 4    1  0.2019612E-008  0.2671997E+04  0.7816531E-02  0.8344149E-01
          2   -1    0    0  501    0  0.00000000000E+00  0.00000000000E+00  0.37821100401E+04  0.37821100401E+04  0.00000000000E+00 0.  1.
         -2   -1    0    0    0  501 -0.00000000000E+00 -0.00000000000E+00 -0.47193015046E+03  0.47193015046E+03  0.00000000000E+00 0. -1.
    2000013    1    1    2    0    0 -0.58974940559E+03  0.41573982318E+03  0.69752420589E+03  0.13819131593E+04  0.95000000000E+03 0.  0.
   -2000013    1    1    2    0    0  0.58974940559E+03 -0.41573982318E+03  0.26126556837E+04  0.28721270312E+04  0.95000000000E+03 0.  0.
<mgrwt>
<rscale>  0 0.26719968E+04</rscale>
<asrwt>0</asrwt>
<pdfrwt beam="1">  1        2 0.58186306E+00 0.26719968E+04</pdfrwt>
<pdfrwt beam="2">  1       -2 0.72604641E-01 0.26719968E+04</pdfrwt>
<totfact> 0.76520999E-01</totfact>
</mgrwt>
</event>
<event>
 4    1  0.2019612E-008  0.2045707E+04  0.7816531E-02  0.8585545E-01
          2   -1    0    0  501    0  0.00000000000E+00  0.00000000000E+00  0.24747151529E+04  0.24747151529E+04  0.00000000000E+00 0.  1.
         -2   -1    0    0    0  501 -0.00000000000E+00 -0.00000000000E+00 -0.42276736330E+03  0.42276736330E+03  0.00000000000E+00 0. -1.
    2000013    1    1    2    0    0  0.31983252242E+02 -0.37122657395E+03  0.92686118466E+03  0.13785513241E+04  0.95000000000E+03 0.  0.
   -2000013    1    1    2    0    0 -0.31983252242E+02  0.37122657395E+03  0.11250866050E+04  0.15189311921E+04  0.95000000000E+03 0.  0.
<mgrwt>
<rscale>  0 0.20457065E+04</rscale>
<asrwt>0</asrwt>
<pdfrwt beam="1">  1        2 0.38072540E+00 0.20457065E+04</pdfrwt>
<pdfrwt beam="2">  1       -2 0.65041134E-01 0.20457065E+04</pdfrwt>
<totfact> 0.72687294E+00</totfact>
</mgrwt>
</event>
<event>
 4    1  0.2019612E-008  0.2590931E+04  0.7816531E-02  0.8371288E-01
          2   -1    0    0  501    0  0.00000000000E+00  0.00000000000E+00  0.99514196661E+03  0.99514196661E+03  0.00000000000E+00 0.  1.
         -2   -1    0    0    0  501 -0.00000000000E+00 -0.00000000000E+00 -0.16864239928E+04  0.16864239928E+04  0.00000000000E+00 0. -1.
    2000013    1    1    2    0    0 -0.82022547602E+03 -0.29597714762E+03 -0.21737433600E+03  0.13077170586E+04  0.95000000000E+03 0.  0.
   -2000013    1    1    2    0    0  0.82022547602E+03  0.29597714762E+03 -0.47390769020E+03  0.13738489008E+04  0.95000000000E+03 0.  0.
<mgrwt>
<rscale>  0 0.25909313E+04</rscale>
<asrwt>0</asrwt>
<pdfrwt beam="1">  1        2 0.15309876E+00 0.25909313E+04</pdfrwt>
<pdfrwt beam="2">  1       -2 0.25944984E+00 0.25909313E+04</pdfrwt>
<totfact> 0.12626959E+00</totfact>
</mgrwt>
</event>
<event>
 4    1  0.2019612E-008  0.2464612E+04  0.7816531E-02  0.8415702E-01
          2   -1    0    0  501    0  0.00000000000E+00  0.00000000000E+00  0.46580797800E+04  0.46580797800E+04  0.00000000000E+00 0.  1.
         -2   -1    0    0    0  501 -0.00000000000E+00 -0.00000000000E+00 -0.32600946571E+03  0.32600946571E+03  0.00000000000E+00 0. -1.
    2000013    1    1    2    0    0 -0.74536267834E+03  0.59542963146E+01  0.16687187188E+04  0.20597871585E+04  0.95000000000E+03 0.  0.
   -2000013    1    1    2    0    0  0.74536267834E+03 -0.59542963146E+01  0.26633515955E+04  0.29243020872E+04  0.95000000000E+03 0.  0.
<mgrwt>
<rscale>  0 0.24646120E+04</rscale>
<asrwt>0</asrwt>
<pdfrwt beam="1">  1        2 0.71662761E+00 0.24646120E+04</pdfrwt>
<pdfrwt beam="2">  1       -2 0.50155306E-01 0.24646120E+04</pdfrwt>
<totfact> 0.28824229E-01</totfact>
</mgrwt>
</event>
<event>
 4    1  0.2019612E-008  0.2336282E+04  0.7816531E-02  0.8463751E-01
         -1   -1    0    0    0  501 -0.00000000000E+00  0.00000000000E+00  0.12180000972E+04  0.12180000972E+04  0.00000000000E+00 0.  1.
          1   -1    0    0  501    0  0.00000000000E+00 -0.00000000000E+00 -0.11203231554E+04  0.11203231554E+04  0.00000000000E+00 0. -1.
    2000013    1    1    2    0    0  0.41850251580E+03 -0.53343320265E+03  0.23294534281E+00  0.11671312658E+04  0.95000000000E+03 0.  0.
   -2000013    1    1    2    0    0 -0.41850251580E+03  0.53343320265E+03  0.97443996405E+02  0.11711919868E+04  0.95000000000E+03 0.  0.
<mgrwt>
<rscale>  0 0.23362823E+04</rscale>
<asrwt>0</asrwt>
<pdfrwt beam="2">  1        1 0.17235741E+00 0.23362823E+04</pdfrwt>
<pdfrwt beam="1">  1       -1 0.18738463E+00 0.23362823E+04</pdfrwt>
<totfact> 0.20334304E+00</totfact>
</mgrwt>
</event>
<event>
 4    1  0.2019612E-008  0.2521282E+04  0.7816531E-02  0.8395443E-01
          2   -1    0    0  501    0  0.00000000000E+00  0.00000000000E+00  0.63769681614E+03  0.63769681614E+03  0.00000000000E+00 0.  1.
         -2   -1    0    0    0  501 -0.00000000000E+00 -0.00000000000E+00 -0.24921181556E+04  0.24921181556E+04  0.00000000000E+00 0. -1.
    2000013    1    1    2    0    0  0.39741047865E+03 -0.61757476864E+03 -0.45064841337E+03  0.12825434401E+04  0.95000000000E+03 0.  0.
   -2000013    1    1    2    0    0 -0.39741047865E+03  0.61757476864E+03 -0.14037729261E+04  0.18472715316E+04  0.95000000000E+03 0.  0.
<mgrwt>
<rscale>  0 0.25212821E+04</rscale>
<asrwt>0</asrwt>
<pdfrwt beam="1">  1        2 0.98107204E-01 0.25212821E+04</pdfrwt>
<pdfrwt beam="2">  1       -2 0.38340279E+00 0.25212821E+04</pdfrwt>
<totfact> 0.39027181E-01</totfact>
</mgrwt>
</event>
<event>
 4    1  0.2019612E-008  0.2261260E+04  0.7816531E-02  0.8493354E-01
         -2   -1    0    0    0  501 -0.00000000000E+00  0.00000000000E+00  0.70752831898E+03  0.70752831898E+03  0.00000000000E+00 0. -1.
          2   -1    0    0  501    0  0.00000000000E+00 -0.00000000000E+00 -0.18067462551E+04  0.18067462551E+04  0.00000000000E+00 0.  1.
    2000013    1    1    2    0    0 -0.35051581389E+03 -0.30923874889E+03 -0.99064470560E+03  0.14499540932E+04  0.95000000000E+03 0.  0.
   -2000013    1    1    2    0    0  0.35051581389E+03  0.30923874889E+03 -0.10857323049E+03  0.10643204809E+04  0.95000000000E+03 0.  0.
<mgrwt>
<rscale>  0 0.22612600E+04</rscale>
<asrwt>0</asrwt>
<pdfrwt beam="2">  1        2 0.27796096E+00 0.22612600E+04</pdfrwt>
<pdfrwt beam="1">  1       -2 0.10885051E+00 0.22612600E+04</pdfrwt>
<totfact> 0.52437076E+00</totfact>
</mgrwt>
</event>
<event>
 4    1  0.2019612E-008  0.3072541E+04  0.7816531E-02  0.8223315E-01
         -4   -1    0    0    0  501 -0.00000000000E+00  0.00000000000E+00  0.10622422905E+04  0.10622422905E+04  0.00000000000E+00 0. -1.
          4   -1    0    0  501    0  0.00000000000E+00 -0.00000000000E+00 -0.22218343433E+04  0.22218343433E+04  0.00000000000E+00 0.  1.
    2000013    1    1    2    0    0  0.97350355357E+03  0.58051755015E+03 -0.13533466898E+03  0.14851010967E+04  0.95000000000E+03 0.  0.
   -2000013    1    1    2    0    0 -0.97350355357E+03 -0.58051755015E+03 -0.10242573838E+04  0.17989755371E+04  0.95000000000E+03 0.  0.
<mgrwt>
<rscale>  0 0.30725406E+04</rscale>
<asrwt>0</asrwt>
<pdfrwt beam="2">  1        4 0.34182067E+00 0.30725406E+04</pdfrwt>
<pdfrwt beam="1">  1       -4 0.16342189E+00 0.30725406E+04</pdfrwt>
<totfact> 0.66741780E-03</totfact>
</mgrwt>
</event>
<event>
 4    1  0.2019612E-008  0.2787769E+04  0.7816531E-02  0.8307076E-01
          2   -1    0    0  501    0  0.00000000000E+00  0.00000000000E+00  0.25306052854E+04  0.25306052854E+04  0.00000000000E+00 0. -1.
         -2   -1    0    0    0  501 -0.00000000000E+00 -0.00000000000E+00 -0.76776627346E+03  0.76776627346E+03  0.00000000000E+00 0.  1.
    2000013    1    1    2    0    0 -0.75546530788E+03 -0.45715309814E+03  0.27731712590E+03  0.13263188059E+04  0.95000000000E+03 0.  0.
   -2000013    1    1    2    0    0  0.75546530788E+03  0.45715309814E+03  0.14855218860E+04  0.19720527529E+04  0.95000000000E+03 0.  0.
<mgrwt>
<rscale>  0 0.27877686E+04</rscale>
<asrwt>0</asrwt>
<pdfrwt beam="1">  1        2 0.38932389E+00 0.27877686E+04</pdfrwt>
<pdfrwt beam="2">  1       -2 0.11811789E+00 0.27877686E+04</pdfrwt>
<totfact> 0.16068710E+00</totfact>
</mgrwt>
</event>
<event>
 4    1  0.2019612E-008  0.3004391E+04  0.7816531E-02  0.8242478E-01
         -2   -1    0    0    0  501 -0.00000000000E+00  0.00000000000E+00  0.78702317289E+03  0.78702317289E+03  0.00000000000E+00 0. -1.
          2   -1    0    0  501    0  0.00000000000E+00 -0.00000000000E+00 -0.28672485506E+04  0.28672485506E+04  0.00000000000E+00 0.  1.
    2000013    1    1    2    0    0  0.85243393572E+03 -0.77938312105E+03 -0.86806006132E+03  0.17291934346E+04  0.95000000000E+03 0.  0.
   -2000013    1    1    2    0    0 -0.85243393572E+03  0.77938312105E+03 -0.12121653164E+04  0.19250782889E+04  0.95000000000E+03 0.  0.
<mgrwt>
<rscale>  0 0.30043908E+04</rscale>
<asrwt>0</asrwt>
<pdfrwt beam="2">  1        2 0.44111516E+00 0.30043908E+04</pdfrwt>
<pdfrwt beam="1">  1       -2 0.12108049E+00 0.30043908E+04</pdfrwt>
<totfact> 0.93458631E-01</totfact>
</mgrwt>
</event>
<event>
 4    1  0.2019612E-008  0.2220188E+04  0.7816531E-02  0.8510072E-01
         -2   -1    0    0    0  501 -0.00000000000E+00  0.00000000000E+00  0.43036266665E+03  0.43036266665E+03  0.00000000000E+00 0. -1.
          2   -1    0    0  501    0  0.00000000000E+00 -0.00000000000E+00 -0.28634179939E+04  0.28634179939E+04  0.00000000000E+00 0.  1.
    2000013    1    1    2    0    0  0.53370367616E+03 -0.52879533675E+02 -0.15211900804E+04  0.18719388665E+04  0.95000000000E+03 0.  0.
   -2000013    1    1    2    0    0 -0.53370367616E+03  0.52879533675E+02 -0.91186524680E+03  0.14218417941E+04  0.95000000000E+03 0.  0.
<mgrwt>
<rscale>  0 0.22201876E+04</rscale>
<asrwt>0</asrwt>
<pdfrwt beam="2">  1        2 0.44052585E+00 0.22201876E+04</pdfrwt>
<pdfrwt beam="1">  1       -2 0.66209640E-01 0.22201876E+04</pdfrwt>
<totfact> 0.40535356E+00</totfact>
</mgrwt>
</event>
<event>
 4    1  0.2019612E-008  0.2263561E+04  0.7816531E-02  0.8492429E-01
          1   -1    0    0  501    0  0.00000000000E+00  0.00000000000E+00  0.16914573992E+04  0.16914573992E+04  0.00000000000E+00 0.  1.
         -1   -1    0    0    0  501 -0.00000000000E+00 -0.00000000000E+00 -0.75729170669E+03  0.75729170669E+03  0.00000000000E+00 0. -1.
    2000013    1    1    2    0    0  0.49194066102E+02 -0.56121207118E+03  0.73437518781E+03  0.13263430783E+04  0.95000000000E+03 0.  0.
   -2000013    1    1    2    0    0 -0.49194066102E+02  0.56121207118E+03  0.19979050473E+03  0.11224060276E+04  0.95000000000E+03 0.  0.
<mgrwt>
<rscale>  0 0.22635606E+04</rscale>
<asrwt>0</asrwt>
<pdfrwt beam="1">  1        1 0.26022421E+00 0.22635606E+04</pdfrwt>
<pdfrwt beam="2">  1       -1 0.11650642E+00 0.22635606E+04</pdfrwt>
<totfact> 0.29134002E+00</totfact>
</mgrwt>
</event>
<event>
 4    1  0.2019612E-008  0.3940634E+04  0.7816531E-02  0.8016631E-01
         -2   -1    0    0    0  501 -0.00000000000E+00  0.00000000000E+00  0.10850526525E+04  0.10850526525E+04  0.00000000000E+00 0. -1.
          2   -1    0    0  501    0  0.00000000000E+00 -0.00000000000E+00 -0.35778441977E+04  0.35778441977E+04  0.00000000000E+00 0.  1.
    2000013    1    1    2    0    0  0.22256096976E+03 -0.17090663190E+04 -0.13599435653E+04  0.23921512428E+04  0.95000000000E+03 0.  0.
   -2000013    1    1    2    0    0 -0.22256096976E+03  0.17090663190E+04 -0.11328479799E+04  0.22707456074E+04  0.95000000000E+03 0.  0.
<mgrwt>
<rscale>  0 0.39406341E+04</rscale>
<asrwt>0</asrwt>
<pdfrwt beam="2">  1        2 0.55043756E+00 0.39406341E+04</pdfrwt>
<pdfrwt beam="1">  1       -2 0.16693118E+00 0.39406341E+04</pdfrwt>
<totfact> 0.12700161E-01</totfact>
</mgrwt>
</event>
<event>
 4    1  0.2019612E-008  0.3275989E+04  0.7816531E-02  0.8169032E-01
         -2   -1    0    0    0  501 -0.00000000000E+00  0.00000000000E+00  0.38573998026E+04  0.38573998026E+04  0.00000000000E+00 0. -1.
          2   -1    0    0  501    0  0.00000000000E+00 -0.00000000000E+00 -0.69555292495E+03  0.69555292495E+03  0.00000000000E+00 0.  1.
    2000013    1    1    2    0    0 -0.14313248878E+03 -0.13167565871E+04  0.18058423175E+04  0.24326736926E+04  0.95000000000E+03 0.  0.
   -2000013    1    1    2    0    0  0.14313248878E+03  0.13167565871E+04  0.13560045601E+04  0.21202790349E+04  0.95000000000E+03 0.  0.
<mgrwt>
<rscale>  0 0.32759888E+04</rscale>
<asrwt>0</asrwt>
<pdfrwt beam="2">  1        2 0.10700814E+00 0.32759888E+04</pdfrwt>
<pdfrwt beam="1">  1       -2 0.59344611E+00 0.32759888E+04</pdfrwt>
<totfact> 0.18468151E-02</totfact>
</mgrwt>
</event>
<event>
 4    1  0.2019612E-008  0.5005978E+04  0.7816531E-02  0.7827586E-01
          2   -1    0    0  501    0  0.00000000000E+00  0.00000000000E+00  0.27559744001E+04  0.27559744001E+04  0.00000000000E+00 0.  1.
         -2   -1    0    0    0  501 -0.00000000000E+00 -0.00000000000E+00 -0.22732262054E+04  0.22732262054E+04  0.00000000000E+00 0. -1.
    2000013    1    1    2    0    0  0.12533899072E+04 -0.18824055026E+04  0.74169693494E+03  0.25626258172E+04  0.95000000000E+03 0.  0.
   -2000013    1    1    2    0    0 -0.12533899072E+04  0.18824055026E+04 -0.25894874031E+03  0.24665747882E+04  0.95000000000E+03 0.  0.
<mgrwt>
<rscale>  0 0.50059777E+04</rscale>
<asrwt>0</asrwt>
<pdfrwt beam="1">  1        2 0.42399606E+00 0.50059777E+04</pdfrwt>
<pdfrwt beam="2">  1       -2 0.34972711E+00 0.50059777E+04</pdfrwt>
<totfact> 0.27940330E-02</totfact>
</mgrwt>
</event>
<event>
 4    1  0.2019612E-008  0.2272500E+04  0.7816531E-02  0.8488844E-01
         -2   -1    0    0    0  501 -0.00000000000E+00  0.00000000000E+00  0.95147689261E+03  0.95147689261E+03  0.00000000000E+00 0.  1.
          2   -1    0    0  501    0  0.00000000000E+00 -0.00000000000E+00 -0.13569054299E+04  0.13569054299E+04  0.00000000000E+00 0. -1.
    2000013    1    1    2    0    0  0.23335458346E+03 -0.10446823872E+03  0.37476572863E+03  0.10527665106E+04  0.95000000000E+03 0.  0.
   -2000013    1    1    2    0    0 -0.23335458346E+03  0.10446823872E+03 -0.78019426595E+03  0.12556158119E+04  0.95000000000E+03 0.  0.
<mgrwt>
<rscale>  0 0.22725001E+04</rscale>
<asrwt>0</asrwt>
<pdfrwt beam="2">  1        2 0.20875468E+00 0.22725001E+04</pdfrwt>
<pdfrwt beam="1">  1       -2 0.14638106E+00 0.22725001E+04</pdfrwt>
<totfact> 0.44499165E+00</totfact>
</mgrwt>
</event>
<event>
 4    1  0.2019612E-008  0.2978919E+04  0.7816531E-02  0.8249776E-01
         -1   -1    0    0    0  501 -0.00000000000E+00  0.00000000000E+00  0.56867707178E+03  0.56867707178E+03  0.00000000000E+00 0. -1.
          1   -1    0    0  501    0  0.00000000000E+00 -0.00000000000E+00 -0.39011422362E+04  0.39011422362E+04  0.00000000000E+00 0.  1.
    2000013    1    1    2    0    0 -0.97788543191E+03  0.50974808492E+03 -0.21404592315E+04  0.25884684178E+04  0.95000000000E+03 0.  0.
   -2000013    1    1    2    0    0  0.97788543191E+03 -0.50974808492E+03 -0.11920059329E+04  0.18813508902E+04  0.95000000000E+03 0.  0.
<mgrwt>
<rscale>  0 0.29789194E+04</rscale>
<asrwt>0</asrwt>
<pdfrwt beam="2">  1        1 0.60017574E+00 0.29789194E+04</pdfrwt>
<pdfrwt beam="1">  1       -1 0.87488779E-01 0.29789194E+04</pdfrwt>
<totfact> 0.12810718E-01</totfact>
</mgrwt>
</event>
<event>
 4    1  0.2019612E-008  0.2203126E+04  0.7816531E-02  0.8517128E-01
          2   -1    0    0  501    0  0.00000000000E+00  0.00000000000E+00  0.11027336677E+04  0.11027336677E+04  0.00000000000E+00 0.  1.
         -2   -1    0    0    0  501 -0.00000000000E+00 -0.00000000000E+00 -0.11003934123E+04  0.11003934123E+04  0.00000000000E+00 0. -1.
    2000013    1    1    2    0    0 -0.34073666438E+03  0.42410486786E+03 -0.12120007693E+03  0.11014335532E+04  0.95000000000E+03 0.  0.
   -2000013    1    1    2    0    0  0.34073666438E+03 -0.42410486786E+03  0.12354033231E+03  0.11016935268E+04  0.95000000000E+03 0.  0.
<mgrwt>
<rscale>  0 0.22031258E+04</rscale>
<asrwt>0</asrwt>
<pdfrwt beam="1">  1        2 0.16965133E+00 0.22031258E+04</pdfrwt>
<pdfrwt beam="2">  1       -2 0.16929129E+00 0.22031258E+04</pdfrwt>
<totfact> 0.42758828E+00</totfact>
</mgrwt>
</event>
<event>
 4    1  0.2019612E-008  0.3434870E+04  0.7816531E-02  0.8129401E-01
         -2   -1    0    0    0  501 -0.00000000000E+00  0.00000000000E+00  0.15734571630E+04  0.15734571630E+04  0.00000000000E+00 0. -1.
          2   -1    0    0  501    0  0.00000000000E+00 -0.00000000000E+00 -0.18745875927E+04  0.18745875927E+04  0.00000000000E+00 0.  1.
    2000013    1    1    2    0    0  0.83665866159E+03  0.11393573928E+04 -0.37266094319E+03  0.17434188146E+04  0.95000000000E+03 0.  0.
   -2000013    1    1    2    0    0 -0.83665866159E+03 -0.11393573928E+04  0.71530513577E+02  0.17046259411E+04  0.95000000000E+03 0.  0.
<mgrwt>
<rscale>  0 0.34348702E+04</rscale>
<asrwt>0</asrwt>
<pdfrwt beam="2">  1        2 0.28839809E+00 0.34348702E+04</pdfrwt>
<pdfrwt beam="1">  1       -2 0.24207033E+00 0.34348702E+04</pdfrwt>
<totfact> 0.46607890E-01</totfact>
</mgrwt>
</event>
<event>
 4    1  0.2019612E-008  0.2824892E+04  0.7816531E-02  0.8295582E-01
          2   -1    0    0  501    0  0.00000000000E+00  0.00000000000E+00  0.19733892708E+04  0.19733892708E+04  0.00000000000E+00 0.  1.
         -2   -1    0    0    0  501 -0.00000000000E+00 -0.00000000000E+00 -0.10109527214E+04  0.10109527214E+04  0.00000000000E+00 0. -1.
    2000013    1    1    2    0    0 -0.34039230986E+03 -0.95990437292E+03  0.23296516797E+03  0.14121105124E+04  0.95000000000E+03 0.  0.
   -2000013    1    1    2    0    0  0.34039230986E+03  0.95990437292E+03  0.72947138141E+03  0.15722314798E+04  0.95000000000E+03 0.  0.
<mgrwt>
<rscale>  0 0.28248917E+04</rscale>
<asrwt>0</asrwt>
<pdfrwt beam="1">  1        2 0.30359835E+00 0.28248917E+04</pdfrwt>
<pdfrwt beam="2">  1       -2 0.15553119E+00 0.28248917E+04</pdfrwt>
<totfact> 0.16330152E+00</totfact>
</mgrwt>
</event>
<event>
 4    1  0.2019612E-008  0.2448649E+04  0.7816531E-02  0.8421511E-01
         -2   -1    0    0    0  501 -0.00000000000E+00  0.00000000000E+00  0.21338609834E+04  0.21338609834E+04  0.00000000000E+00 0. -1.
          2   -1    0    0  501    0  0.00000000000E+00 -0.00000000000E+00 -0.70246858350E+03  0.70246858350E+03  0.00000000000E+00 0.  1.
    2000013    1    1    2    0    0 -0.62483464621E+03 -0.22717412985E+03  0.26048227687E+03  0.11884348686E+04  0.95000000000E+03 0.  0.
   -2000013    1    1    2    0    0  0.62483464621E+03  0.22717412985E+03  0.11709101230E+04  0.16478946983E+04  0.95000000000E+03 0.  0.
<mgrwt>
<rscale>  0 0.24486489E+04</rscale>
<asrwt>0</asrwt>
<pdfrwt beam="2">  1        2 0.10807209E+00 0.24486489E+04</pdfrwt>
<pdfrwt beam="1">  1       -2 0.32828630E+00 0.24486489E+04</pdfrwt>
<totfact> 0.77759731E-01</totfact>
</mgrwt>
</event>
<event>
 4    1  0.2019612E-008  0.4150455E+04  0.7816531E-02  0.7974864E-01
         -2   -1    0    0    0  501 -0.00000000000E+00  0.00000000000E+00  0.12629386823E+04  0.12629386823E+04  0.00000000000E+00 0. -1.
          2   -1    0    0  501    0  0.00000000000E+00 -0.00000000000E+00 -0.34099585914E+04  0.34099585914E+04  0.00000000000E+00 0.  1.
    2000013    1    1    2    0    0 -0.18893716557E+03  0.16591579915E+04 -0.19016993554E+03  0.19305872416E+04  0.95000000000E+03 0.  0.
   -2000013    1    1    2    0    0  0.18893716557E+03 -0.16591579915E+04 -0.19568499735E+04  0.27423100321E+04  0.95000000000E+03 0.  0.
<mgrwt>
<rscale>  0 0.41504547E+04</rscale>
<asrwt>0</asrwt>
<pdfrwt beam="2">  1        2 0.52460901E+00 0.41504547E+04</pdfrwt>
<pdfrwt beam="1">  1       -2 0.19429826E+00 0.41504547E+04</pdfrwt>
<totfact> 0.10595103E-01</totfact>
</mgrwt>
</event>
<event>
 4    1  0.2019612E-008  0.2184072E+04  0.7816531E-02  0.8525087E-01
         -1   -1    0    0    0  501 -0.00000000000E+00  0.00000000000E+00  0.44559159018E+03  0.44559159018E+03  0.00000000000E+00 0. -1.
          1   -1    0    0  501    0  0.00000000000E+00 -0.00000000000E+00 -0.26763127862E+04  0.26763127862E+04  0.00000000000E+00 0.  1.
    2000013    1    1    2    0    0 -0.63692936243E+02 -0.40806389780E+03 -0.62129881540E+03  0.12079259716E+04  0.95000000000E+03 0.  0.
   -2000013    1    1    2    0    0  0.63692936243E+02  0.40806389780E+03 -0.16094223806E+04  0.19139784048E+04  0.95000000000E+03 0.  0.
<mgrwt>
<rscale>  0 0.21840719E+04</rscale>
<asrwt>0</asrwt>
<pdfrwt beam="2">  1        1 0.41174042E+00 0.21840719E+04</pdfrwt>
<pdfrwt beam="1">  1       -1 0.68552554E-01 0.21840719E+04</pdfrwt>
<totfact> 0.20059231E+00</totfact>
</mgrwt>
</event>
<event>
 4    1  0.2019612E-008  0.2503927E+04  0.7816531E-02  0.8401588E-01
         -2   -1    0    0    0  501 -0.00000000000E+00  0.00000000000E+00  0.11078605240E+04  0.11078605240E+04  0.00000000000E+00 0. -1.
          2   -1    0    0  501    0  0.00000000000E+00 -0.00000000000E+00 -0.14148106112E+04  0.14148106112E+04  0.00000000000E+00 0.  1.
    2000013    1    1    2    0    0  0.69905510048E+03  0.39075391766E+03 -0.30807133041E+03  0.12801463207E+04  0.95000000000E+03 0.  0.
   -2000013    1    1    2    0    0 -0.69905510048E+03 -0.39075391766E+03  0.11212432220E+01  0.12425248146E+04  0.95000000000E+03 0.  0.
<mgrwt>
<rscale>  0 0.25039272E+04</rscale>
<asrwt>0</asrwt>
<pdfrwt beam="2">  1        2 0.21766317E+00 0.25039272E+04</pdfrwt>
<pdfrwt beam="1">  1       -2 0.17044008E+00 0.25039272E+04</pdfrwt>
<totfact> 0.26776418E+00</totfact>
</mgrwt>
</event>
<event>
 4    1  0.2019612E-008  0.2244091E+04  0.7816531E-02  0.8500297E-01
         -1   -1    0    0    0  501 -0.00000000000E+00  0.00000000000E+00  0.17074724810E+04  0.17074724810E+04  0.00000000000E+00 0. -1.
          1   -1    0    0  501    0  0.00000000000E+00 -0.00000000000E+00 -0.73733896883E+03  0.73733896883E+03  0.00000000000E+00 0.  1.
    2000013    1    1    2    0    0 -0.91856173536E+02  0.54660572170E+03  0.72689051560E+03  0.13183645904E+04  0.95000000000E+03 0.  0.
   -2000013    1    1    2    0    0  0.91856173536E+02 -0.54660572170E+03  0.24324299653E+03  0.11264468594E+04  0.95000000000E+03 0.  0.
<mgrwt>
<rscale>  0 0.22440909E+04</rscale>
<asrwt>0</asrwt>
<pdfrwt beam="2">  1        1 0.11343676E+00 0.22440909E+04</pdfrwt>
<pdfrwt beam="1">  1       -1 0.26268807E+00 0.22440909E+04</pdfrwt>
<totfact> 0.13166204E+00</totfact>
</mgrwt>
</event>
<event>
 4    1  0.2019612E-008  0.2259454E+04  0.7816531E-02  0.8494081E-01
         -1   -1    0    0    0  501 -0.00000000000E+00  0.00000000000E+00  0.17668661137E+04  0.17668661137E+04  0.00000000000E+00 0.  1.
          1   -1    0    0  501    0  0.00000000000E+00 -0.00000000000E+00 -0.72234305218E+03  0.72234305218E+03  0.00000000000E+00 0. -1.
    2000013    1    1    2    0    0  0.26092160158E+03 -0.49771893676E+03  0.78753516138E+03  0.13559188223E+04  0.95000000000E+03 0.  0.
   -2000013    1    1    2    0    0 -0.26092160158E+03  0.49771893676E+03  0.25698790017E+03  0.11332903437E+04  0.95000000000E+03 0.  0.
<mgrwt>
<rscale>  0 0.22594543E+04</rscale>
<asrwt>0</asrwt>
<pdfrwt beam="2">  1        1 0.11112970E+00 0.22594543E+04</pdfrwt>
<pdfrwt beam="1">  1       -1 0.27182555E+00 0.22594543E+04</pdfrwt>
<totfact> 0.11841564E+00</totfact>
</mgrwt>
</event>
<event>
 4    1  0.2019612E-008  0.2575082E+04  0.7816531E-02  0.8376715E-01
         -2   -1    0    0    0  501 -0.00000000000E+00  0.00000000000E+00  0.86396650129E+03  0.86396650129E+03  0.00000000000E+00 0. -1.
          2   -1    0    0  501    0  0.00000000000E+00 -0.00000000000E+00 -0.19187809117E+04  0.19187809117E+04  0.00000000000E+00 0.  1.
    2000013    1    1    2    0    0  0.21506350344E+03 -0.71363387003E+03 -0.44446595544E+02  0.12083050570E+04  0.95000000000E+03 0.  0.
   -2000013    1    1    2    0    0 -0.21506350344E+03  0.71363387003E+03 -0.10103678149E+04  0.15744423560E+04  0.95000000000E+03 0.  0.
<mgrwt>
<rscale>  0 0.25750825E+04</rscale>
<asrwt>0</asrwt>
<pdfrwt beam="2">  1        2 0.29519706E+00 0.25750825E+04</pdfrwt>
<pdfrwt beam="1">  1       -2 0.13291792E+00 0.25750825E+04</pdfrwt>
<totfact> 0.26974627E+00</totfact>
</mgrwt>
</event>
<event>
 4    1  0.2019612E-008  0.2893531E+04  0.7816531E-02  0.8274805E-01
         -2   -1    0    0    0  501 -0.00000000000E+00  0.00000000000E+00  0.64774950204E+03  0.64774950204E+03  0.00000000000E+00 0. -1.
          2   -1    0    0  501    0  0.00000000000E+00 -0.00000000000E+00 -0.32313880012E+04  0.32313880012E+04  0.00000000000E+00 0.  1.
    2000013    1    1    2    0    0 -0.82775046816E+03  0.23763229508E+02 -0.22444122254E+04  0.25740283149E+04  0.95000000000E+03 0.  0.
   -2000013    1    1    2    0    0  0.82775046816E+03 -0.23763229508E+02 -0.33922627379E+03  0.13051091883E+04  0.95000000000E+03 0.  0.
<mgrwt>
<rscale>  0 0.28935307E+04</rscale>
<asrwt>0</asrwt>
<pdfrwt beam="2">  1        2 0.49713662E+00 0.28935307E+04</pdfrwt>
<pdfrwt beam="1">  1       -2 0.99653769E-01 0.28935307E+04</pdfrwt>
<totfact> 0.88895811E-01</totfact>
</mgrwt>
</event>
<event>
 4    1  0.2019612E-008  0.2615107E+04  0.7816531E-02  0.8363088E-01
          2   -1    0    0  501    0  0.00000000000E+00  0.00000000000E+00  0.34961718455E+04  0.34961718455E+04  0.00000000000E+00 0.  1.
         -2   -1    0    0    0  501 -0.00000000000E+00 -0.00000000000E+00 -0.48901932086E+03  0.48901932086E+03  0.00000000000E+00 0. -1.
    2000013    1    1    2    0    0 -0.27039237766E+03  0.79182501402E+03  0.20022859383E+04  0.23689128033E+04  0.95000000000E+03 0.  0.
   -2000013    1    1    2    0    0  0.27039237766E+03 -0.79182501402E+03  0.10048665864E+04  0.16162783631E+04  0.95000000000E+03 0.  0.
<mgrwt>
<rscale>  0 0.26151066E+04</rscale>
<asrwt>0</asrwt>
<pdfrwt beam="1">  1        2 0.53787258E+00 0.26151066E+04</pdfrwt>
<pdfrwt beam="2">  1       -2 0.75233744E-01 0.26151066E+04</pdfrwt>
<totfact> 0.11467515E+00</totfact>
</mgrwt>
</event>
<event>
 4    1  0.2019612E-008  0.2464479E+04  0.7816531E-02  0.8415751E-01
         -2   -1    0    0    0  501 -0.00000000000E+00  0.00000000000E+00  0.16855067512E+04  0.16855067512E+04  0.00000000000E+00 0. -1.
          2   -1    0    0  501    0  0.00000000000E+00 -0.00000000000E+00 -0.90086479036E+03  0.90086479036E+03  0.00000000000E+00 0.  1.
    2000013    1    1    2    0    0 -0.37371107890E+03  0.63261760115E+03  0.10291218831E+03  0.12053862113E+04  0.95000000000E+03 0.  0.
   -2000013    1    1    2    0    0  0.37371107890E+03 -0.63261760115E+03  0.68172977255E+03  0.13809853303E+04  0.95000000000E+03 0.  0.
<mgrwt>
<rscale>  0 0.24644786E+04</rscale>
<asrwt>0</asrwt>
<pdfrwt beam="2">  1        2 0.13859458E+00 0.24644786E+04</pdfrwt>
<pdfrwt beam="1">  1       -2 0.25930873E+00 0.24644786E+04</pdfrwt>
<totfact> 0.14755177E+00</totfact>
</mgrwt>
</event>
<event>
 4    1  0.2019612E-008  0.2708715E+04  0.7816531E-02  0.8332183E-01
         -2   -1    0    0    0  501 -0.00000000000E+00  0.00000000000E+00  0.57501289071E+03  0.57501289071E+03  0.00000000000E+00 0. -1.
          2   -1    0    0  501    0  0.00000000000E+00 -0.00000000000E+00 -0.31899887753E+04  0.31899887753E+04  0.00000000000E+00 0.  1.
    2000013    1    1    2    0    0  0.88418586857E+03 -0.48789293209E+02 -0.18415280235E+04  0.22534175172E+04  0.95000000000E+03 0.  0.
   -2000013    1    1    2    0    0 -0.88418586857E+03  0.48789293209E+02 -0.77344786114E+03  0.15115841489E+04  0.95000000000E+03 0.  0.
<mgrwt>
<rscale>  0 0.27087153E+04</rscale>
<asrwt>0</asrwt>
<pdfrwt beam="2">  1        2 0.49076749E+00 0.27087153E+04</pdfrwt>
<pdfrwt beam="1">  1       -2 0.88463524E-01 0.27087153E+04</pdfrwt>
<totfact> 0.12687637E+00</totfact>
</mgrwt>
</event>
<event>
 4    1  0.2019612E-008  0.2597961E+04  0.7816531E-02  0.8368894E-01
          2   -1    0    0  501    0  0.00000000000E+00  0.00000000000E+00  0.31849815143E+04  0.31849815143E+04  0.00000000000E+00 0.  1.
         -2   -1    0    0    0  501 -0.00000000000E+00 -0.00000000000E+00 -0.52978349940E+03  0.52978349940E+03  0.00000000000E+00 0. -1.
    2000013    1    1    2    0    0  0.65016991158E+03 -0.59078674795E+03  0.14912606362E+04  0.19743627277E+04  0.95000000000E+03 0.  0.
   -2000013    1    1    2    0    0 -0.65016991158E+03  0.59078674795E+03  0.11639373786E+04  0.17404022859E+04  0.95000000000E+03 0.  0.
<mgrwt>
<rscale>  0 0.25979612E+04</rscale>
<asrwt>0</asrwt>
<pdfrwt beam="1">  1        2 0.48999714E+00 0.25979612E+04</pdfrwt>
<pdfrwt beam="2">  1       -2 0.81505156E-01 0.25979612E+04</pdfrwt>
<totfact> 0.15554381E+00</totfact>
</mgrwt>
</event>
<event>
 4    1  0.2019612E-008  0.2232206E+04  0.7816531E-02  0.8505142E-01
          2   -1    0    0  501    0  0.00000000000E+00  0.00000000000E+00  0.20676228281E+04  0.20676228281E+04  0.00000000000E+00 0.  1.
         -2   -1    0    0    0  501 -0.00000000000E+00 -0.00000000000E+00 -0.60247244038E+03  0.60247244038E+03  0.00000000000E+00 0. -1.
    2000013    1    1    2    0    0 -0.80787185542E+02 -0.51955354813E+03  0.10415558624E+04  0.15045933249E+04  0.95000000000E+03 0.  0.
   -2000013    1    1    2    0    0  0.80787185542E+02  0.51955354813E+03  0.42359452532E+03  0.11655019436E+04  0.95000000000E+03 0.  0.
<mgrwt>
<rscale>  0 0.22322059E+04</rscale>
<asrwt>0</asrwt>
<pdfrwt beam="1">  1        2 0.31809582E+00 0.22322059E+04</pdfrwt>
<pdfrwt beam="2">  1       -2 0.92688069E-01 0.22322059E+04</pdfrwt>
<totfact> 0.55120221E+00</totfact>
</mgrwt>
</event>
<event>
 4    1  0.2019612E-008  0.2017216E+04  0.7816531E-02  0.8598614E-01
         -2   -1    0    0    0  501 -0.00000000000E+00  0.00000000000E+00  0.28106868154E+03  0.28106868154E+03  0.00000000000E+00 0. -1.
          2   -1    0    0  501    0  0.00000000000E+00 -0.00000000000E+00 -0.36193641373E+04  0.36193641373E+04  0.00000000000E+00 0.  1.
    2000013    1    1    2    0    0 -0.17054543347E+03 -0.28483834044E+03 -0.17998789738E+04  0.20621064341E+04  0.95000000000E+03 0.  0.
   -2000013    1    1    2    0    0  0.17054543347E+03  0.28483834044E+03 -0.15384164820E+04  0.18383263848E+04  0.95000000000E+03 0.  0.
<mgrwt>
<rscale>  0 0.20172158E+04</rscale>
<asrwt>0</asrwt>
<pdfrwt beam="2">  1        2 0.55682519E+00 0.20172158E+04</pdfrwt>
<pdfrwt beam="1">  1       -2 0.43241340E-01 0.20172158E+04</pdfrwt>
<totfact> 0.31656320E+00</totfact>
</mgrwt>
</event>
<event>
 4    1  0.2019612E-008  0.2788027E+04  0.7816531E-02  0.8306995E-01
         -2   -1    0    0    0  501 -0.00000000000E+00  0.00000000000E+00  0.11446482228E+04  0.11446482228E+04  0.00000000000E+00 0. -1.
          2   -1    0    0  501    0  0.00000000000E+00 -0.00000000000E+00 -0.16977033335E+04  0.16977033335E+04  0.00000000000E+00 0.  1.
    2000013    1    1    2    0    0  0.78001333297E+03 -0.20000547726E+03  0.36205605523E+03  0.12969223484E+04  0.95000000000E+03 0.  0.
   -2000013    1    1    2    0    0 -0.78001333297E+03  0.20000547726E+03 -0.91511116597E+03  0.15454292079E+04  0.95000000000E+03 0.  0.
<mgrwt>
<rscale>  0 0.27880266E+04</rscale>
<asrwt>0</asrwt>
<pdfrwt beam="2">  1        2 0.26118513E+00 0.27880266E+04</pdfrwt>
<pdfrwt beam="1">  1       -2 0.17609973E+00 0.27880266E+04</pdfrwt>
<totfact> 0.16538738E+00</totfact>
</mgrwt>
</event>
<event>
 4    1  0.2019612E-008  0.2670339E+04  0.7816531E-02  0.8344694E-01
          2   -1    0    0  501    0  0.00000000000E+00  0.00000000000E+00  0.30995369718E+04  0.30995369718E+04  0.00000000000E+00 0.  1.
         -2   -1    0    0    0  501 -0.00000000000E+00 -0.00000000000E+00 -0.57514320098E+03  0.57514320098E+03  0.00000000000E+00 0. -1.
    2000013    1    1    2    0    0 -0.27098717204E+03  0.87807666915E+03  0.15222959830E+04  0.20160202737E+04  0.95000000000E+03 0.  0.
   -2000013    1    1    2    0    0  0.27098717204E+03 -0.87807666915E+03  0.10020977879E+04  0.16586598991E+04  0.95000000000E+03 0.  0.
<mgrwt>
<rscale>  0 0.26703390E+04</rscale>
<asrwt>0</asrwt>
<pdfrwt beam="1">  1        2 0.47685183E+00 0.26703390E+04</pdfrwt>
<pdfrwt beam="2">  1       -2 0.88483571E-01 0.26703390E+04</pdfrwt>
<totfact> 0.14552118E+00</totfact>
</mgrwt>
</event>
<event>
 4    1  0.2019612E-008  0.2386249E+04  0.7816531E-02  0.8444670E-01
         -2   -1    0    0    0  501 -0.00000000000E+00  0.00000000000E+00  0.91510480451E+03  0.91510480451E+03  0.00000000000E+00 0. -1.
          2   -1    0    0  501    0  0.00000000000E+00 -0.00000000000E+00 -0.15556100683E+04  0.15556100683E+04  0.00000000000E+00 0.  1.
    2000013    1    1    2    0    0  0.48306423757E+02 -0.71413597558E+03 -0.41695307387E+03  0.12604259471E+04  0.95000000000E+03 0.  0.
   -2000013    1    1    2    0    0 -0.48306423757E+02  0.71413597558E+03 -0.22355218993E+03  0.12102889258E+04  0.95000000000E+03 0.  0.
<mgrwt>
<rscale>  0 0.23862491E+04</rscale>
<asrwt>0</asrwt>
<pdfrwt beam="2">  1        2 0.23932462E+00 0.23862491E+04</pdfrwt>
<pdfrwt beam="1">  1       -2 0.14078536E+00 0.23862491E+04</pdfrwt>
<totfact> 0.37640083E+00</totfact>
</mgrwt>
</event>
<event>
 4    1  0.2019612E-008  0.2323023E+04  0.7816531E-02  0.8468898E-01
         -2   -1    0    0    0  501 -0.00000000000E+00  0.00000000000E+00  0.71067351068E+03  0.71067351068E+03  0.00000000000E+00 0. -1.
          2   -1    0    0  501    0  0.00000000000E+00 -0.00000000000E+00 -0.18983531639E+04  0.18983531639E+04  0.00000000000E+00 0.  1.
    2000013    1    1    2    0    0 -0.37351593590E+03  0.51900349979E+02 -0.12134925366E+04  0.15865912949E+04  0.95000000000E+03 0.  0.
   -2000013    1    1    2    0    0  0.37351593590E+03 -0.51900349979E+02  0.25812883360E+02  0.10224353797E+04  0.95000000000E+03 0.  0.
<mgrwt>
<rscale>  0 0.23230233E+04</rscale>
<asrwt>0</asrwt>
<pdfrwt beam="2">  1        2 0.29205433E+00 0.23230233E+04</pdfrwt>
<pdfrwt beam="1">  1       -2 0.10933439E+00 0.23230233E+04</pdfrwt>
<totfact> 0.45911735E+00</totfact>
</mgrwt>
</event>
<event>
 4    1  0.2019612E-008  0.2672215E+04  0.7816531E-02  0.8344077E-01
         -2   -1    0    0    0  501 -0.00000000000E+00  0.00000000000E+00  0.20586700608E+04  0.20586700608E+04  0.00000000000E+00 0.  1.
          2   -1    0    0  501    0  0.00000000000E+00 -0.00000000000E+00 -0.86715341515E+03  0.86715341515E+03  0.00000000000E+00 0. -1.
    2000013    1    1    2    0    0  0.10745072976E+03 -0.81889315883E+03  0.10542736415E+03  0.12632286389E+04  0.95000000000E+03 0.  0.
   -2000013    1    1    2    0    0 -0.10745072976E+03  0.81889315883E+03  0.10860892815E+04  0.16625948370E+04  0.95000000000E+03 0.  0.
<mgrwt>
<rscale>  0 0.26722146E+04</rscale>
<asrwt>0</asrwt>
<pdfrwt beam="2">  1        2 0.13340822E+00 0.26722146E+04</pdfrwt>
<pdfrwt beam="1">  1       -2 0.31671847E+00 0.26722146E+04</pdfrwt>
<totfact> 0.68124270E-01</totfact>
</mgrwt>
</event>
<event>
 4    1  0.2019612E-008  0.2939034E+04  0.7816531E-02  0.8261357E-01
         -1   -1    0    0    0  501 -0.00000000000E+00  0.00000000000E+00  0.28139870697E+04  0.28139870697E+04  0.00000000000E+00 0.  1.
          1   -1    0    0  501    0  0.00000000000E+00 -0.00000000000E+00 -0.76740963941E+03  0.76740963941E+03  0.00000000000E+00 0. -1.
    2000013    1    1    2    0    0  0.38252356770E+03 -0.91297305901E+03  0.38179147237E+03  0.14241168543E+04  0.95000000000E+03 0.  0.
   -2000013    1    1    2    0    0 -0.38252356770E+03  0.91297305901E+03  0.16647859580E+04  0.21572798549E+04  0.95000000000E+03 0.  0.
<mgrwt>
<rscale>  0 0.29390344E+04</rscale>
<asrwt>0</asrwt>
<pdfrwt beam="2">  1        1 0.11806302E+00 0.29390344E+04</pdfrwt>
<pdfrwt beam="1">  1       -1 0.43292108E+00 0.29390344E+04</pdfrwt>
<totfact> 0.85731001E-02</totfact>
</mgrwt>
</event>
<event>
 4    1  0.2019612E-008  0.3900332E+04  0.7816531E-02  0.8024960E-01
          1   -1    0    0  501    0  0.00000000000E+00  0.00000000000E+00  0.11554174492E+04  0.11554174492E+04  0.00000000000E+00 0.  1.
         -1   -1    0    0    0  501 -0.00000000000E+00 -0.00000000000E+00 -0.32915794701E+04  0.32915794701E+04  0.00000000000E+00 0. -1.
    2000013    1    1    2    0    0 -0.14833822889E+03  0.13988827424E+04 -0.21627347535E+04  0.27493269669E+04  0.95000000000E+03 0.  0.
   -2000013    1    1    2    0    0  0.14833822889E+03 -0.13988827424E+04  0.26572732583E+02  0.16976699524E+04  0.95000000000E+03 0.  0.
<mgrwt>
<rscale>  0 0.39003325E+04</rscale>
<asrwt>0</asrwt>
<pdfrwt beam="1">  1        1 0.17775653E+00 0.39003325E+04</pdfrwt>
<pdfrwt beam="2">  1       -1 0.50639684E+00 0.39003325E+04</pdfrwt>
<totfact> 0.12338974E-02</totfact>
</mgrwt>
</event>
<event>
 4    1  0.2019612E-008  0.2258969E+04  0.7816531E-02  0.8494277E-01
         -2   -1    0    0    0  501 -0.00000000000E+00  0.00000000000E+00  0.13276632923E+04  0.13276632923E+04  0.00000000000E+00 0. -1.
          2   -1    0    0  501    0  0.00000000000E+00 -0.00000000000E+00 -0.96088789141E+03  0.96088789141E+03  0.00000000000E+00 0.  1.
    2000013    1    1    2    0    0 -0.52405008530E+03  0.30874752066E+03  0.24142716929E+03  0.11535773062E+04  0.95000000000E+03 0.  0.
   -2000013    1    1    2    0    0  0.52405008530E+03 -0.30874752066E+03  0.12534823163E+03  0.11349738775E+04  0.95000000000E+03 0.  0.
<mgrwt>
<rscale>  0 0.22589693E+04</rscale>
<asrwt>0</asrwt>
<pdfrwt beam="2">  1        2 0.14782891E+00 0.22589693E+04</pdfrwt>
<pdfrwt beam="1">  1       -2 0.20425589E+00 0.22589693E+04</pdfrwt>
<totfact> 0.30295617E+00</totfact>
</mgrwt>
</event>
<event>
 4    1  0.2019612E-008  0.2508907E+04  0.7816531E-02  0.8399819E-01
          2   -1    0    0  501    0  0.00000000000E+00  0.00000000000E+00  0.82472206930E+03  0.82472206930E+03  0.00000000000E+00 0.  1.
         -2   -1    0    0    0  501 -0.00000000000E+00 -0.00000000000E+00 -0.19081016425E+04  0.19081016425E+04  0.00000000000E+00 0. -1.
    2000013    1    1    2    0    0 -0.67552387419E+03  0.28412045451E+03 -0.94056398126E+03  0.15245384679E+04  0.95000000000E+03 0.  0.
   -2000013    1    1    2    0    0  0.67552387419E+03 -0.28412045451E+03 -0.14281559192E+03  0.12082852439E+04  0.95000000000E+03 0.  0.
<mgrwt>
<rscale>  0 0.25089070E+04</rscale>
<asrwt>0</asrwt>
<pdfrwt beam="1">  1        2 0.12688032E+00 0.25089070E+04</pdfrwt>
<pdfrwt beam="2">  1       -2 0.29355410E+00 0.25089070E+04</pdfrwt>
<totfact> 0.10258546E+00</totfact>
</mgrwt>
</event>
<event>
 4    1  0.2019612E-008  0.3533243E+04  0.7816531E-02  0.8105957E-01
         -2   -1    0    0    0  501 -0.00000000000E+00  0.00000000000E+00  0.11652614353E+04  0.11652614353E+04  0.00000000000E+00 0. -1.
          2   -1    0    0  501    0  0.00000000000E+00 -0.00000000000E+00 -0.26783266369E+04  0.26783266369E+04  0.00000000000E+00 0.  1.
    2000013    1    1    2    0    0  0.14454907513E+04  0.35379979665E+03 -0.82388126608E+03  0.19483064822E+04  0.95000000000E+03 0.  0.
   -2000013    1    1    2    0    0 -0.14454907513E+04 -0.35379979665E+03 -0.68918393554E+03  0.18952815899E+04  0.95000000000E+03 0.  0.
<mgrwt>
<rscale>  0 0.35332426E+04</rscale>
<asrwt>0</asrwt>
<pdfrwt beam="2">  1        2 0.41205025E+00 0.35332426E+04</pdfrwt>
<pdfrwt beam="1">  1       -2 0.17927099E+00 0.35332426E+04</pdfrwt>
<totfact> 0.41113433E-01</totfact>
</mgrwt>
</event>
<event>
 4    1  0.2019612E-008  0.2996416E+04  0.7816531E-02  0.8244755E-01
         -2   -1    0    0    0  501 -0.00000000000E+00  0.00000000000E+00  0.69228919407E+03  0.69228919407E+03  0.00000000000E+00 0. -1.
          2   -1    0    0  501    0  0.00000000000E+00 -0.00000000000E+00 -0.32423249048E+04  0.32423249048E+04  0.00000000000E+00 0.  1.
    2000013    1    1    2    0    0  0.15037942907E+03 -0.79117001413E+03 -0.18145709783E+03  0.12585669002E+04  0.95000000000E+03 0.  0.
   -2000013    1    1    2    0    0 -0.15037942907E+03  0.79117001413E+03 -0.23685786129E+04  0.26760471986E+04  0.95000000000E+03 0.  0.
<mgrwt>
<rscale>  0 0.29964155E+04</rscale>
<asrwt>0</asrwt>
<pdfrwt beam="2">  1        2 0.49881921E+00 0.29964155E+04</pdfrwt>
<pdfrwt beam="1">  1       -2 0.10650603E+00 0.29964155E+04</pdfrwt>
<totfact> 0.73932697E-01</totfact>
</mgrwt>
</event>
<event>
 4    1  0.2019612E-008  0.2469374E+04  0.7816531E-02  0.8413978E-01
         -1   -1    0    0    0  501 -0.00000000000E+00  0.00000000000E+00  0.13289761926E+04  0.13289761926E+04  0.00000000000E+00 0. -1.
          1   -1    0    0  501    0  0.00000000000E+00 -0.00000000000E+00 -0.11470879693E+04  0.11470879693E+04  0.00000000000E+00 0.  1.
    2000013    1    1    2    0    0 -0.63297568621E+03  0.46976504134E+03  0.66073924262E+02  0.12362051516E+04  0.95000000000E+03 0.  0.
   -2000013    1    1    2    0    0  0.63297568621E+03 -0.46976504134E+03  0.11581429906E+03  0.12398590102E+04  0.95000000000E+03 0.  0.
<mgrwt>
<rscale>  0 0.24693745E+04</rscale>
<asrwt>0</asrwt>
<pdfrwt beam="2">  1        1 0.17647507E+00 0.24693745E+04</pdfrwt>
<pdfrwt beam="1">  1       -1 0.20445788E+00 0.24693745E+04</pdfrwt>
<totfact> 0.14604491E+00</totfact>
</mgrwt>
</event>
<event>
 4    1  0.2019612E-008  0.2344189E+04  0.7816531E-02  0.8460699E-01
          2   -1    0    0  501    0  0.00000000000E+00  0.00000000000E+00  0.10888250614E+04  0.10888250614E+04  0.00000000000E+00 0.  1.
         -2   -1    0    0    0  501 -0.00000000000E+00 -0.00000000000E+00 -0.12617318643E+04  0.12617318643E+04  0.00000000000E+00 0. -1.
    2000013    1    1    2    0    0  0.58295101053E+02 -0.67361641505E+03  0.32814586012E+02  0.11665051181E+04  0.95000000000E+03 0.  0.
   -2000013    1    1    2    0    0 -0.58295101053E+02  0.67361641505E+03 -0.20572138887E+03  0.11840518077E+04  0.95000000000E+03 0.  0.
<mgrwt>
<rscale>  0 0.23441888E+04</rscale>
<asrwt>0</asrwt>
<pdfrwt beam="1">  1        2 0.16751155E+00 0.23441888E+04</pdfrwt>
<pdfrwt beam="2">  1       -2 0.19411259E+00 0.23441888E+04</pdfrwt>
<totfact> 0.29088174E+00</totfact>
</mgrwt>
</event>
<event>
 4    1  0.2019612E-008  0.2651177E+04  0.7816531E-02  0.8351022E-01
         -2   -1    0    0    0  501 -0.00000000000E+00  0.00000000000E+00  0.66959131830E+03  0.66959131830E+03  0.00000000000E+00 0. -1.
          2   -1    0    0  501    0  0.00000000000E+00 -0.00000000000E+00 -0.26242654848E+04  0.26242654848E+04  0.00000000000E+00 0.  1.
    2000013    1    1    2    0    0  0.77706200176E+03 -0.48912205735E+03 -0.84341187243E+03  0.15674531343E+04  0.95000000000E+03 0.  0.
   -2000013    1    1    2    0    0 -0.77706200176E+03  0.48912205735E+03 -0.11112622941E+04  0.17264036689E+04  0.95000000000E+03 0.  0.
<mgrwt>
<rscale>  0 0.26511774E+04</rscale>
<asrwt>0</asrwt>
<pdfrwt beam="2">  1        2 0.40373316E+00 0.26511774E+04</pdfrwt>
<pdfrwt beam="1">  1       -2 0.10301405E+00 0.26511774E+04</pdfrwt>
<totfact> 0.19954991E+00</totfact>
</mgrwt>
</event>
<event>
 4    1  0.2019612E-008  0.2282680E+04  0.7816531E-02  0.8484782E-01
          2   -1    0    0  501    0  0.00000000000E+00  0.00000000000E+00  0.16108494025E+04  0.16108494025E+04  0.00000000000E+00 0.  1.
         -2   -1    0    0    0  501 -0.00000000000E+00 -0.00000000000E+00 -0.80867679587E+03  0.80867679587E+03  0.00000000000E+00 0. -1.
    2000013    1    1    2    0    0  0.25318226843E+03  0.21645734747E+02 -0.21294111596E+03  0.10061877150E+04  0.95000000000E+03 0.  0.
   -2000013    1    1    2    0    0 -0.25318226843E+03 -0.21645734747E+02  0.10151137226E+04  0.14133384834E+04  0.95000000000E+03 0.  0.
<mgrwt>
<rscale>  0 0.22826796E+04</rscale>
<asrwt>0</asrwt>
<pdfrwt beam="1">  1        2 0.24782298E+00 0.22826796E+04</pdfrwt>
<pdfrwt beam="2">  1       -2 0.12441182E+00 0.22826796E+04</pdfrwt>
<totfact> 0.48449701E+00</totfact>
</mgrwt>
</event>
<event>
 4    1  0.2019612E-008  0.2087702E+04  0.7816531E-02  0.8566680E-01
          2   -1    0    0  501    0  0.00000000000E+00  0.00000000000E+00  0.91272318558E+03  0.91272318558E+03  0.00000000000E+00 0.  1.
         -2   -1    0    0    0  501 -0.00000000000E+00 -0.00000000000E+00 -0.11938171622E+04  0.11938171622E+04  0.00000000000E+00 0. -1.
    2000013    1    1    2    0    0  0.37585991342E+03 -0.11539855332E+03 -0.32255511295E+03  0.10775570990E+04  0.95000000000E+03 0.  0.
   -2000013    1    1    2    0    0 -0.37585991342E+03  0.11539855332E+03  0.41461136294E+02  0.10289832489E+04  0.95000000000E+03 0.  0.
<mgrwt>
<rscale>  0 0.20877017E+04</rscale>
<asrwt>0</asrwt>
<pdfrwt beam="1">  1        2 0.14041895E+00 0.20877017E+04</pdfrwt>
<pdfrwt beam="2">  1       -2 0.18366418E+00 0.20877017E+04</pdfrwt>
<totfact> 0.45359550E+00</totfact>
</mgrwt>
</event>
<event>
 4    1  0.2019612E-008  0.2407331E+04  0.7816531E-02  0.8436764E-01
          2   -1    0    0  501    0  0.00000000000E+00  0.00000000000E+00  0.32753853612E+04  0.32753853612E+04  0.00000000000E+00 0.  1.
         -2   -1    0    0    0  501 -0.00000000000E+00 -0.00000000000E+00 -0.44233275491E+03  0.44233275491E+03  0.00000000000E+00 0. -1.
    2000013    1    1    2    0    0 -0.71339517398E+03  0.19159499706E+03  0.13765846948E+04  0.18284219259E+04  0.95000000000E+03 0.  0.
   -2000013    1    1    2    0    0  0.71339517398E+03 -0.19159499706E+03  0.14564679115E+04  0.18892961902E+04  0.95000000000E+03 0.  0.
<mgrwt>
<rscale>  0 0.24073307E+04</rscale>
<asrwt>0</asrwt>
<pdfrwt beam="1">  1        2 0.50390543E+00 0.24073307E+04</pdfrwt>
<pdfrwt beam="2">  1       -2 0.68051195E-01 0.24073307E+04</pdfrwt>
<totfact> 0.20573544E+00</totfact>
</mgrwt>
</event>
<event>
 4    1  0.2019612E-008  0.2110840E+04  0.7816531E-02  0.8556483E-01
          2   -1    0    0  501    0  0.00000000000E+00  0.00000000000E+00  0.25756733038E+04  0.25756733038E+04  0.00000000000E+00 0.  1.
         -2   -1    0    0    0  501 -0.00000000000E+00 -0.00000000000E+00 -0.43247387256E+03  0.43247387256E+03  0.00000000000E+00 0. -1.
    2000013    1    1    2    0    0  0.33608807754E+03  0.26709489942E+03  0.13062714547E+04  0.16712689773E+04  0.95000000000E+03 0.  0.
   -2000013    1    1    2    0    0 -0.33608807754E+03 -0.26709489942E+03  0.83692797652E+03  0.13368781990E+04  0.95000000000E+03 0.  0.
<mgrwt>
<rscale>  0 0.21108400E+04</rscale>
<asrwt>0</asrwt>
<pdfrwt beam="1">  1        2 0.39625742E+00 0.21108400E+04</pdfrwt>
<pdfrwt beam="2">  1       -2 0.66534444E-01 0.21108400E+04</pdfrwt>
<totfact> 0.60137732E+00</totfact>
</mgrwt>
</event>
<event>
 4    1  0.2019612E-008  0.2265175E+04  0.7816531E-02  0.8491780E-01
         -1   -1    0    0    0  501 -0.00000000000E+00  0.00000000000E+00  0.47854463697E+03  0.47854463697E+03  0.00000000000E+00 0. -1.
          1   -1    0    0  501    0  0.00000000000E+00 -0.00000000000E+00 -0.26805331756E+04  0.26805331756E+04  0.00000000000E+00 0.  1.
    2000013    1    1    2    0    0  0.16232264801E+03 -0.53820803457E+03 -0.14544665328E+04  0.18259215278E+04  0.95000000000E+03 0.  0.
   -2000013    1    1    2    0    0 -0.16232264801E+03  0.53820803457E+03 -0.74752200586E+03  0.13331562848E+04  0.95000000000E+03 0.  0.
<mgrwt>
<rscale>  0 0.22651753E+04</rscale>
<asrwt>0</asrwt>
<pdfrwt beam="2">  1        1 0.41238972E+00 0.22651753E+04</pdfrwt>
<pdfrwt beam="1">  1       -1 0.73622251E-01 0.22651753E+04</pdfrwt>
<totfact> 0.17069249E+00</totfact>
</mgrwt>
</event>
<event>
 4    1  0.2019612E-008  0.2716823E+04  0.7816531E-02  0.8329567E-01
         -2   -1    0    0    0  501 -0.00000000000E+00  0.00000000000E+00  0.11683583537E+04  0.11683583537E+04  0.00000000000E+00 0. -1.
          2   -1    0    0  501    0  0.00000000000E+00 -0.00000000000E+00 -0.15793795381E+04  0.15793795381E+04  0.00000000000E+00 0.  1.
    2000013    1    1    2    0    0  0.81461575002E+03 -0.25467760299E+03  0.26270639758E+03  0.13038305691E+04  0.95000000000E+03 0.  0.
   -2000013    1    1    2    0    0 -0.81461575002E+03  0.25467760299E+03 -0.67372758207E+03  0.14439073227E+04  0.95000000000E+03 0.  0.
<mgrwt>
<rscale>  0 0.27168226E+04</rscale>
<asrwt>0</asrwt>
<pdfrwt beam="2">  1        2 0.24298147E+00 0.27168226E+04</pdfrwt>
<pdfrwt beam="1">  1       -2 0.17974744E+00 0.27168226E+04</pdfrwt>
<totfact> 0.18269756E+00</totfact>
</mgrwt>
</event>
<event>
 4    1  0.2019612E-008  0.3820379E+04  0.7816531E-02  0.8041796E-01
         -2   -1    0    0    0  501 -0.00000000000E+00  0.00000000000E+00  0.19569131978E+04  0.19569131978E+04  0.00000000000E+00 0. -1.
          2   -1    0    0  501    0  0.00000000000E+00 -0.00000000000E+00 -0.18645817242E+04  0.18645817242E+04  0.00000000000E+00 0.  1.
    2000013    1    1    2    0    0 -0.42569101701E+03 -0.15575468820E+04 -0.32698401324E+03  0.19017317572E+04  0.95000000000E+03 0.  0.
   -2000013    1    1    2    0    0  0.42569101701E+03  0.15575468820E+04  0.41931548681E+03  0.19197631648E+04  0.95000000000E+03 0.  0.
<mgrwt>
<rscale>  0 0.38203793E+04</rscale>
<asrwt>0</asrwt>
<pdfrwt beam="2">  1        2 0.28685873E+00 0.38203793E+04</pdfrwt>
<pdfrwt beam="1">  1       -2 0.30106357E+00 0.38203793E+04</pdfrwt>
<totfact> 0.19912839E-01</totfact>
</mgrwt>
</event>
<event>
 4    1  0.2019612E-008  0.2135689E+04  0.7816531E-02  0.8545683E-01
          2   -1    0    0  501    0  0.00000000000E+00  0.00000000000E+00  0.16783733099E+04  0.16783733099E+04  0.00000000000E+00 0.  1.
         -2   -1    0    0    0  501 -0.00000000000E+00 -0.00000000000E+00 -0.67940327301E+03  0.67940327301E+03  0.00000000000E+00 0. -1.
    2000013    1    1    2    0    0 -0.26341837749E+03  0.32967361188E+03  0.76927051167E+03  0.12931941278E+04  0.95000000000E+03 0.  0.
   -2000013    1    1    2    0    0  0.26341837749E+03 -0.32967361188E+03  0.22969952525E+03  0.10645824552E+04  0.95000000000E+03 0.  0.
<mgrwt>
<rscale>  0 0.21356894E+04</rscale>
<asrwt>0</asrwt>
<pdfrwt beam="1">  1        2 0.25821128E+00 0.21356894E+04</pdfrwt>
<pdfrwt beam="2">  1       -2 0.10452358E+00 0.21356894E+04</pdfrwt>
<totfact> 0.68855844E+00</totfact>
</mgrwt>
</event>
<event>
 4    1  0.2019612E-008  0.2870471E+04  0.7816531E-02  0.8281718E-01
         -2   -1    0    0    0  501 -0.00000000000E+00  0.00000000000E+00  0.98152610400E+03  0.98152610400E+03  0.00000000000E+00 0. -1.
          2   -1    0    0  501    0  0.00000000000E+00 -0.00000000000E+00 -0.20986722023E+04  0.20986722023E+04  0.00000000000E+00 0.  1.
    2000013    1    1    2    0    0 -0.49050284193E+03  0.94657099551E+03 -0.71337660328E+03  0.15962443001E+04  0.95000000000E+03 0.  0.
   -2000013    1    1    2    0    0  0.49050284193E+03 -0.94657099551E+03 -0.40376949505E+03  0.14839540062E+04  0.95000000000E+03 0.  0.
<mgrwt>
<rscale>  0 0.28704714E+04</rscale>
<asrwt>0</asrwt>
<pdfrwt beam="2">  1        2 0.32287265E+00 0.28704714E+04</pdfrwt>
<pdfrwt beam="1">  1       -2 0.15100402E+00 0.28704714E+04</pdfrwt>
<totfact> 0.14989586E+00</totfact>
</mgrwt>
</event>
<event>
 4    1  0.2019612E-008  0.2235917E+04  0.7816531E-02  0.8503626E-01
         -2   -1    0    0    0  501 -0.00000000000E+00  0.00000000000E+00  0.14537507694E+04  0.14537507694E+04  0.00000000000E+00 0. -1.
          2   -1    0    0  501    0  0.00000000000E+00 -0.00000000000E+00 -0.85972837632E+03  0.85972837632E+03  0.00000000000E+00 0.  1.
    2000013    1    1    2    0    0 -0.28287719589E+02  0.51540865767E+03  0.27434518556E+01  0.10811816711E+04  0.95000000000E+03 0.  0.
   -2000013    1    1    2    0    0  0.28287719589E+02 -0.51540865767E+03  0.59127894120E+03  0.12322974746E+04  0.95000000000E+03 0.  0.
<mgrwt>
<rscale>  0 0.22359166E+04</rscale>
<asrwt>0</asrwt>
<pdfrwt beam="2">  1        2 0.13226590E+00 0.22359166E+04</pdfrwt>
<pdfrwt beam="1">  1       -2 0.22365396E+00 0.22359166E+04</pdfrwt>
<totfact> 0.26679056E+00</totfact>
</mgrwt>
</event>
<event>
 4    1  0.2019612E-008  0.2651559E+04  0.7816531E-02  0.8350896E-01
          2   -1    0    0  501    0  0.00000000000E+00  0.00000000000E+00  0.21823849639E+04  0.21823849639E+04  0.00000000000E+00 0.  1.
         -2   -1    0    0    0  501 -0.00000000000E+00 -0.00000000000E+00 -0.80539947609E+03  0.80539947609E+03  0.00000000000E+00 0. -1.
    2000013    1    1    2    0    0  0.69422378580E+03 -0.58975613655E+03  0.86819126347E+03  0.15767101938E+04  0.95000000000E+03 0.  0.
   -2000013    1    1    2    0    0 -0.69422378580E+03  0.58975613655E+03  0.50879422430E+03  0.14110742461E+04  0.95000000000E+03 0.  0.
<mgrwt>
<rscale>  0 0.26515593E+04</rscale>
<asrwt>0</asrwt>
<pdfrwt beam="1">  1        2 0.33575153E+00 0.26515593E+04</pdfrwt>
<pdfrwt beam="2">  1       -2 0.12390761E+00 0.26515593E+04</pdfrwt>
<totfact> 0.22806842E+00</totfact>
</mgrwt>
</event>
<event>
 4    1  0.2019612E-008  0.2371161E+04  0.7816531E-02  0.8450380E-01
         -2   -1    0    0    0  501 -0.00000000000E+00  0.00000000000E+00  0.75870155684E+03  0.75870155684E+03  0.00000000000E+00 0. -1.
          2   -1    0    0  501    0  0.00000000000E+00 -0.00000000000E+00 -0.18526398936E+04  0.18526398936E+04  0.00000000000E+00 0.  1.
    2000013    1    1    2    0    0 -0.34025857234E+03 -0.38686771108E+03 -0.10086826203E+02  0.10807609662E+04  0.95000000000E+03 0.  0.
   -2000013    1    1    2    0    0  0.34025857234E+03  0.38686771108E+03 -0.10838515106E+04  0.15305804843E+04  0.95000000000E+03 0.  0.
<mgrwt>
<rscale>  0 0.23711607E+04</rscale>
<asrwt>0</asrwt>
<pdfrwt beam="2">  1        2 0.28502152E+00 0.23711607E+04</pdfrwt>
<pdfrwt beam="1">  1       -2 0.11672332E+00 0.23711607E+04</pdfrwt>
<totfact> 0.41345819E+00</totfact>
</mgrwt>
</event>
<event>
 4    1  0.2019612E-008  0.2483332E+04  0.7816531E-02  0.8408948E-01
          2   -1    0    0  501    0  0.00000000000E+00  0.00000000000E+00  0.57505388876E+03  0.57505388876E+03  0.00000000000E+00 0.  1.
         -2   -1    0    0    0  501 -0.00000000000E+00 -0.00000000000E+00 -0.26810270039E+04  0.26810270039E+04  0.00000000000E+00 0. -1.
    2000013    1    1    2    0    0  0.39740259894E+02 -0.76425208280E+03 -0.74950013528E+03  0.14317510213E+04  0.95000000000E+03 0.  0.
   -2000013    1    1    2    0    0 -0.39740259894E+02  0.76425208280E+03 -0.13564729799E+04  0.18243298713E+04  0.95000000000E+03 0.  0.
<mgrwt>
<rscale>  0 0.24833324E+04</rscale>
<asrwt>0</asrwt>
<pdfrwt beam="1">  1        2 0.88469828E-01 0.24833324E+04</pdfrwt>
<pdfrwt beam="2">  1       -2 0.41246570E+00 0.24833324E+04</pdfrwt>
<totfact> 0.28668134E-01</totfact>
</mgrwt>
</event>
<event>
 4    1  0.2019612E-008  0.2640395E+04  0.7816531E-02  0.8354608E-01
          2   -1    0    0  501    0  0.00000000000E+00  0.00000000000E+00  0.18752175280E+04  0.18752175280E+04  0.00000000000E+00 0.  1.
         -2   -1    0    0    0  501 -0.00000000000E+00 -0.00000000000E+00 -0.92945036282E+03  0.92945036282E+03  0.00000000000E+00 0. -1.
    2000013    1    1    2    0    0  0.30658357987E+03  0.70967183338E+03  0.99628091236E+03  0.15788297118E+04  0.95000000000E+03 0.  0.
   -2000013    1    1    2    0    0 -0.30658357987E+03 -0.70967183338E+03 -0.50513747167E+02  0.12258381790E+04  0.95000000000E+03 0.  0.
<mgrwt>
<rscale>  0 0.26403951E+04</rscale>
<asrwt>0</asrwt>
<pdfrwt beam="1">  1        2 0.28849500E+00 0.26403951E+04</pdfrwt>
<pdfrwt beam="2">  1       -2 0.14299236E+00 0.26403951E+04</pdfrwt>
<totfact> 0.23488137E+00</totfact>
</mgrwt>
</event>
<event>
 4    1  0.2019612E-008  0.3746178E+04  0.7816531E-02  0.8057805E-01
          2   -1    0    0  501    0  0.00000000000E+00  0.00000000000E+00  0.28346727024E+04  0.28346727024E+04  0.00000000000E+00 0.  1.
         -2   -1    0    0    0  501 -0.00000000000E+00 -0.00000000000E+00 -0.12376955619E+04  0.12376955619E+04  0.00000000000E+00 0. -1.
    2000013    1    1    2    0    0 -0.98631230430E+03  0.13562660686E+03 -0.58288781822E+03  0.14944780851E+04  0.95000000000E+03 0.  0.
   -2000013    1    1    2    0    0  0.98631230430E+03 -0.13562660686E+03  0.21798649587E+04  0.25778901793E+04  0.95000000000E+03 0.  0.
<mgrwt>
<rscale>  0 0.37461777E+04</rscale>
<asrwt>0</asrwt>
<pdfrwt beam="1">  1        2 0.43610349E+00 0.37461777E+04</pdfrwt>
<pdfrwt beam="2">  1       -2 0.19041470E+00 0.37461777E+04</pdfrwt>
<totfact> 0.27313089E-01</totfact>
</mgrwt>
</event>
<event>
 4    1  0.2019612E-008  0.2476049E+04  0.7816531E-02  0.8411568E-01
          2   -1    0    0  501    0  0.00000000000E+00  0.00000000000E+00  0.23577569530E+04  0.23577569530E+04  0.00000000000E+00 0.  1.
         -2   -1    0    0    0  501 -0.00000000000E+00 -0.00000000000E+00 -0.65006876673E+03  0.65006876673E+03  0.00000000000E+00 0. -1.
    2000013    1    1    2    0    0 -0.44724414829E+03 -0.52029516857E+03  0.13389456645E+04  0.17793284922E+04  0.95000000000E+03 0.  0.
   -2000013    1    1    2    0    0  0.44724414829E+03  0.52029516857E+03  0.36874252171E+03  0.12284972275E+04  0.95000000000E+03 0.  0.
<mgrwt>
<rscale>  0 0.24760486E+04</rscale>
<asrwt>0</asrwt>
<pdfrwt beam="1">  1        2 0.36273184E+00 0.24760486E+04</pdfrwt>
<pdfrwt beam="2">  1       -2 0.10001058E+00 0.24760486E+04</pdfrwt>
<totfact> 0.31012296E+00</totfact>
</mgrwt>
</event>
<event>
 4    1  0.2019612E-008  0.1989428E+04  0.7816531E-02  0.8611579E-01
         -2   -1    0    0    0  501 -0.00000000000E+00  0.00000000000E+00  0.53218026861E+03  0.53218026861E+03  0.00000000000E+00 0.  1.
          2   -1    0    0  501    0  0.00000000000E+00 -0.00000000000E+00 -0.18592499251E+04  0.18592499251E+04  0.00000000000E+00 0. -1.
    2000013    1    1    2    0    0  0.41958066197E+02 -0.26376720037E+03 -0.51328816456E+03  0.11123391368E+04  0.95000000000E+03 0.  0.
   -2000013    1    1    2    0    0 -0.41958066197E+02  0.26376720037E+03 -0.81378149190E+03  0.12790910569E+04  0.95000000000E+03 0.  0.
<mgrwt>
<rscale>  0 0.19894282E+04</rscale>
<asrwt>0</asrwt>
<pdfrwt beam="2">  1        2 0.28603844E+00 0.19894282E+04</pdfrwt>
<pdfrwt beam="1">  1       -2 0.81873890E-01 0.19894282E+04</pdfrwt>
<totfact> 0.97577483E+00</totfact>
</mgrwt>
</event>
<event>
 4    1  0.2019612E-008  0.3486799E+04  0.7816531E-02  0.8116925E-01
          2   -1    0    0  501    0  0.00000000000E+00  0.00000000000E+00  0.18612188032E+04  0.18612188032E+04  0.00000000000E+00 0.  1.
         -2   -1    0    0    0  501 -0.00000000000E+00 -0.00000000000E+00 -0.16330388648E+04  0.16330388648E+04  0.00000000000E+00 0. -1.
    2000013    1    1    2    0    0  0.41255167717E+03  0.13996906386E+04  0.26668800252E+02  0.17414201087E+04  0.95000000000E+03 0.  0.
   -2000013    1    1    2    0    0 -0.41255167717E+03 -0.13996906386E+04  0.20151113817E+03  0.17528375592E+04  0.95000000000E+03 0.  0.
<mgrwt>
<rscale>  0 0.34867995E+04</rscale>
<asrwt>0</asrwt>
<pdfrwt beam="1">  1        2 0.28634136E+00 0.34867995E+04</pdfrwt>
<pdfrwt beam="2">  1       -2 0.25123675E+00 0.34867995E+04</pdfrwt>
<totfact> 0.41449660E-01</totfact>
</mgrwt>
</event>
<event>
 4    1  0.2019612E-008  0.2634309E+04  0.7816531E-02  0.8356640E-01
          2   -1    0    0  501    0  0.00000000000E+00  0.00000000000E+00  0.31776209360E+04  0.31776209360E+04  0.00000000000E+00 0.  1.
         -2   -1    0    0    0  501 -0.00000000000E+00 -0.00000000000E+00 -0.54597324919E+03  0.54597324919E+03  0.00000000000E+00 0. -1.
    2000013    1    1    2    0    0  0.73448461556E+03 -0.39948607348E+03  0.79967538858E+03  0.14970095192E+04  0.95000000000E+03 0.  0.
   -2000013    1    1    2    0    0 -0.73448461556E+03  0.39948607348E+03  0.18319722982E+04  0.22265846660E+04  0.95000000000E+03 0.  0.
<mgrwt>
<rscale>  0 0.26343090E+04</rscale>
<asrwt>0</asrwt>
<pdfrwt beam="1">  1        2 0.48886475E+00 0.26343090E+04</pdfrwt>
<pdfrwt beam="2">  1       -2 0.83995886E-01 0.26343090E+04</pdfrwt>
<totfact> 0.14643480E+00</totfact>
</mgrwt>
</event>
<event>
 4    1  0.2019612E-008  0.2921036E+04  0.7816531E-02  0.8266646E-01
         -2   -1    0    0    0  501 -0.00000000000E+00  0.00000000000E+00  0.88528170818E+03  0.88528170818E+03  0.00000000000E+00 0. -1.
          2   -1    0    0  501    0  0.00000000000E+00 -0.00000000000E+00 -0.24095296489E+04  0.24095296489E+04  0.00000000000E+00 0.  1.
    2000013    1    1    2    0    0 -0.83233360618E+03 -0.40116887804E+03 -0.14546002701E+04  0.19677595499E+04  0.95000000000E+03 0.  0.
   -2000013    1    1    2    0    0  0.83233360618E+03  0.40116887804E+03 -0.69647670605E+02  0.13270518071E+04  0.95000000000E+03 0.  0.
<mgrwt>
<rscale>  0 0.29210358E+04</rscale>
<asrwt>0</asrwt>
<pdfrwt beam="2">  1        2 0.37069686E+00 0.29210358E+04</pdfrwt>
<pdfrwt beam="1">  1       -2 0.13619719E+00 0.29210358E+04</pdfrwt>
<totfact> 0.13043470E+00</totfact>
</mgrwt>
</event>
<event>
 4    1  0.2019612E-008  0.3417957E+04  0.7816531E-02  0.8133513E-01
         -1   -1    0    0    0  501 -0.00000000000E+00  0.00000000000E+00  0.12354864922E+04  0.12354864922E+04  0.00000000000E+00 0.  1.
          1   -1    0    0  501    0  0.00000000000E+00 -0.00000000000E+00 -0.23639328828E+04  0.23639328828E+04  0.00000000000E+00 0. -1.
    2000013    1    1    2    0    0 -0.13167217539E+04  0.45853710775E+03 -0.27756826096E+03  0.17098411025E+04  0.95000000000E+03 0.  0.
   -2000013    1    1    2    0    0  0.13167217539E+04 -0.45853710775E+03 -0.85087812960E+03  0.18895782725E+04  0.95000000000E+03 0.  0.
<mgrwt>
<rscale>  0 0.34179568E+04</rscale>
<asrwt>0</asrwt>
<pdfrwt beam="2">  1        1 0.36368198E+00 0.34179568E+04</pdfrwt>
<pdfrwt beam="1">  1       -1 0.19007485E+00 0.34179568E+04</pdfrwt>
<totfact> 0.24385844E-01</totfact>
</mgrwt>
</event>
<event>
 4    1  0.2019612E-008  0.2514118E+04  0.7816531E-02  0.8397973E-01
         -1   -1    0    0    0  501 -0.00000000000E+00  0.00000000000E+00  0.83492190561E+03  0.83492190561E+03  0.00000000000E+00 0. -1.
          1   -1    0    0  501    0  0.00000000000E+00 -0.00000000000E+00 -0.18926289301E+04  0.18926289301E+04  0.00000000000E+00 0.  1.
    2000013    1    1    2    0    0 -0.14592851636E+03 -0.52750204628E+03 -0.11959915329E+04  0.16224824460E+04  0.95000000000E+03 0.  0.
   -2000013    1    1    2    0    0  0.14592851636E+03  0.52750204628E+03  0.13828450843E+03  0.11050683897E+04  0.95000000000E+03 0.  0.
<mgrwt>
<rscale>  0 0.25141180E+04</rscale>
<asrwt>0</asrwt>
<pdfrwt beam="2">  1        1 0.29117368E+00 0.25141180E+04</pdfrwt>
<pdfrwt beam="1">  1       -1 0.12844952E+00 0.25141180E+04</pdfrwt>
<totfact> 0.16345781E+00</totfact>
</mgrwt>
</event>
<event>
 4    1  0.2019612E-008  0.2447794E+04  0.7816531E-02  0.8421824E-01
         -1   -1    0    0    0  501 -0.00000000000E+00  0.00000000000E+00  0.99507280109E+03  0.99507280109E+03  0.00000000000E+00 0. -1.
          1   -1    0    0  501    0  0.00000000000E+00 -0.00000000000E+00 -0.15053405538E+04  0.15053405538E+04  0.00000000000E+00 0.  1.
    2000013    1    1    2    0    0  0.37381761684E+03 -0.54039517558E+03  0.15810782979E+03  0.11658750543E+04  0.95000000000E+03 0.  0.
   -2000013    1    1    2    0    0 -0.37381761684E+03  0.54039517558E+03 -0.66837558251E+03  0.13345383006E+04  0.95000000000E+03 0.  0.
<mgrwt>
<rscale>  0 0.24477937E+04</rscale>
<asrwt>0</asrwt>
<pdfrwt beam="2">  1        1 0.23159086E+00 0.24477937E+04</pdfrwt>
<pdfrwt beam="1">  1       -1 0.15308812E+00 0.24477937E+04</pdfrwt>
<totfact> 0.19110370E+00</totfact>
</mgrwt>
</event>
<event>
 4    1  0.2019612E-008  0.2765162E+04  0.7816531E-02  0.8314166E-01
         -2   -1    0    0    0  501 -0.00000000000E+00  0.00000000000E+00  0.68648333860E+03  0.68648333860E+03  0.00000000000E+00 0. -1.
          2   -1    0    0  501    0  0.00000000000E+00 -0.00000000000E+00 -0.27845257544E+04  0.27845257544E+04  0.00000000000E+00 0.  1.
    2000013    1    1    2    0    0  0.59552549506E+03  0.69272098712E+03 -0.52463085243E+03  0.14185381604E+04  0.95000000000E+03 0.  0.
   -2000013    1    1    2    0    0 -0.59552549506E+03 -0.69272098712E+03 -0.15734115633E+04  0.20524709325E+04  0.95000000000E+03 0.  0.
<mgrwt>
<rscale>  0 0.27651622E+04</rscale>
<asrwt>0</asrwt>
<pdfrwt beam="2">  1        2 0.42838858E+00 0.27651622E+04</pdfrwt>
<pdfrwt beam="1">  1       -2 0.10561282E+00 0.27651622E+04</pdfrwt>
<totfact> 0.14940512E+00</totfact>
</mgrwt>
</event>
<event>
 4    1  0.2019612E-008  0.2679183E+04  0.7816531E-02  0.8341791E-01
          2   -1    0    0  501    0  0.00000000000E+00  0.00000000000E+00  0.16251698026E+04  0.16251698026E+04  0.00000000000E+00 0.  1.
         -2   -1    0    0    0  501 -0.00000000000E+00 -0.00000000000E+00 -0.11041958220E+04  0.11041958220E+04  0.00000000000E+00 0. -1.
    2000013    1    1    2    0    0  0.86884126279E+03 -0.51170921372E+02  0.63410158869E+03  0.14359973635E+04  0.95000000000E+03 0.  0.
   -2000013    1    1    2    0    0 -0.86884126279E+03  0.51170921372E+02 -0.11312760816E+03  0.12933682611E+04  0.95000000000E+03 0.  0.
<mgrwt>
<rscale>  0 0.26791832E+04</rscale>
<asrwt>0</asrwt>
<pdfrwt beam="1">  1        2 0.25002612E+00 0.26791832E+04</pdfrwt>
<pdfrwt beam="2">  1       -2 0.16987628E+00 0.26791832E+04</pdfrwt>
<totfact> 0.20265590E+00</totfact>
</mgrwt>
</event>
<event>
 4    1  0.2019612E-008  0.2139082E+04  0.7816531E-02  0.8544220E-01
          2   -1    0    0  501    0  0.00000000000E+00  0.00000000000E+00  0.27186221285E+04  0.27186221285E+04  0.00000000000E+00 0.  1.
         -2   -1    0    0    0  501 -0.00000000000E+00 -0.00000000000E+00 -0.42077131940E+03  0.42077131940E+03  0.00000000000E+00 0. -1.
    2000013    1    1    2    0    0 -0.32632424481E+03  0.32669406051E+03  0.13953907664E+04  0.17500948297E+04  0.95000000000E+03 0.  0.
   -2000013    1    1    2    0    0  0.32632424481E+03 -0.32669406051E+03  0.90246004270E+03  0.13892986182E+04  0.95000000000E+03 0.  0.
<mgrwt>
<rscale>  0 0.21390823E+04</rscale>
<asrwt>0</asrwt>
<pdfrwt beam="1">  1        2 0.41824955E+00 0.21390823E+04</pdfrwt>
<pdfrwt beam="2">  1       -2 0.64734051E-01 0.21390823E+04</pdfrwt>
<totfact> 0.52404618E+00</totfact>
</mgrwt>
</event>
<event>
 4    1  0.2019612E-008  0.4368942E+04  0.7816531E-02  0.7933992E-01
          2   -1    0    0  501    0  0.00000000000E+00  0.00000000000E+00  0.20169299727E+04  0.20169299727E+04  0.00000000000E+00 0.  1.
         -2   -1    0    0    0  501 -0.00000000000E+00 -0.00000000000E+00 -0.23659287512E+04  0.23659287512E+04  0.00000000000E+00 0. -1.
    2000013    1    1    2    0    0  0.11523520012E+04 -0.11769176205E+04 -0.12532677852E+04  0.22773296559E+04  0.95000000000E+03 0.  0.
   -2000013    1    1    2    0    0 -0.11523520012E+04  0.11769176205E+04  0.90426900668E+03  0.21055290681E+04  0.95000000000E+03 0.  0.
<mgrwt>
<rscale>  0 0.43689416E+04</rscale>
<asrwt>0</asrwt>
<pdfrwt beam="1">  1        2 0.31029692E+00 0.43689416E+04</pdfrwt>
<pdfrwt beam="2">  1       -2 0.36398904E+00 0.43689416E+04</pdfrwt>
<totfact> 0.63492232E-02</totfact>
</mgrwt>
</event>
<event>
 4    1  0.2019612E-008  0.2614995E+04  0.7816531E-02  0.8363126E-01
         -2   -1    0    0    0  501 -0.00000000000E+00  0.00000000000E+00  0.47556236471E+03  0.47556236471E+03  0.00000000000E+00 0. -1.
          2   -1    0    0  501    0  0.00000000000E+00 -0.00000000000E+00 -0.35947951895E+04  0.35947951895E+04  0.00000000000E+00 0.  1.
    2000013    1    1    2    0    0  0.71271535681E+03 -0.50379790034E+03 -0.18908125082E+04  0.22889839330E+04  0.95000000000E+03 0.  0.
   -2000013    1    1    2    0    0 -0.71271535681E+03  0.50379790034E+03 -0.12284203166E+04  0.17813736212E+04  0.95000000000E+03 0.  0.
<mgrwt>
<rscale>  0 0.26149947E+04</rscale>
<asrwt>0</asrwt>
<pdfrwt beam="2">  1        2 0.55304540E+00 0.26149947E+04</pdfrwt>
<pdfrwt beam="1">  1       -2 0.73163442E-01 0.26149947E+04</pdfrwt>
<totfact> 0.10387081E+00</totfact>
</mgrwt>
</event>
<event>
 4    1  0.2019612E-008  0.2384023E+04  0.7816531E-02  0.8445509E-01
         -1   -1    0    0    0  501 -0.00000000000E+00  0.00000000000E+00  0.10326048686E+04  0.10326048686E+04  0.00000000000E+00 0. -1.
          1   -1    0    0  501    0  0.00000000000E+00 -0.00000000000E+00 -0.13760266395E+04  0.13760266395E+04  0.00000000000E+00 0.  1.
    2000013    1    1    2    0    0  0.70131844476E+03  0.15276702113E+03 -0.22892120517E+03  0.12124727798E+04  0.95000000000E+03 0.  0.
   -2000013    1    1    2    0    0 -0.70131844476E+03 -0.15276702113E+03 -0.11450056576E+03  0.11961587283E+04  0.95000000000E+03 0.  0.
<mgrwt>
<rscale>  0 0.23840233E+04</rscale>
<asrwt>0</asrwt>
<pdfrwt beam="2">  1        1 0.21169641E+00 0.23840233E+04</pdfrwt>
<pdfrwt beam="1">  1       -1 0.15886229E+00 0.23840233E+04</pdfrwt>
<totfact> 0.21369312E+00</totfact>
</mgrwt>
</event>
<event>
 4    1  0.2019612E-008  0.2395565E+04  0.7816531E-02  0.8441166E-01
         -1   -1    0    0    0  501 -0.00000000000E+00  0.00000000000E+00  0.50586120583E+03  0.50586120583E+03  0.00000000000E+00 0. -1.
          1   -1    0    0  501    0  0.00000000000E+00 -0.00000000000E+00 -0.28361198585E+04  0.28361198585E+04  0.00000000000E+00 0.  1.
    2000013    1    1    2    0    0  0.21747643523E+03  0.61925004188E+03 -0.16094025106E+04  0.19807682993E+04  0.95000000000E+03 0.  0.
   -2000013    1    1    2    0    0 -0.21747643523E+03 -0.61925004188E+03 -0.72085614208E+03  0.13612127651E+04  0.95000000000E+03 0.  0.
<mgrwt>
<rscale>  0 0.23955651E+04</rscale>
<asrwt>0</asrwt>
<pdfrwt beam="2">  1        1 0.43632613E+00 0.23955651E+04</pdfrwt>
<pdfrwt beam="1">  1       -1 0.77824801E-01 0.23955651E+04</pdfrwt>
<totfact> 0.11644151E+00</totfact>
</mgrwt>
</event>
<event>
 4    1  0.2019612E-008  0.2522441E+04  0.7816531E-02  0.8395034E-01
          2   -1    0    0  501    0  0.00000000000E+00  0.00000000000E+00  0.11804095762E+04  0.11804095762E+04  0.00000000000E+00 0.  1.
         -2   -1    0    0    0  501 -0.00000000000E+00 -0.00000000000E+00 -0.13475634051E+04  0.13475634051E+04  0.00000000000E+00 0. -1.
    2000013    1    1    2    0    0 -0.73304274439E+03 -0.38835592077E+03 -0.85763822845E+02  0.12641310927E+04  0.95000000000E+03 0.  0.
   -2000013    1    1    2    0    0  0.73304274439E+03  0.38835592077E+03 -0.81390005982E+02  0.12638418886E+04  0.95000000000E+03 0.  0.
<mgrwt>
<rscale>  0 0.25224407E+04</rscale>
<asrwt>0</asrwt>
<pdfrwt beam="1">  1        2 0.18160147E+00 0.25224407E+04</pdfrwt>
<pdfrwt beam="2">  1       -2 0.20731745E+00 0.25224407E+04</pdfrwt>
<totfact> 0.20643775E+00</totfact>
</mgrwt>
</event>
<event>
 4    1  0.2019612E-008  0.2771068E+04  0.7816531E-02  0.8312307E-01
          2   -1    0    0  501    0  0.00000000000E+00  0.00000000000E+00  0.22452514666E+04  0.22452514666E+04  0.00000000000E+00 0.  1.
         -2   -1    0    0    0  501 -0.00000000000E+00 -0.00000000000E+00 -0.85500652123E+03  0.85500652123E+03  0.00000000000E+00 0. -1.
    2000013    1    1    2    0    0  0.30200545884E+03 -0.71747423424E+03 -0.22328135697E+02  0.12284034840E+04  0.95000000000E+03 0.  0.
   -2000013    1    1    2    0    0 -0.30200545884E+03  0.71747423424E+03  0.14125730811E+04  0.18718545038E+04  0.95000000000E+03 0.  0.
<mgrwt>
<rscale>  0 0.27710681E+04</rscale>
<asrwt>0</asrwt>
<pdfrwt beam="1">  1        2 0.34542330E+00 0.27710681E+04</pdfrwt>
<pdfrwt beam="2">  1       -2 0.13153947E+00 0.27710681E+04</pdfrwt>
<totfact> 0.17900020E+00</totfact>
</mgrwt>
</event>
<event>
 4    1  0.2019612E-008  0.2409705E+04  0.7816531E-02  0.8435879E-01
         -2   -1    0    0    0  501 -0.00000000000E+00  0.00000000000E+00  0.11838667084E+04  0.11838667084E+04  0.00000000000E+00 0. -1.
          2   -1    0    0  501    0  0.00000000000E+00 -0.00000000000E+00 -0.12262097881E+04  0.12262097881E+04  0.00000000000E+00 0.  1.
    2000013    1    1    2    0    0 -0.16130141943E+03 -0.72041706376E+03 -0.85602382214E+02  0.12061702457E+04  0.95000000000E+03 0.  0.
   -2000013    1    1    2    0    0  0.16130141943E+03  0.72041706376E+03  0.43259302563E+02  0.12039062509E+04  0.95000000000E+03 0.  0.
<mgrwt>
<rscale>  0 0.24097045E+04</rscale>
<asrwt>0</asrwt>
<pdfrwt beam="2">  1        2 0.18864766E+00 0.24097045E+04</pdfrwt>
<pdfrwt beam="1">  1       -2 0.18213334E+00 0.24097045E+04</pdfrwt>
<totfact> 0.28777926E+00</totfact>
</mgrwt>
</event>
<event>
 4    1  0.2019612E-008  0.2573105E+04  0.7816531E-02  0.8377395E-01
          2   -1    0    0  501    0  0.00000000000E+00  0.00000000000E+00  0.83882422659E+03  0.83882422659E+03  0.00000000000E+00 0.  1.
         -2   -1    0    0    0  501 -0.00000000000E+00 -0.00000000000E+00 -0.19732587592E+04  0.19732587592E+04  0.00000000000E+00 0. -1.
    2000013    1    1    2    0    0  0.41990099464E+03  0.70792417854E+03 -0.26743503124E+03  0.12851050478E+04  0.95000000000E+03 0.  0.
   -2000013    1    1    2    0    0 -0.41990099464E+03 -0.70792417854E+03 -0.86699950139E+03  0.15269779380E+04  0.95000000000E+03 0.  0.
<mgrwt>
<rscale>  0 0.25731049E+04</rscale>
<asrwt>0</asrwt>
<pdfrwt beam="1">  1        2 0.12904988E+00 0.25731049E+04</pdfrwt>
<pdfrwt beam="2">  1       -2 0.30357827E+00 0.25731049E+04</pdfrwt>
<totfact> 0.86587605E-01</totfact>
</mgrwt>
</event>
<event>
 4    1  0.2019612E-008  0.2151488E+04  0.7816531E-02  0.8538896E-01
          2   -1    0    0  501    0  0.00000000000E+00  0.00000000000E+00  0.32171345200E+03  0.32171345200E+03  0.00000000000E+00 0.  1.
         -2   -1    0    0    0  501 -0.00000000000E+00 -0.00000000000E+00 -0.35970683077E+04  0.35970683077E+04  0.00000000000E+00 0. -1.
    2000013    1    1    2    0    0  0.46112241052E+03 -0.13754077720E+03 -0.19149531698E+04  0.21911405672E+04  0.95000000000E+03 0.  0.
   -2000013    1    1    2    0    0 -0.46112241052E+03  0.13754077720E+03 -0.13604016859E+04  0.17276411924E+04  0.95000000000E+03 0.  0.
<mgrwt>
<rscale>  0 0.21514881E+04</rscale>
<asrwt>0</asrwt>
<pdfrwt beam="1">  1        2 0.49494377E-01 0.21514881E+04</pdfrwt>
<pdfrwt beam="2">  1       -2 0.55339513E+00 0.21514881E+04</pdfrwt>
<totfact> 0.75434464E-02</totfact>
</mgrwt>
</event>
<event>
 4    1  0.2019612E-008  0.2123565E+04  0.7816531E-02  0.8550933E-01
          2   -1    0    0  501    0  0.00000000000E+00  0.00000000000E+00  0.14582248750E+04  0.14582248750E+04  0.00000000000E+00 0.  1.
         -2   -1    0    0    0  501 -0.00000000000E+00 -0.00000000000E+00 -0.77311965404E+03  0.77311965404E+03  0.00000000000E+00 0. -1.
    2000013    1    1    2    0    0  0.41871297851E+03 -0.10981291934E+02  0.57619162774E+03  0.11874080760E+04  0.95000000000E+03 0.  0.
   -2000013    1    1    2    0    0 -0.41871297851E+03  0.10981291934E+02  0.10891359322E+03  0.10439364530E+04  0.95000000000E+03 0.  0.
<mgrwt>
<rscale>  0 0.21235652E+04</rscale>
<asrwt>0</asrwt>
<pdfrwt beam="1">  1        2 0.22434229E+00 0.21235652E+04</pdfrwt>
<pdfrwt beam="2">  1       -2 0.11894149E+00 0.21235652E+04</pdfrwt>
<totfact> 0.66939694E+00</totfact>
</mgrwt>
</event>
<event>
 4    1  0.2019612E-008  0.2268267E+04  0.7816531E-02  0.8490539E-01
         -1   -1    0    0    0  501 -0.00000000000E+00  0.00000000000E+00  0.97180677066E+03  0.97180677066E+03  0.00000000000E+00 0. -1.
          1   -1    0    0  501    0  0.00000000000E+00 -0.00000000000E+00 -0.13235750040E+04  0.13235750040E+04  0.00000000000E+00 0.  1.
    2000013    1    1    2    0    0 -0.39989010936E+03  0.37572398329E+03 -0.46686006479E+03  0.11922830751E+04  0.95000000000E+03 0.  0.
   -2000013    1    1    2    0    0  0.39989010936E+03 -0.37572398329E+03  0.11509183146E+03  0.11030986995E+04  0.95000000000E+03 0.  0.
<mgrwt>
<rscale>  0 0.22682673E+04</rscale>
<asrwt>0</asrwt>
<pdfrwt beam="2">  1        1 0.20362692E+00 0.22682673E+04</pdfrwt>
<pdfrwt beam="1">  1       -1 0.14950873E+00 0.22682673E+04</pdfrwt>
<totfact> 0.27763997E+00</totfact>
</mgrwt>
</event>
<event>
 4    1  0.2019612E-008  0.2747827E+04  0.7816531E-02  0.8319651E-01
          2   -1    0    0  501    0  0.00000000000E+00  0.00000000000E+00  0.11639666809E+04  0.11639666809E+04  0.00000000000E+00 0.  1.
         -2   -1    0    0    0  501 -0.00000000000E+00 -0.00000000000E+00 -0.16217289566E+04  0.16217289566E+04  0.00000000000E+00 0. -1.
    2000013    1    1    2    0    0 -0.40392659987E+03  0.36945491489E+03 -0.10682313128E+04  0.15307748920E+04  0.95000000000E+03 0.  0.
   -2000013    1    1    2    0    0  0.40392659987E+03 -0.36945491489E+03  0.61046903716E+03  0.12549207455E+04  0.95000000000E+03 0.  0.
<mgrwt>
<rscale>  0 0.27478271E+04</rscale>
<asrwt>0</asrwt>
<pdfrwt beam="1">  1        2 0.17907180E+00 0.27478271E+04</pdfrwt>
<pdfrwt beam="2">  1       -2 0.24949676E+00 0.27478271E+04</pdfrwt>
<totfact> 0.11260736E+00</totfact>
</mgrwt>
</event>
<event>
 4    1  0.2019612E-008  0.2523257E+04  0.7816531E-02  0.8394747E-01
         -2   -1    0    0    0  501 -0.00000000000E+00  0.00000000000E+00  0.12204446444E+04  0.12204446444E+04  0.00000000000E+00 0. -1.
          2   -1    0    0  501    0  0.00000000000E+00 -0.00000000000E+00 -0.13042016776E+04  0.13042016776E+04  0.00000000000E+00 0.  1.
    2000013    1    1    2    0    0  0.57417633419E+03 -0.46063015660E+03 -0.42594843520E+03  0.12750649683E+04  0.95000000000E+03 0.  0.
   -2000013    1    1    2    0    0 -0.57417633419E+03  0.46063015660E+03  0.34219140205E+03  0.12495813537E+04  0.95000000000E+03 0.  0.
<mgrwt>
<rscale>  0 0.25232566E+04</rscale>
<asrwt>0</asrwt>
<pdfrwt beam="2">  1        2 0.20064641E+00 0.25232566E+04</pdfrwt>
<pdfrwt beam="1">  1       -2 0.18776071E+00 0.25232566E+04</pdfrwt>
<totfact> 0.23484242E+00</totfact>
</mgrwt>
</event>
<event>
 4    1  0.2019612E-008  0.3359863E+04  0.7816531E-02  0.8147828E-01
          2   -1    0    0  501    0  0.00000000000E+00  0.00000000000E+00  0.30102880513E+04  0.30102880513E+04  0.00000000000E+00 0.  1.
         -2   -1    0    0    0  501 -0.00000000000E+00 -0.00000000000E+00 -0.93750842320E+03  0.93750842320E+03  0.00000000000E+00 0. -1.
    2000013    1    1    2    0    0  0.57119970400E+03  0.85605980498E+03 -0.53605059608E+02  0.14015994413E+04  0.95000000000E+03 0.  0.
   -2000013    1    1    2    0    0 -0.57119970400E+03 -0.85605980498E+03  0.21263846877E+04  0.25461970331E+04  0.95000000000E+03 0.  0.
<mgrwt>
<rscale>  0 0.33598633E+04</rscale>
<asrwt>0</asrwt>
<pdfrwt beam="1">  1        2 0.46312123E+00 0.33598633E+04</pdfrwt>
<pdfrwt beam="2">  1       -2 0.14423207E+00 0.33598633E+04</pdfrwt>
<totfact> 0.47340647E-01</totfact>
</mgrwt>
</event>
<event>
 4    1  0.2019612E-008  0.2760347E+04  0.7816531E-02  0.8315686E-01
          2   -1    0    0  501    0  0.00000000000E+00  0.00000000000E+00  0.14373603259E+04  0.14373603259E+04  0.00000000000E+00 0.  1.
         -2   -1    0    0    0  501 -0.00000000000E+00 -0.00000000000E+00 -0.13252620403E+04  0.13252620403E+04  0.00000000000E+00 0. -1.
    2000013    1    1    2    0    0 -0.17329426614E+03  0.98154336460E+03  0.15057697451E+03  0.13851468170E+04  0.95000000000E+03 0.  0.
   -2000013    1    1    2    0    0  0.17329426614E+03 -0.98154336460E+03 -0.38478689002E+02  0.13774755492E+04  0.95000000000E+03 0.  0.
<mgrwt>
<rscale>  0 0.27603471E+04</rscale>
<asrwt>0</asrwt>
<pdfrwt beam="1">  1        2 0.22113236E+00 0.27603471E+04</pdfrwt>
<pdfrwt beam="2">  1       -2 0.20388647E+00 0.27603471E+04</pdfrwt>
<totfact> 0.15086992E+00</totfact>
</mgrwt>
</event>
<event>
 4    1  0.2019612E-008  0.2115805E+04  0.7816531E-02  0.8554313E-01
         -2   -1    0    0    0  501 -0.00000000000E+00  0.00000000000E+00  0.16423632171E+04  0.16423632171E+04  0.00000000000E+00 0. -1.
          2   -1    0    0  501    0  0.00000000000E+00 -0.00000000000E+00 -0.68143137965E+03  0.68143137965E+03  0.00000000000E+00 0.  1.
    2000013    1    1    2    0    0  0.28615757567E+03 -0.30625312464E+03  0.25812891399E+03  0.10699568546E+04  0.95000000000E+03 0.  0.
   -2000013    1    1    2    0    0 -0.28615757567E+03  0.30625312464E+03  0.70280292351E+03  0.12538377422E+04  0.95000000000E+03 0.  0.
<mgrwt>
<rscale>  0 0.21158051E+04</rscale>
<asrwt>0</asrwt>
<pdfrwt beam="2">  1        2 0.10483560E+00 0.21158051E+04</pdfrwt>
<pdfrwt beam="1">  1       -2 0.25267126E+00 0.21158051E+04</pdfrwt>
<totfact> 0.24135391E+00</totfact>
</mgrwt>
</event>
<event>
 4    1  0.2019612E-008  0.3747439E+04  0.7816531E-02  0.8057529E-01
         -2   -1    0    0    0  501 -0.00000000000E+00  0.00000000000E+00  0.92511405490E+03  0.92511405490E+03  0.00000000000E+00 0. -1.
          2   -1    0    0  501    0  0.00000000000E+00 -0.00000000000E+00 -0.37950181471E+04  0.37950181471E+04  0.00000000000E+00 0.  1.
    2000013    1    1    2    0    0 -0.99503903286E+03  0.12055868206E+04 -0.92365301703E+03  0.20491893897E+04  0.95000000000E+03 0.  0.
   -2000013    1    1    2    0    0  0.99503903286E+03 -0.12055868206E+04 -0.19462510752E+04  0.26709428123E+04  0.95000000000E+03 0.  0.
<mgrwt>
<rscale>  0 0.37474389E+04</rscale>
<asrwt>0</asrwt>
<pdfrwt beam="2">  1        2 0.58384894E+00 0.37474389E+04</pdfrwt>
<pdfrwt beam="1">  1       -2 0.14232524E+00 0.37474389E+04</pdfrwt>
<totfact> 0.13690998E-01</totfact>
</mgrwt>
</event>
<event>
 4    1  0.2019612E-008  0.2493973E+04  0.7816531E-02  0.8405136E-01
          2   -1    0    0  501    0  0.00000000000E+00  0.00000000000E+00  0.13243972071E+04  0.13243972071E+04  0.00000000000E+00 0.  1.
         -2   -1    0    0    0  501 -0.00000000000E+00 -0.00000000000E+00 -0.11741003342E+04  0.11741003342E+04  0.00000000000E+00 0. -1.
    2000013    1    1    2    0    0  0.78799367286E+03 -0.14608561939E+03  0.17632754158E+03  0.12553351897E+04  0.95000000000E+03 0.  0.
   -2000013    1    1    2    0    0 -0.78799367286E+03  0.14608561939E+03 -0.26030668666E+02  0.12431623516E+04  0.95000000000E+03 0.  0.
<mgrwt>
<rscale>  0 0.24939729E+04</rscale>
<asrwt>0</asrwt>
<pdfrwt beam="1">  1        2 0.20375342E+00 0.24939729E+04</pdfrwt>
<pdfrwt beam="2">  1       -2 0.18063082E+00 0.24939729E+04</pdfrwt>
<totfact> 0.25630759E+00</totfact>
</mgrwt>
</event>
<event>
 4    1  0.2019612E-008  0.2223137E+04  0.7816531E-02  0.8508859E-01
         -1   -1    0    0    0  501 -0.00000000000E+00  0.00000000000E+00  0.48053210870E+03  0.48053210870E+03  0.00000000000E+00 0. -1.
          1   -1    0    0  501    0  0.00000000000E+00 -0.00000000000E+00 -0.25712841548E+04  0.25712841548E+04  0.00000000000E+00 0.  1.
    2000013    1    1    2    0    0 -0.71684601607E+02 -0.34498878331E+03 -0.16728433957E+04  0.19557763086E+04  0.95000000000E+03 0.  0.
   -2000013    1    1    2    0    0  0.71684601607E+02  0.34498878331E+03 -0.41790865042E+03  0.10960399549E+04  0.95000000000E+03 0.  0.
<mgrwt>
<rscale>  0 0.22231371E+04</rscale>
<asrwt>0</asrwt>
<pdfrwt beam="2">  1        1 0.39558218E+00 0.22231371E+04</pdfrwt>
<pdfrwt beam="1">  1       -1 0.73928016E-01 0.22231371E+04</pdfrwt>
<totfact> 0.20260632E+00</totfact>
</mgrwt>
</event>
<event>
 4    1  0.2019612E-008  0.2448462E+04  0.7816531E-02  0.8421580E-01
         -2   -1    0    0    0  501 -0.00000000000E+00  0.00000000000E+00  0.61050505869E+03  0.61050505869E+03  0.00000000000E+00 0. -1.
          2   -1    0    0  501    0  0.00000000000E+00 -0.00000000000E+00 -0.24549205234E+04  0.24549205234E+04  0.00000000000E+00 0.  1.
    2000013    1    1    2    0    0 -0.64016321879E+03  0.35991849735E+03 -0.62358717773E+03  0.13530377821E+04  0.95000000000E+03 0.  0.
   -2000013    1    1    2    0    0  0.64016321879E+03 -0.35991849735E+03 -0.12208282870E+04  0.17123878000E+04  0.95000000000E+03 0.  0.
<mgrwt>
<rscale>  0 0.24484619E+04</rscale>
<asrwt>0</asrwt>
<pdfrwt beam="2">  1        2 0.37768007E+00 0.24484619E+04</pdfrwt>
<pdfrwt beam="1">  1       -2 0.93923858E-01 0.24484619E+04</pdfrwt>
<totfact> 0.31685144E+00</totfact>
</mgrwt>
</event>
<event>
 4    1  0.2019612E-008  0.2751892E+04  0.7816531E-02  0.8318361E-01
          2   -1    0    0  501    0  0.00000000000E+00  0.00000000000E+00  0.76477236491E+03  0.76477236491E+03  0.00000000000E+00 0.  1.
         -2   -1    0    0    0  501 -0.00000000000E+00 -0.00000000000E+00 -0.24755440123E+04  0.24755440123E+04  0.00000000000E+00 0. -1.
    2000013    1    1    2    0    0 -0.44448023978E+03 -0.33404706412E+03  0.11672019339E+03  0.11069208319E+04  0.95000000000E+03 0.  0.
   -2000013    1    1    2    0    0  0.44448023978E+03  0.33404706412E+03 -0.18274918408E+04  0.21333955453E+04  0.95000000000E+03 0.  0.
<mgrwt>
<rscale>  0 0.27518922E+04</rscale>
<asrwt>0</asrwt>
<pdfrwt beam="1">  1        2 0.11765729E+00 0.27518922E+04</pdfrwt>
<pdfrwt beam="2">  1       -2 0.38085293E+00 0.27518922E+04</pdfrwt>
<totfact> 0.31567990E-01</totfact>
</mgrwt>
</event>
<event>
 4    1  0.2019612E-008  0.3007722E+04  0.7816531E-02  0.8241529E-01
          2   -1    0    0  501    0  0.00000000000E+00  0.00000000000E+00  0.14460523840E+04  0.14460523840E+04  0.00000000000E+00 0.  1.
         -2   -1    0    0    0  501 -0.00000000000E+00 -0.00000000000E+00 -0.15639805269E+04  0.15639805269E+04  0.00000000000E+00 0. -1.
    2000013    1    1    2    0    0  0.55169456466E+03 -0.41537803605E+03 -0.99893649684E+03  0.15418430303E+04  0.95000000000E+03 0.  0.
   -2000013    1    1    2    0    0 -0.55169456466E+03  0.41537803605E+03  0.88100835392E+03  0.14681898805E+04  0.95000000000E+03 0.  0.
<mgrwt>
<rscale>  0 0.30077219E+04</rscale>
<asrwt>0</asrwt>
<pdfrwt beam="1">  1        2 0.22246960E+00 0.30077219E+04</pdfrwt>
<pdfrwt beam="2">  1       -2 0.24061239E+00 0.30077219E+04</pdfrwt>
<totfact> 0.85564226E-01</totfact>
</mgrwt>
</event>
<event>
 4    1  0.2019612E-008  0.3024374E+04  0.7816531E-02  0.8236805E-01
          2   -1    0    0  501    0  0.00000000000E+00  0.00000000000E+00  0.19040370831E+04  0.19040370831E+04  0.00000000000E+00 0.  1.
         -2   -1    0    0    0  501 -0.00000000000E+00 -0.00000000000E+00 -0.12009793972E+04  0.12009793972E+04  0.00000000000E+00 0. -1.
    2000013    1    1    2    0    0 -0.58497529204E+03  0.10136688141E+04  0.47510762609E+03  0.15804897384E+04  0.95000000000E+03 0.  0.
   -2000013    1    1    2    0    0  0.58497529204E+03 -0.10136688141E+04  0.22795005976E+03  0.15245267419E+04  0.95000000000E+03 0.  0.
<mgrwt>
<rscale>  0 0.30243739E+04</rscale>
<asrwt>0</asrwt>
<pdfrwt beam="1">  1        2 0.29292878E+00 0.30243739E+04</pdfrwt>
<pdfrwt beam="2">  1       -2 0.18476606E+00 0.30243739E+04</pdfrwt>
<totfact> 0.10854293E+00</totfact>
</mgrwt>
</event>
<event>
 4    1  0.2019612E-008  0.2248721E+04  0.7816531E-02  0.8498419E-01
         -2   -1    0    0    0  501 -0.00000000000E+00  0.00000000000E+00  0.55676801484E+03  0.55676801484E+03  0.00000000000E+00 0. -1.
          2   -1    0    0  501    0  0.00000000000E+00 -0.00000000000E+00 -0.22705805396E+04  0.22705805396E+04  0.00000000000E+00 0.  1.
    2000013    1    1    2    0    0 -0.47670079955E+03 -0.25027816265E+03 -0.51999346989E+03  0.12094527770E+04  0.95000000000E+03 0.  0.
   -2000013    1    1    2    0    0  0.47670079955E+03  0.25027816265E+03 -0.11938190549E+04  0.16178957775E+04  0.95000000000E+03 0.  0.
<mgrwt>
<rscale>  0 0.22487211E+04</rscale>
<asrwt>0</asrwt>
<pdfrwt beam="2">  1        2 0.34932009E+00 0.22487211E+04</pdfrwt>
<pdfrwt beam="1">  1       -2 0.85656617E-01 0.22487211E+04</pdfrwt>
<totfact> 0.50773683E+00</totfact>
</mgrwt>
</event>
<event>
 4    1  0.2019612E-008  0.3186696E+04  0.7816531E-02  0.8192339E-01
         -1   -1    0    0    0  501 -0.00000000000E+00  0.00000000000E+00  0.10708538616E+04  0.10708538616E+04  0.00000000000E+00 0. -1.
          1   -1    0    0  501    0  0.00000000000E+00 -0.00000000000E+00 -0.23707795110E+04  0.23707795110E+04  0.00000000000E+00 0.  1.
    2000013    1    1    2    0    0 -0.10012341252E+04  0.17162704451E+02 -0.15095604297E+04  0.20454918780E+04  0.95000000000E+03 0.  0.
   -2000013    1    1    2    0    0  0.10012341252E+04 -0.17162704451E+02  0.20963478038E+03  0.13961414946E+04  0.95000000000E+03 0.  0.
<mgrwt>
<rscale>  0 0.31866963E+04</rscale>
<asrwt>0</asrwt>
<pdfrwt beam="2">  1        1 0.36473530E+00 0.31866963E+04</pdfrwt>
<pdfrwt beam="1">  1       -1 0.16474675E+00 0.31866963E+04</pdfrwt>
<totfact> 0.37507723E-01</totfact>
</mgrwt>
</event>
<event>
 4    1  0.2019612E-008  0.2404656E+04  0.7816531E-02  0.8437762E-01
         -2   -1    0    0    0  501 -0.00000000000E+00  0.00000000000E+00  0.63393798130E+03  0.63393798130E+03  0.00000000000E+00 0. -1.
          2   -1    0    0  501    0  0.00000000000E+00 -0.00000000000E+00 -0.22803378459E+04  0.22803378459E+04  0.00000000000E+00 0.  1.
    2000013    1    1    2    0    0  0.47956261869E+03 -0.54019440862E+03 -0.10000855890E+04  0.15570682354E+04  0.95000000000E+03 0.  0.
   -2000013    1    1    2    0    0 -0.47956261869E+03  0.54019440862E+03 -0.64631427555E+03  0.13572075918E+04  0.95000000000E+03 0.  0.
<mgrwt>
<rscale>  0 0.24046561E+04</rscale>
<asrwt>0</asrwt>
<pdfrwt beam="2">  1        2 0.35082120E+00 0.24046561E+04</pdfrwt>
<pdfrwt beam="1">  1       -2 0.97528921E-01 0.24046561E+04</pdfrwt>
<totfact> 0.36634174E+00</totfact>
</mgrwt>
</event>
<event>
 4    1  0.2019612E-008  0.3134362E+04  0.7816531E-02  0.8206370E-01
         -1   -1    0    0    0  501 -0.00000000000E+00  0.00000000000E+00  0.18881198363E+04  0.18881198363E+04  0.00000000000E+00 0.  1.
          1   -1    0    0  501    0  0.00000000000E+00 -0.00000000000E+00 -0.13007949233E+04  0.13007949233E+04  0.00000000000E+00 0. -1.
    2000013    1    1    2    0    0  0.44737838367E+03  0.10279124538E+04 -0.26061794456E+03  0.14923716507E+04  0.95000000000E+03 0.  0.
   -2000013    1    1    2    0    0 -0.44737838367E+03 -0.10279124538E+04  0.84794285748E+03  0.16965431089E+04  0.95000000000E+03 0.  0.
<mgrwt>
<rscale>  0 0.31343623E+04</rscale>
<asrwt>0</asrwt>
<pdfrwt beam="2">  1        1 0.20012230E+00 0.31343623E+04</pdfrwt>
<pdfrwt beam="1">  1       -1 0.29047997E+00 0.31343623E+04</pdfrwt>
<totfact> 0.28929831E-01</totfact>
</mgrwt>
</event>
<event>
 4    1  0.2019612E-008  0.2601953E+04  0.7816531E-02  0.8367538E-01
         -3   -1    0    0    0  501 -0.00000000000E+00  0.00000000000E+00  0.28246132024E+04  0.28246132024E+04  0.00000000000E+00 0.  1.
          3   -1    0    0  501    0  0.00000000000E+00 -0.00000000000E+00 -0.59921125701E+03  0.59921125701E+03  0.00000000000E+00 0. -1.
    2000013    1    1    2    0    0  0.31228213617E+03  0.80049729803E+03  0.14119673659E+04  0.19064280472E+04  0.95000000000E+03 0.  0.
   -2000013    1    1    2    0    0 -0.31228213617E+03 -0.80049729803E+03  0.81343457953E+03  0.15173964122E+04  0.95000000000E+03 0.  0.
<mgrwt>
<rscale>  0 0.26019531E+04</rscale>
<asrwt>0</asrwt>
<pdfrwt beam="2">  1        3 0.92186349E-01 0.26019531E+04</pdfrwt>
<pdfrwt beam="1">  1       -3 0.43455587E+00 0.26019531E+04</pdfrwt>
<totfact> 0.16619110E-02</totfact>
</mgrwt>
</event>
<event>
 4    1  0.2019612E-008  0.2340599E+04  0.7816531E-02  0.8462083E-01
         -1   -1    0    0    0  501 -0.00000000000E+00  0.00000000000E+00  0.95546251028E+03  0.95546251028E+03  0.00000000000E+00 0. -1.
          1   -1    0    0  501    0  0.00000000000E+00 -0.00000000000E+00 -0.14334432245E+04  0.14334432245E+04  0.00000000000E+00 0.  1.
    2000013    1    1    2    0    0 -0.63591643588E+03  0.22325514021E+03 -0.12320887035E+03  0.11712868977E+04  0.95000000000E+03 0.  0.
   -2000013    1    1    2    0    0  0.63591643588E+03 -0.22325514021E+03 -0.35477184382E+03  0.12176188370E+04  0.95000000000E+03 0.  0.
<mgrwt>
<rscale>  0 0.23405993E+04</rscale>
<asrwt>0</asrwt>
<pdfrwt beam="2">  1        1 0.22052973E+00 0.23405993E+04</pdfrwt>
<pdfrwt beam="1">  1       -1 0.14699423E+00 0.23405993E+04</pdfrwt>
<totfact> 0.24155057E+00</totfact>
</mgrwt>
</event>
<event>
 4    1  0.2019612E-008  0.3624836E+04  0.7816531E-02  0.8084826E-01
          2   -1    0    0  501    0  0.00000000000E+00  0.00000000000E+00  0.19776024637E+04  0.19776024637E+04  0.00000000000E+00 0.  1.
         -2   -1    0    0    0  501 -0.00000000000E+00 -0.00000000000E+00 -0.16610314262E+04  0.16610314262E+04  0.00000000000E+00 0. -1.
    2000013    1    1    2    0    0  0.11875688830E+04 -0.98568715503E+03  0.13673705859E+03  0.18174421704E+04  0.95000000000E+03 0.  0.
   -2000013    1    1    2    0    0 -0.11875688830E+04  0.98568715503E+03  0.17983397887E+03  0.18211917196E+04  0.95000000000E+03 0.  0.
<mgrwt>
<rscale>  0 0.36248365E+04</rscale>
<asrwt>0</asrwt>
<pdfrwt beam="1">  1        2 0.30424653E+00 0.36248365E+04</pdfrwt>
<pdfrwt beam="2">  1       -2 0.25554330E+00 0.36248365E+04</pdfrwt>
<totfact> 0.33229774E-01</totfact>
</mgrwt>
</event>
<event>
 4    1  0.2019612E-008  0.3049270E+04  0.7816531E-02  0.8229800E-01
          2   -1    0    0  501    0  0.00000000000E+00  0.00000000000E+00  0.18442883143E+04  0.18442883143E+04  0.00000000000E+00 0.  1.
         -2   -1    0    0    0  501 -0.00000000000E+00 -0.00000000000E+00 -0.12603845335E+04  0.12603845335E+04  0.00000000000E+00 0. -1.
    2000013    1    1    2    0    0  0.11807427210E+04 -0.11767591469E+02  0.12243172896E+03  0.15204543326E+04  0.95000000000E+03 0.  0.
   -2000013    1    1    2    0    0 -0.11807427210E+04  0.11767591469E+02  0.46147205185E+03  0.15842185152E+04  0.95000000000E+03 0.  0.
<mgrwt>
<rscale>  0 0.30492704E+04</rscale>
<asrwt>0</asrwt>
<pdfrwt beam="1">  1        2 0.28373666E+00 0.30492704E+04</pdfrwt>
<pdfrwt beam="2">  1       -2 0.19390531E+00 0.30492704E+04</pdfrwt>
<totfact> 0.10146969E+00</totfact>
</mgrwt>
</event>
<event>
 4    1  0.2019612E-008  0.2549817E+04  0.7816531E-02  0.8385450E-01
          2   -1    0    0  501    0  0.00000000000E+00  0.00000000000E+00  0.29816999901E+04  0.29816999901E+04  0.00000000000E+00 0.  1.
         -2   -1    0    0    0  501 -0.00000000000E+00 -0.00000000000E+00 -0.54512251827E+03  0.54512251827E+03  0.00000000000E+00 0. -1.
    2000013    1    1    2    0    0  0.43405754822E+03 -0.55025667921E+03  0.55249329806E+03  0.13034328569E+04  0.95000000000E+03 0.  0.
   -2000013    1    1    2    0    0 -0.43405754822E+03  0.55025667921E+03  0.18840841738E+04  0.22233896514E+04  0.95000000000E+03 0.  0.
<mgrwt>
<rscale>  0 0.25498171E+04</rscale>
<asrwt>0</asrwt>
<pdfrwt beam="1">  1        2 0.45872307E+00 0.25498171E+04</pdfrwt>
<pdfrwt beam="2">  1       -2 0.83865005E-01 0.25498171E+04</pdfrwt>
<totfact> 0.19727524E+00</totfact>
</mgrwt>
</event>
<event>
 4    1  0.2019612E-008  0.3546883E+04  0.7816531E-02  0.8102768E-01
          1   -1    0    0  501    0  0.00000000000E+00  0.00000000000E+00  0.25930979566E+04  0.25930979566E+04  0.00000000000E+00 0.  1.
         -1   -1    0    0    0  501 -0.00000000000E+00 -0.00000000000E+00 -0.12128715723E+04  0.12128715723E+04  0.00000000000E+00 0. -1.
    2000013    1    1    2    0    0  0.26909578440E+03 -0.14284037164E+04  0.10767749192E+04  0.20432067798E+04  0.95000000000E+03 0.  0.
   -2000013    1    1    2    0    0 -0.26909578440E+03  0.14284037164E+04  0.30345146503E+03  0.17627627492E+04  0.95000000000E+03 0.  0.
<mgrwt>
<rscale>  0 0.35468830E+04</rscale>
<asrwt>0</asrwt>
<pdfrwt beam="1">  1        1 0.39893815E+00 0.35468830E+04</pdfrwt>
<pdfrwt beam="2">  1       -1 0.18659563E+00 0.35468830E+04</pdfrwt>
<totfact> 0.17702054E-01</totfact>
</mgrwt>
</event>
<event>
 4    1  0.2019612E-008  0.2363691E+04  0.7816531E-02  0.8453223E-01
          2   -1    0    0  501    0  0.00000000000E+00  0.00000000000E+00  0.37239111891E+04  0.37239111891E+04  0.00000000000E+00 0.  1.
         -2   -1    0    0    0  501 -0.00000000000E+00 -0.00000000000E+00 -0.37507847165E+03  0.37507847165E+03  0.00000000000E+00 0. -1.
    2000013    1    1    2    0    0 -0.95110553805E+02  0.49252805621E+03  0.82022048873E+03  0.13516255227E+04  0.95000000000E+03 0.  0.
   -2000013    1    1    2    0    0  0.95110553805E+02 -0.49252805621E+03  0.25286122288E+04  0.27473641380E+04  0.95000000000E+03 0.  0.
<mgrwt>
<rscale>  0 0.23636911E+04</rscale>
<asrwt>0</asrwt>
<pdfrwt beam="1">  1        2 0.57290939E+00 0.23636911E+04</pdfrwt>
<pdfrwt beam="2">  1       -2 0.57704383E-01 0.23636911E+04</pdfrwt>
<totfact> 0.14258677E+00</totfact>
</mgrwt>
</event>
<event>
 4    1  0.2019612E-008  0.2257260E+04  0.7816531E-02  0.8494966E-01
          2   -1    0    0  501    0  0.00000000000E+00  0.00000000000E+00  0.13289557348E+04  0.13289557348E+04  0.00000000000E+00 0.  1.
         -2   -1    0    0    0  501 -0.00000000000E+00 -0.00000000000E+00 -0.95850127407E+03  0.95850127407E+03  0.00000000000E+00 0. -1.
    2000013    1    1    2    0    0 -0.10998850602E+03  0.50665833590E+03  0.50967529443E+03  0.11962729816E+04  0.95000000000E+03 0.  0.
   -2000013    1    1    2    0    0  0.10998850602E+03 -0.50665833590E+03 -0.13922083369E+03  0.10911840273E+04  0.95000000000E+03 0.  0.
<mgrwt>
<rscale>  0 0.22572601E+04</rscale>
<asrwt>0</asrwt>
<pdfrwt beam="1">  1        2 0.20445473E+00 0.22572601E+04</pdfrwt>
<pdfrwt beam="2">  1       -2 0.14746173E+00 0.22572601E+04</pdfrwt>
<totfact> 0.45356663E+00</totfact>
</mgrwt>
</event>
<event>
 4    1  0.2019612E-008  0.3999510E+04  0.7816531E-02  0.8004645E-01
         -2   -1    0    0    0  501 -0.00000000000E+00  0.00000000000E+00  0.19102849748E+04  0.19102849748E+04  0.00000000000E+00 0. -1.
          2   -1    0    0  501    0  0.00000000000E+00 -0.00000000000E+00 -0.20934156913E+04  0.20934156913E+04  0.00000000000E+00 0.  1.
    2000013    1    1    2    0    0 -0.14838641567E+04  0.89930945340E+03  0.20184617679E+03  0.19884295833E+04  0.95000000000E+03 0.  0.
   -2000013    1    1    2    0    0  0.14838641567E+04 -0.89930945340E+03 -0.38497689331E+03  0.20152710827E+04  0.95000000000E+03 0.  0.
<mgrwt>
<rscale>  0 0.39995102E+04</rscale>
<asrwt>0</asrwt>
<pdfrwt beam="2">  1        2 0.32206395E+00 0.39995102E+04</pdfrwt>
<pdfrwt beam="1">  1       -2 0.29389000E+00 0.39995102E+04</pdfrwt>
<totfact> 0.16195164E-01</totfact>
</mgrwt>
</event>
<event>
 4    1  0.2019612E-008  0.1980728E+04  0.7816531E-02  0.8615684E-01
          2   -1    0    0  501    0  0.00000000000E+00  0.00000000000E+00  0.72534177743E+03  0.72534177743E+03  0.00000000000E+00 0.  1.
         -2   -1    0    0    0  501 -0.00000000000E+00 -0.00000000000E+00 -0.13522184835E+04  0.13522184835E+04  0.00000000000E+00 0. -1.
    2000013    1    1    2    0    0 -0.21981426922E+03 -0.16203033287E+02 -0.13255558436E+03  0.98420111470E+03  0.95000000000E+03 0.  0.
   -2000013    1    1    2    0    0  0.21981426922E+03  0.16203033287E+02 -0.49432112170E+03  0.10933591462E+04  0.95000000000E+03 0.  0.
<mgrwt>
<rscale>  0 0.19807277E+04</rscale>
<asrwt>0</asrwt>
<pdfrwt beam="1">  1        2 0.11159104E+00 0.19807277E+04</pdfrwt>
<pdfrwt beam="2">  1       -2 0.20803361E+00 0.19807277E+04</pdfrwt>
<totfact> 0.42930648E+00</totfact>
</mgrwt>
</event>
<event>
 4    1  0.2019612E-008  0.2758593E+04  0.7816531E-02  0.8316240E-01
          2   -1    0    0  501    0  0.00000000000E+00  0.00000000000E+00  0.71410841696E+03  0.71410841696E+03  0.00000000000E+00 0.  1.
         -2   -1    0    0    0  501 -0.00000000000E+00 -0.00000000000E+00 -0.26641037481E+04  0.26641037481E+04  0.00000000000E+00 0. -1.
    2000013    1    1    2    0    0 -0.74004332754E+03 -0.18492499206E+03 -0.18315648411E+03  0.12320339594E+04  0.95000000000E+03 0.  0.
   -2000013    1    1    2    0    0  0.74004332754E+03  0.18492499206E+03 -0.17668388471E+04  0.21461782058E+04  0.95000000000E+03 0.  0.
<mgrwt>
<rscale>  0 0.27585931E+04</rscale>
<asrwt>0</asrwt>
<pdfrwt beam="1">  1        2 0.10986283E+00 0.27585931E+04</pdfrwt>
<pdfrwt beam="2">  1       -2 0.40986213E+00 0.27585931E+04</pdfrwt>
<totfact> 0.22293017E-01</totfact>
</mgrwt>
</event>
<event>
 4    1  0.2019612E-008  0.2040834E+04  0.7816531E-02  0.8587764E-01
          2   -1    0    0  501    0  0.00000000000E+00  0.00000000000E+00  0.36868906562E+04  0.36868906562E+04  0.00000000000E+00 0.  1.
         -2   -1    0    0    0  501 -0.00000000000E+00 -0.00000000000E+00 -0.28241967958E+03  0.28241967958E+03  0.00000000000E+00 0. -1.
    2000013    1    1    2    0    0 -0.34147367885E+03 -0.10266564921E+03  0.19117664246E+04  0.21643695089E+04  0.95000000000E+03 0.  0.
   -2000013    1    1    2    0    0  0.34147367885E+03  0.10266564921E+03  0.14927045520E+04  0.18049408268E+04  0.95000000000E+03 0.  0.
<mgrwt>
<rscale>  0 0.20408336E+04</rscale>
<asrwt>0</asrwt>
<pdfrwt beam="1">  1        2 0.56721391E+00 0.20408336E+04</pdfrwt>
<pdfrwt beam="2">  1       -2 0.43449184E-01 0.20408336E+04</pdfrwt>
<totfact> 0.27947167E+00</totfact>
</mgrwt>
</event>
<event>
 4    1  0.2019612E-008  0.3004107E+04  0.7816531E-02  0.8242559E-01
         -2   -1    0    0    0  501 -0.00000000000E+00  0.00000000000E+00  0.89461076029E+03  0.89461076029E+03  0.00000000000E+00 0. -1.
          2   -1    0    0  501    0  0.00000000000E+00 -0.00000000000E+00 -0.25219508309E+04  0.25219508309E+04  0.00000000000E+00 0.  1.
    2000013    1    1    2    0    0  0.10199601814E+04  0.36667345348E+03 -0.33263755913E+03  0.14791605521E+04  0.95000000000E+03 0.  0.
   -2000013    1    1    2    0    0 -0.10199601814E+04 -0.36667345348E+03 -0.12947025115E+04  0.19374010391E+04  0.95000000000E+03 0.  0.
<mgrwt>
<rscale>  0 0.30041068E+04</rscale>
<asrwt>0</asrwt>
<pdfrwt beam="2">  1        2 0.38799243E+00 0.30041068E+04</pdfrwt>
<pdfrwt beam="1">  1       -2 0.13763243E+00 0.30041068E+04</pdfrwt>
<totfact> 0.10857076E+00</totfact>
</mgrwt>
</event>
<event>
 4    1  0.2019612E-008  0.3114644E+04  0.7816531E-02  0.8211730E-01
         -2   -1    0    0    0  501 -0.00000000000E+00  0.00000000000E+00  0.12616145756E+04  0.12616145756E+04  0.00000000000E+00 0. -1.
          2   -1    0    0  501    0  0.00000000000E+00 -0.00000000000E+00 -0.19223397849E+04  0.19223397849E+04  0.00000000000E+00 0.  1.
    2000013    1    1    2    0    0  0.87688641179E+03 -0.39346557677E+03  0.46081565267E+03  0.14277941046E+04  0.95000000000E+03 0.  0.
   -2000013    1    1    2    0    0 -0.87688641179E+03  0.39346557677E+03 -0.11215408621E+04  0.17561602559E+04  0.95000000000E+03 0.  0.
<mgrwt>
<rscale>  0 0.31146441E+04</rscale>
<asrwt>0</asrwt>
<pdfrwt beam="2">  1        2 0.29574458E+00 0.31146441E+04</pdfrwt>
<pdfrwt beam="1">  1       -2 0.19409455E+00 0.31146441E+04</pdfrwt>
<totfact> 0.91076029E-01</totfact>
</mgrwt>
</event>
<event>
 4    1  0.2019612E-008  0.2881981E+04  0.7816531E-02  0.8278259E-01
          2   -1    0    0  501    0  0.00000000000E+00  0.00000000000E+00  0.11204757885E+04  0.11204757885E+04  0.00000000000E+00 0.  1.
         -2   -1    0    0    0  501 -0.00000000000E+00 -0.00000000000E+00 -0.18531890208E+04  0.18531890208E+04  0.00000000000E+00 0. -1.
    2000013    1    1    2    0    0 -0.77341569693E+03 -0.36657847800E+03  0.31915998126E+03  0.13179206025E+04  0.95000000000E+03 0.  0.
   -2000013    1    1    2    0    0  0.77341569693E+03  0.36657847800E+03 -0.10518732136E+04  0.16557442068E+04  0.95000000000E+03 0.  0.
<mgrwt>
<rscale>  0 0.28819809E+04</rscale>
<asrwt>0</asrwt>
<pdfrwt beam="1">  1        2 0.17238089E+00 0.28819809E+04</pdfrwt>
<pdfrwt beam="2">  1       -2 0.28510600E+00 0.28819809E+04</pdfrwt>
<totfact> 0.71696253E-01</totfact>
</mgrwt>
</event>
<event>
 4    1  0.2019612E-008  0.3709552E+04  0.7816531E-02  0.8065848E-01
          2   -1    0    0  501    0  0.00000000000E+00  0.00000000000E+00  0.11508926917E+04  0.11508926917E+04  0.00000000000E+00 0.  1.
         -2   -1    0    0    0  501 -0.00000000000E+00 -0.00000000000E+00 -0.29891523070E+04  0.29891523070E+04  0.00000000000E+00 0. -1.
    2000013    1    1    2    0    0 -0.10787498204E+04 -0.10078571874E+03  0.38423047024E+03  0.14913054652E+04  0.95000000000E+03 0.  0.
   -2000013    1    1    2    0    0  0.10787498204E+04  0.10078571874E+03 -0.22224900855E+04  0.26487395335E+04  0.95000000000E+03 0.  0.
<mgrwt>
<rscale>  0 0.37095517E+04</rscale>
<asrwt>0</asrwt>
<pdfrwt beam="1">  1        2 0.17706042E+00 0.37095517E+04</pdfrwt>
<pdfrwt beam="2">  1       -2 0.45986958E+00 0.37095517E+04</pdfrwt>
<totfact> 0.48903270E-02</totfact>
</mgrwt>
</event>
<event>
 4    1  0.2019612E-008  0.2452160E+04  0.7816531E-02  0.8420230E-01
         -2   -1    0    0    0  501 -0.00000000000E+00  0.00000000000E+00  0.11684784034E+04  0.11684784034E+04  0.00000000000E+00 0. -1.
          2   -1    0    0  501    0  0.00000000000E+00 -0.00000000000E+00 -0.12865213573E+04  0.12865213573E+04  0.00000000000E+00 0.  1.
    2000013    1    1    2    0    0 -0.14290020478E+03  0.12319964730E+03 -0.81167244376E+03  0.12636893517E+04  0.95000000000E+03 0.  0.
   -2000013    1    1    2    0    0  0.14290020478E+03 -0.12319964730E+03  0.69362948986E+03  0.11913104091E+04  0.95000000000E+03 0.  0.
<mgrwt>
<rscale>  0 0.24521602E+04</rscale>
<asrwt>0</asrwt>
<pdfrwt beam="2">  1        2 0.19792636E+00 0.24521602E+04</pdfrwt>
<pdfrwt beam="1">  1       -2 0.17976591E+00 0.24521602E+04</pdfrwt>
<totfact> 0.27435617E+00</totfact>
</mgrwt>
</event>
<event>
 4    1  0.2019612E-008  0.2618940E+04  0.7816531E-02  0.8361796E-01
          1   -1    0    0  501    0  0.00000000000E+00  0.00000000000E+00  0.10413291015E+04  0.10413291015E+04  0.00000000000E+00 0.  1.
         -1   -1    0    0    0  501 -0.00000000000E+00 -0.00000000000E+00 -0.16466569689E+04  0.16466569689E+04  0.00000000000E+00 0. -1.
    2000013    1    1    2    0    0 -0.79951160872E+03  0.19641427398E+03  0.73627571658E+02  0.12592531115E+04  0.95000000000E+03 0.  0.
   -2000013    1    1    2    0    0  0.79951160872E+03 -0.19641427398E+03 -0.67895543909E+03  0.14287329589E+04  0.95000000000E+03 0.  0.
<mgrwt>
<rscale>  0 0.26189401E+04</rscale>
<asrwt>0</asrwt>
<pdfrwt beam="1">  1        1 0.16020448E+00 0.26189401E+04</pdfrwt>
<pdfrwt beam="2">  1       -1 0.25333184E+00 0.26189401E+04</pdfrwt>
<totfact> 0.81937687E-01</totfact>
</mgrwt>
</event>
<event>
 4    1  0.2019612E-008  0.2732980E+04  0.7816531E-02  0.8324383E-01
          2   -1    0    0  501    0  0.00000000000E+00  0.00000000000E+00  0.16443893946E+04  0.16443893946E+04  0.00000000000E+00 0.  1.
         -2   -1    0    0    0  501 -0.00000000000E+00 -0.00000000000E+00 -0.11355552072E+04  0.11355552072E+04  0.00000000000E+00 0. -1.
    2000013    1    1    2    0    0 -0.13793935377E+03  0.29018670959E+03 -0.68973570555E+03  0.12171569066E+04  0.95000000000E+03 0.  0.
   -2000013    1    1    2    0    0  0.13793935377E+03 -0.29018670959E+03  0.11985698930E+04  0.15627876951E+04  0.95000000000E+03 0.  0.
<mgrwt>
<rscale>  0 0.27329800E+04</rscale>
<asrwt>0</asrwt>
<pdfrwt beam="1">  1        2 0.25298298E+00 0.27329800E+04</pdfrwt>
<pdfrwt beam="2">  1       -2 0.17470080E+00 0.27329800E+04</pdfrwt>
<totfact> 0.18196881E+00</totfact>
</mgrwt>
</event>
<event>
 4    1  0.2019612E-008  0.3366710E+04  0.7816531E-02  0.8146125E-01
          2   -1    0    0  501    0  0.00000000000E+00  0.00000000000E+00  0.23183080349E+04  0.23183080349E+04  0.00000000000E+00 0.  1.
         -2   -1    0    0    0  501 -0.00000000000E+00 -0.00000000000E+00 -0.12223071122E+04  0.12223071122E+04  0.00000000000E+00 0. -1.
    2000013    1    1    2    0    0  0.13511931236E+04  0.15857700002E+03  0.24996290951E+03  0.16780497545E+04  0.95000000000E+03 0.  0.
   -2000013    1    1    2    0    0 -0.13511931236E+04 -0.15857700002E+03  0.84603801317E+03  0.18625653927E+04  0.95000000000E+03 0.  0.
<mgrwt>
<rscale>  0 0.33667102E+04</rscale>
<asrwt>0</asrwt>
<pdfrwt beam="1">  1        2 0.35666277E+00 0.33667102E+04</pdfrwt>
<pdfrwt beam="2">  1       -2 0.18804725E+00 0.33667102E+04</pdfrwt>
<totfact> 0.58741709E-01</totfact>
</mgrwt>
</event>
<event>
 4    1  0.2019612E-008  0.3951442E+04  0.7816531E-02  0.8014414E-01
          2   -1    0    0  501    0  0.00000000000E+00  0.00000000000E+00  0.33465688971E+04  0.33465688971E+04  0.00000000000E+00 0.  1.
         -2   -1    0    0    0  501 -0.00000000000E+00 -0.00000000000E+00 -0.11664108209E+04  0.11664108209E+04  0.00000000000E+00 0. -1.
    2000013    1    1    2    0    0  0.13438473746E+04  0.12823911563E+02  0.23385274341E+04  0.28595980100E+04  0.95000000000E+03 0.  0.
   -2000013    1    1    2    0    0 -0.13438473746E+04 -0.12823911563E+02 -0.15836935791E+03  0.16533817080E+04  0.95000000000E+03 0.  0.
<mgrwt>
<rscale>  0 0.39514424E+04</rscale>
<asrwt>0</asrwt>
<pdfrwt beam="1">  1        2 0.51485675E+00 0.39514424E+04</pdfrwt>
<pdfrwt beam="2">  1       -2 0.17944782E+00 0.39514424E+04</pdfrwt>
<totfact> 0.14995571E-01</totfact>
</mgrwt>
</event>
<event>
 4    1  0.2019612E-008  0.3593979E+04  0.7816531E-02  0.8091872E-01
         -2   -1    0    0    0  501 -0.00000000000E+00  0.00000000000E+00  0.14918635175E+04  0.14918635175E+04  0.00000000000E+00 0. -1.
          2   -1    0    0  501    0  0.00000000000E+00 -0.00000000000E+00 -0.21645215707E+04  0.21645215707E+04  0.00000000000E+00 0.  1.
    2000013    1    1    2    0    0  0.51792490266E+03 -0.14303192251E+04 -0.45057985193E+03  0.18492110462E+04  0.95000000000E+03 0.  0.
   -2000013    1    1    2    0    0 -0.51792490266E+03  0.14303192251E+04 -0.22207820128E+03  0.18071740420E+04  0.95000000000E+03 0.  0.
<mgrwt>
<rscale>  0 0.35939787E+04</rscale>
<asrwt>0</asrwt>
<pdfrwt beam="2">  1        2 0.33300332E+00 0.35939787E+04</pdfrwt>
<pdfrwt beam="1">  1       -2 0.22951746E+00 0.35939787E+04</pdfrwt>
<totfact> 0.37958850E-01</totfact>
</mgrwt>
</event>
<event>
 4    1  0.2019612E-008  0.2005034E+04  0.7816531E-02  0.8604271E-01
         -1   -1    0    0    0  501 -0.00000000000E+00  0.00000000000E+00  0.86449885961E+03  0.86449885961E+03  0.00000000000E+00 0. -1.
          1   -1    0    0  501    0  0.00000000000E+00 -0.00000000000E+00 -0.11625693547E+04  0.11625693547E+04  0.00000000000E+00 0.  1.
    2000013    1    1    2    0    0 -0.25389679182E+03  0.86271729035E+02 -0.32598296035E+03  0.10395534053E+04  0.95000000000E+03 0.  0.
   -2000013    1    1    2    0    0  0.25389679182E+03 -0.86271729035E+02  0.27912465311E+02  0.98751480892E+03  0.95000000000E+03 0.  0.
<mgrwt>
<rscale>  0 0.20050335E+04</rscale>
<asrwt>0</asrwt>
<pdfrwt beam="2">  1        1 0.17885682E+00 0.20050335E+04</pdfrwt>
<pdfrwt beam="1">  1       -1 0.13299982E+00 0.20050335E+04</pdfrwt>
<totfact> 0.50529695E+00</totfact>
</mgrwt>
</event>
<event>
 4    1  0.2019612E-008  0.3197201E+04  0.7816531E-02  0.8189557E-01
          1   -1    0    0  501    0  0.00000000000E+00  0.00000000000E+00  0.25142131430E+04  0.25142131430E+04  0.00000000000E+00 0. -1.
         -1   -1    0    0    0  501 -0.00000000000E+00 -0.00000000000E+00 -0.10164308005E+04  0.10164308005E+04  0.00000000000E+00 0.  1.
    2000013    1    1    2    0    0 -0.60038325975E+02 -0.10221820858E+04 -0.10973615110E+03  0.14010720324E+04  0.95000000000E+03 0.  0.
   -2000013    1    1    2    0    0  0.60038325975E+02  0.10221820858E+04  0.16075184936E+04  0.21295719111E+04  0.95000000000E+03 0.  0.
<mgrwt>
<rscale>  0 0.31972011E+04</rscale>
<asrwt>0</asrwt>
<pdfrwt beam="1">  1        1 0.38680202E+00 0.31972011E+04</pdfrwt>
<pdfrwt beam="2">  1       -1 0.15637397E+00 0.31972011E+04</pdfrwt>
<totfact> 0.34505168E-01</totfact>
</mgrwt>
</event>
<event>
 4    1  0.2019612E-008  0.2808517E+04  0.7816531E-02  0.8300629E-01
          2   -1    0    0  501    0  0.00000000000E+00  0.00000000000E+00  0.14635127076E+04  0.14635127076E+04  0.00000000000E+00 0. -1.
         -2   -1    0    0    0  501 -0.00000000000E+00 -0.00000000000E+00 -0.13474032445E+04  0.13474032445E+04  0.00000000000E+00 0.  1.
    2000013    1    1    2    0    0 -0.98428331771E+03  0.12672773891E+03  0.34910926489E+03  0.14174804578E+04  0.95000000000E+03 0.  0.
   -2000013    1    1    2    0    0  0.98428331771E+03 -0.12672773891E+03 -0.23299980179E+03  0.13934354944E+04  0.95000000000E+03 0.  0.
<mgrwt>
<rscale>  0 0.28085169E+04</rscale>
<asrwt>0</asrwt>
<pdfrwt beam="1">  1        2 0.22515580E+00 0.28085169E+04</pdfrwt>
<pdfrwt beam="2">  1       -2 0.20729281E+00 0.28085169E+04</pdfrwt>
<totfact> 0.13800748E+00</totfact>
</mgrwt>
</event>
<event>
 4    1  0.2019612E-008  0.3177495E+04  0.7816531E-02  0.8194786E-01
          2   -1    0    0  501    0  0.00000000000E+00  0.00000000000E+00  0.12988091344E+04  0.12988091344E+04  0.00000000000E+00 0.  1.
         -2   -1    0    0    0  501 -0.00000000000E+00 -0.00000000000E+00 -0.19434103668E+04  0.19434103668E+04  0.00000000000E+00 0. -1.
    2000013    1    1    2    0    0 -0.33049523239E+03  0.12241956624E+04 -0.20270817657E+03  0.15973330032E+04  0.95000000000E+03 0.  0.
   -2000013    1    1    2    0    0  0.33049523239E+03 -0.12241956624E+04 -0.44189305586E+03  0.16448864980E+04  0.95000000000E+03 0.  0.
<mgrwt>
<rscale>  0 0.31774953E+04</rscale>
<asrwt>0</asrwt>
<pdfrwt beam="1">  1        2 0.19981679E+00 0.31774953E+04</pdfrwt>
<pdfrwt beam="2">  1       -2 0.29898621E+00 0.31774953E+04</pdfrwt>
<totfact> 0.45031801E-01</totfact>
</mgrwt>
</event>
<event>
 4    1  0.2019612E-008  0.2284323E+04  0.7816531E-02  0.8484128E-01
         -2   -1    0    0    0  501 -0.00000000000E+00  0.00000000000E+00  0.30238853974E+03  0.30238853974E+03  0.00000000000E+00 0. -1.
          2   -1    0    0  501    0  0.00000000000E+00 -0.00000000000E+00 -0.43140945261E+04  0.43140945261E+04  0.00000000000E+00 0.  1.
    2000013    1    1    2    0    0 -0.26702041620E+03  0.54336363527E+03 -0.23865674985E+04  0.26390809702E+04  0.95000000000E+03 0.  0.
   -2000013    1    1    2    0    0  0.26702041620E+03 -0.54336363527E+03 -0.16251384879E+04  0.19774020956E+04  0.95000000000E+03 0.  0.
<mgrwt>
<rscale>  0 0.22843229E+04</rscale>
<asrwt>0</asrwt>
<pdfrwt beam="2">  1        2 0.66370681E+00 0.22843229E+04</pdfrwt>
<pdfrwt beam="1">  1       -2 0.46521316E-01 0.22843229E+04</pdfrwt>
<totfact> 0.73859208E-01</totfact>
</mgrwt>
</event>
<event>
 4    1  0.2019612E-008  0.2384914E+04  0.7816531E-02  0.8445173E-01
         -2   -1    0    0    0  501 -0.00000000000E+00  0.00000000000E+00  0.54282315962E+03  0.54282315962E+03  0.00000000000E+00 0. -1.
          2   -1    0    0  501    0  0.00000000000E+00 -0.00000000000E+00 -0.26195526359E+04  0.26195526359E+04  0.00000000000E+00 0.  1.
    2000013    1    1    2    0    0 -0.23533465591E+03 -0.67090517866E+03 -0.88170862582E+03  0.14783119630E+04  0.95000000000E+03 0.  0.
   -2000013    1    1    2    0    0  0.23533465591E+03  0.67090517866E+03 -0.11950208504E+04  0.16840638325E+04  0.95000000000E+03 0.  0.
<mgrwt>
<rscale>  0 0.23849141E+04</rscale>
<asrwt>0</asrwt>
<pdfrwt beam="2">  1        2 0.40300809E+00 0.23849141E+04</pdfrwt>
<pdfrwt beam="1">  1       -2 0.83511256E-01 0.23849141E+04</pdfrwt>
<totfact> 0.33468711E+00</totfact>
</mgrwt>
</event>
<event>
 4    1  0.2019612E-008  0.2299781E+04  0.7816531E-02  0.8478007E-01
          1   -1    0    0  501    0  0.00000000000E+00  0.00000000000E+00  0.30153149908E+04  0.30153149908E+04  0.00000000000E+00 0.  1.
         -1   -1    0    0    0  501 -0.00000000000E+00 -0.00000000000E+00 -0.43851080752E+03  0.43851080752E+03  0.00000000000E+00 0. -1.
    2000013    1    1    2    0    0 -0.28863245019E+03 -0.55160724177E+03  0.10190424507E+04  0.15259510991E+04  0.95000000000E+03 0.  0.
   -2000013    1    1    2    0    0  0.28863245019E+03  0.55160724177E+03  0.15577617325E+04  0.19278746992E+04  0.95000000000E+03 0.  0.
<mgrwt>
<rscale>  0 0.22997810E+04</rscale>
<asrwt>0</asrwt>
<pdfrwt beam="1">  1        1 0.46389460E+00 0.22997810E+04</pdfrwt>
<pdfrwt beam="2">  1       -1 0.67463203E-01 0.22997810E+04</pdfrwt>
<totfact> 0.11723943E+00</totfact>
</mgrwt>
</event>
<event>
 4    1  0.2019612E-008  0.3284196E+04  0.7816531E-02  0.8166928E-01
         -1   -1    0    0    0  501 -0.00000000000E+00  0.00000000000E+00  0.11851722836E+04  0.11851722836E+04  0.00000000000E+00 0. -1.
          1   -1    0    0  501    0  0.00000000000E+00 -0.00000000000E+00 -0.22751844495E+04  0.22751844495E+04  0.00000000000E+00 0.  1.
    2000013    1    1    2    0    0  0.38742755571E+03  0.42717309970E+03 -0.18187368973E+04  0.21314034976E+04  0.95000000000E+03 0.  0.
   -2000013    1    1    2    0    0 -0.38742755571E+03 -0.42717309970E+03  0.72872473144E+03  0.13289532355E+04  0.95000000000E+03 0.  0.
<mgrwt>
<rscale>  0 0.32841958E+04</rscale>
<asrwt>0</asrwt>
<pdfrwt beam="2">  1        1 0.35002837E+00 0.32841958E+04</pdfrwt>
<pdfrwt beam="1">  1       -1 0.18233420E+00 0.32841958E+04</pdfrwt>
<totfact> 0.32192730E-01</totfact>
</mgrwt>
</event>
<event>
 4    1  0.2019612E-008  0.2197909E+04  0.7816531E-02  0.8519299E-01
          1   -1    0    0  501    0  0.00000000000E+00  0.00000000000E+00  0.10302194962E+04  0.10302194962E+04  0.00000000000E+00 0.  1.
         -1   -1    0    0    0  501 -0.00000000000E+00 -0.00000000000E+00 -0.11722751291E+04  0.11722751291E+04  0.00000000000E+00 0. -1.
    2000013    1    1    2    0    0 -0.51340332037E+03 -0.17351217902E+03  0.36486524329E+02  0.10943128950E+04  0.95000000000E+03 0.  0.
   -2000013    1    1    2    0    0  0.51340332037E+03  0.17351217902E+03 -0.17854215717E+03  0.11081817304E+04  0.95000000000E+03 0.  0.
<mgrwt>
<rscale>  0 0.21979087E+04</rscale>
<asrwt>0</asrwt>
<pdfrwt beam="1">  1        1 0.15849531E+00 0.21979087E+04</pdfrwt>
<pdfrwt beam="2">  1       -1 0.18035002E+00 0.21979087E+04</pdfrwt>
<totfact> 0.27044633E+00</totfact>
</mgrwt>
</event>
<event>
 4    1  0.2019612E-008  0.2552244E+04  0.7816531E-02  0.8384606E-01
          2   -1    0    0  501    0  0.00000000000E+00  0.00000000000E+00  0.16837306438E+04  0.16837306438E+04  0.00000000000E+00 0. -1.
         -2   -1    0    0    0  501 -0.00000000000E+00 -0.00000000000E+00 -0.96718976667E+03  0.96718976667E+03  0.00000000000E+00 0.  1.
    2000013    1    1    2    0    0  0.76994140513E+03  0.14246279534E+03  0.93019754374E+01  0.12311344127E+04  0.95000000000E+03 0.  0.
   -2000013    1    1    2    0    0 -0.76994140513E+03 -0.14246279534E+03  0.70723890170E+03  0.14197859978E+04  0.95000000000E+03 0.  0.
<mgrwt>
<rscale>  0 0.25522438E+04</rscale>
<asrwt>0</asrwt>
<pdfrwt beam="1">  1        2 0.25903548E+00 0.25522438E+04</pdfrwt>
<pdfrwt beam="2">  1       -2 0.14879843E+00 0.25522438E+04</pdfrwt>
<totfact> 0.27222437E+00</totfact>
</mgrwt>
</event>
<event>
 4    1  0.2019612E-008  0.3100585E+04  0.7816531E-02  0.8215577E-01
          1   -1    0    0  501    0  0.00000000000E+00  0.00000000000E+00  0.23507883795E+04  0.23507883795E+04  0.00000000000E+00 0. -1.
         -1   -1    0    0    0  501 -0.00000000000E+00 -0.00000000000E+00 -0.10223832853E+04  0.10223832853E+04  0.00000000000E+00 0.  1.
    2000013    1    1    2    0    0  0.18332341849E+03 -0.11251658554E+04  0.11523127098E+04  0.18788108631E+04  0.95000000000E+03 0.  0.
   -2000013    1    1    2    0    0 -0.18332341849E+03  0.11251658554E+04  0.17609238444E+03  0.14943608018E+04  0.95000000000E+03 0.  0.
<mgrwt>
<rscale>  0 0.31005849E+04</rscale>
<asrwt>0</asrwt>
<pdfrwt beam="1">  1        1 0.36165975E+00 0.31005849E+04</pdfrwt>
<pdfrwt beam="2">  1       -1 0.15728974E+00 0.31005849E+04</pdfrwt>
<totfact> 0.44405296E-01</totfact>
</mgrwt>
</event>
<event>
 4    1  0.2019612E-008  0.2170417E+04  0.7816531E-02  0.8530843E-01
         -2   -1    0    0    0  501 -0.00000000000E+00  0.00000000000E+00  0.72816985178E+03  0.72816985178E+03  0.00000000000E+00 0. -1.
          2   -1    0    0  501    0  0.00000000000E+00 -0.00000000000E+00 -0.16173115015E+04  0.16173115015E+04  0.00000000000E+00 0.  1.
    2000013    1    1    2    0    0 -0.73498315316E+02  0.49952153614E+03 -0.29077622508E+03  0.11144391327E+04  0.95000000000E+03 0.  0.
   -2000013    1    1    2    0    0  0.73498315316E+02 -0.49952153614E+03 -0.59836542463E+03  0.12310422206E+04  0.95000000000E+03 0.  0.
<mgrwt>
<rscale>  0 0.21704170E+04</rscale>
<asrwt>0</asrwt>
<pdfrwt beam="2">  1        2 0.24881715E+00 0.21704170E+04</pdfrwt>
<pdfrwt beam="1">  1       -2 0.11202613E+00 0.21704170E+04</pdfrwt>
<totfact> 0.62815050E+00</totfact>
</mgrwt>
</event>
<event>
 4    1  0.2019612E-008  0.2442563E+04  0.7816531E-02  0.8423738E-01
         -2   -1    0    0    0  501 -0.00000000000E+00  0.00000000000E+00  0.92244284734E+03  0.92244284734E+03  0.00000000000E+00 0.  1.
          2   -1    0    0  501    0  0.00000000000E+00 -0.00000000000E+00 -0.16169329769E+04  0.16169329769E+04  0.00000000000E+00 0. -1.
    2000013    1    1    2    0    0  0.42343332556E+03  0.61050681938E+03 -0.14722955469E+03  0.12149859668E+04  0.95000000000E+03 0.  0.
   -2000013    1    1    2    0    0 -0.42343332556E+03 -0.61050681938E+03 -0.54726057486E+03  0.13243898574E+04  0.95000000000E+03 0.  0.
<mgrwt>
<rscale>  0 0.24425628E+04</rscale>
<asrwt>0</asrwt>
<pdfrwt beam="2">  1        2 0.24875892E+00 0.24425628E+04</pdfrwt>
<pdfrwt beam="1">  1       -2 0.14191428E+00 0.24425628E+04</pdfrwt>
<totfact> 0.33901412E+00</totfact>
</mgrwt>
</event>
<event>
 4    1  0.2019612E-008  0.2536925E+04  0.7816531E-02  0.8389948E-01
         -2   -1    0    0    0  501 -0.00000000000E+00  0.00000000000E+00  0.84711901067E+03  0.84711901067E+03  0.00000000000E+00 0. -1.
          2   -1    0    0  501    0  0.00000000000E+00 -0.00000000000E+00 -0.18993747787E+04  0.18993747787E+04  0.00000000000E+00 0.  1.
    2000013    1    1    2    0    0 -0.77422573291E+03 -0.30571468339E+03 -0.65242477102E+03  0.14216346348E+04  0.95000000000E+03 0.  0.
   -2000013    1    1    2    0    0  0.77422573291E+03  0.30571468339E+03 -0.39983099698E+03  0.13248591545E+04  0.95000000000E+03 0.  0.
<mgrwt>
<rscale>  0 0.25369245E+04</rscale>
<asrwt>0</asrwt>
<pdfrwt beam="2">  1        2 0.29221150E+00 0.25369245E+04</pdfrwt>
<pdfrwt beam="1">  1       -2 0.13032600E+00 0.25369245E+04</pdfrwt>
<totfact> 0.29163345E+00</totfact>
</mgrwt>
</event>
<event>
 4    1  0.2019612E-008  0.3284728E+04  0.7816531E-02  0.8166792E-01
          2   -1    0    0  501    0  0.00000000000E+00  0.00000000000E+00  0.38139739165E+04  0.38139739165E+04  0.00000000000E+00 0.  1.
         -2   -1    0    0    0  501 -0.00000000000E+00 -0.00000000000E+00 -0.70723084928E+03  0.70723084928E+03  0.00000000000E+00 0. -1.
    2000013    1    1    2    0    0  0.11460907236E+04  0.46884979509E+03  0.84948314350E+03  0.17769259096E+04  0.95000000000E+03 0.  0.
   -2000013    1    1    2    0    0 -0.11460907236E+04 -0.46884979509E+03  0.22572599237E+04  0.27442788562E+04  0.95000000000E+03 0.  0.
<mgrwt>
<rscale>  0 0.32847283E+04</rscale>
<asrwt>0</asrwt>
<pdfrwt beam="1">  1        2 0.58676521E+00 0.32847283E+04</pdfrwt>
<pdfrwt beam="2">  1       -2 0.10880475E+00 0.32847283E+04</pdfrwt>
<totfact> 0.26986704E-01</totfact>
</mgrwt>
</event>
<event>
 4    1  0.2019612E-008  0.4042231E+04  0.7816531E-02  0.7996081E-01
          2   -1    0    0  501    0  0.00000000000E+00  0.00000000000E+00  0.15600499747E+04  0.15600499747E+04  0.00000000000E+00 0.  1.
         -2   -1    0    0    0  501 -0.00000000000E+00 -0.00000000000E+00 -0.26184467397E+04  0.26184467397E+04  0.00000000000E+00 0. -1.
    2000013    1    1    2    0    0  0.11439847680E+03  0.17190307725E+04 -0.50718842071E+02  0.19680513736E+04  0.95000000000E+03 0.  0.
   -2000013    1    1    2    0    0 -0.11439847680E+03 -0.17190307725E+04 -0.10076779229E+04  0.22104453408E+04  0.95000000000E+03 0.  0.
<mgrwt>
<rscale>  0 0.40422310E+04</rscale>
<asrwt>0</asrwt>
<pdfrwt beam="1">  1        2 0.24000769E+00 0.40422310E+04</pdfrwt>
<pdfrwt beam="2">  1       -2 0.40283796E+00 0.40422310E+04</pdfrwt>
<totfact> 0.65624237E-02</totfact>
</mgrwt>
</event>
<event>
 4    1  0.2019612E-008  0.2277462E+04  0.7816531E-02  0.8486861E-01
         -2   -1    0    0    0  501 -0.00000000000E+00  0.00000000000E+00  0.52854250507E+03  0.52854250507E+03  0.00000000000E+00 0. -1.
          2   -1    0    0  501    0  0.00000000000E+00 -0.00000000000E+00 -0.24533653589E+04  0.24533653589E+04  0.00000000000E+00 0.  1.
    2000013    1    1    2    0    0 -0.37387833263E+03 -0.47646896467E+03 -0.74568097131E+03  0.13510543264E+04  0.95000000000E+03 0.  0.
   -2000013    1    1    2    0    0  0.37387833263E+03  0.47646896467E+03 -0.11791418825E+04  0.16308535376E+04  0.95000000000E+03 0.  0.
<mgrwt>
<rscale>  0 0.22774616E+04</rscale>
<asrwt>0</asrwt>
<pdfrwt beam="2">  1        2 0.37744081E+00 0.22774616E+04</pdfrwt>
<pdfrwt beam="1">  1       -2 0.81314234E-01 0.22774616E+04</pdfrwt>
<totfact> 0.44827216E+00</totfact>
</mgrwt>
</event>
<event>
 4    1  0.2019612E-008  0.2627219E+04  0.7816531E-02  0.8359014E-01
         -2   -1    0    0    0  501 -0.00000000000E+00  0.00000000000E+00  0.57863207341E+03  0.57863207341E+03  0.00000000000E+00 0. -1.
          2   -1    0    0  501    0  0.00000000000E+00 -0.00000000000E+00 -0.29821539994E+04  0.29821539994E+04  0.00000000000E+00 0.  1.
    2000013    1    1    2    0    0 -0.63595619719E+03 -0.18704342093E+03 -0.20412481045E+04  0.23470448121E+04  0.95000000000E+03 0.  0.
   -2000013    1    1    2    0    0  0.63595619719E+03  0.18704342093E+03 -0.36227382144E+03  0.12137412606E+04  0.95000000000E+03 0.  0.
<mgrwt>
<rscale>  0 0.26272190E+04</rscale>
<asrwt>0</asrwt>
<pdfrwt beam="2">  1        2 0.45879294E+00 0.26272190E+04</pdfrwt>
<pdfrwt beam="1">  1       -2 0.89020316E-01 0.26272190E+04</pdfrwt>
<totfact> 0.17086708E+00</totfact>
</mgrwt>
</event>
<event>
 4    1  0.2019612E-008  0.3378566E+04  0.7816531E-02  0.8143187E-01
          2   -1    0    0  501    0  0.00000000000E+00  0.00000000000E+00  0.21703062716E+04  0.21703062716E+04  0.00000000000E+00 0.  1.
         -2   -1    0    0    0  501 -0.00000000000E+00 -0.00000000000E+00 -0.13148733143E+04  0.13148733143E+04  0.00000000000E+00 0. -1.
    2000013    1    1    2    0    0 -0.11132419720E+04 -0.55866064426E+03 -0.22450774823E+03  0.15825021747E+04  0.95000000000E+03 0.  0.
   -2000013    1    1    2    0    0  0.11132419720E+04  0.55866064426E+03  0.10799407055E+04  0.19026774112E+04  0.95000000000E+03 0.  0.
<mgrwt>
<rscale>  0 0.33785664E+04</rscale>
<asrwt>0</asrwt>
<pdfrwt beam="1">  1        2 0.33389327E+00 0.33785664E+04</pdfrwt>
<pdfrwt beam="2">  1       -2 0.20228820E+00 0.33785664E+04</pdfrwt>
<totfact> 0.57220498E-01</totfact>
</mgrwt>
</event>
<event>
 4    1  0.2019612E-008  0.3164736E+04  0.7816531E-02  0.8198193E-01
         -2   -1    0    0    0  501 -0.00000000000E+00  0.00000000000E+00  0.30144991385E+04  0.30144991385E+04  0.00000000000E+00 0. -1.
          2   -1    0    0  501    0  0.00000000000E+00 -0.00000000000E+00 -0.83061498394E+03  0.83061498394E+03  0.00000000000E+00 0.  1.
    2000013    1    1    2    0    0  0.73613013822E+03 -0.94831577926E+03  0.60564686949E+03  0.16463591735E+04  0.95000000000E+03 0.  0.
   -2000013    1    1    2    0    0 -0.73613013822E+03  0.94831577926E+03  0.15782372851E+04  0.21987549490E+04  0.95000000000E+03 0.  0.
<mgrwt>
<rscale>  0 0.31647358E+04</rscale>
<asrwt>0</asrwt>
<pdfrwt beam="2">  1        2 0.12778692E+00 0.31647358E+04</pdfrwt>
<pdfrwt beam="1">  1       -2 0.46376909E+00 0.31647358E+04</pdfrwt>
<totfact> 0.77764830E-02</totfact>
</mgrwt>
</event>
<event>
 4    1  0.2019612E-008  0.2443668E+04  0.7816531E-02  0.8423333E-01
          2   -1    0    0  501    0  0.00000000000E+00  0.00000000000E+00  0.10931715106E+04  0.10931715106E+04  0.00000000000E+00 0.  1.
         -2   -1    0    0    0  501 -0.00000000000E+00 -0.00000000000E+00 -0.13656397868E+04  0.13656397868E+04  0.00000000000E+00 0. -1.
    2000013    1    1    2    0    0  0.52238704237E+02 -0.65065642752E+03  0.27161190615E+03  0.11842110017E+04  0.95000000000E+03 0.  0.
   -2000013    1    1    2    0    0 -0.52238704237E+02  0.65065642752E+03 -0.54408018234E+03  0.12746002957E+04  0.95000000000E+03 0.  0.
<mgrwt>
<rscale>  0 0.24436682E+04</rscale>
<asrwt>0</asrwt>
<pdfrwt beam="1">  1        2 0.16818023E+00 0.24436682E+04</pdfrwt>
<pdfrwt beam="2">  1       -2 0.21009843E+00 0.24436682E+04</pdfrwt>
<totfact> 0.22535958E+00</totfact>
</mgrwt>
</event>
<event>
 4    1  0.2019612E-008  0.2398501E+04  0.7816531E-02  0.8440065E-01
          2   -1    0    0  501    0  0.00000000000E+00  0.00000000000E+00  0.57878647442E+03  0.57878647442E+03  0.00000000000E+00 0.  1.
         -2   -1    0    0    0  501 -0.00000000000E+00 -0.00000000000E+00 -0.24848576833E+04  0.24848576833E+04  0.00000000000E+00 0. -1.
    2000013    1    1    2    0    0  0.39634201667E+03  0.59577751066E+03 -0.75654394412E+03  0.14095731892E+04  0.95000000000E+03 0.  0.
   -2000013    1    1    2    0    0 -0.39634201667E+03 -0.59577751066E+03 -0.11495272648E+04  0.16540709685E+04  0.95000000000E+03 0.  0.
<mgrwt>
<rscale>  0 0.23985012E+04</rscale>
<asrwt>0</asrwt>
<pdfrwt beam="1">  1        2 0.89044073E-01 0.23985012E+04</pdfrwt>
<pdfrwt beam="2">  1       -2 0.38228580E+00 0.23985012E+04</pdfrwt>
<totfact> 0.45118904E-01</totfact>
</mgrwt>
</event>
<event>
 4    1  0.2019612E-008  0.2142910E+04  0.7816531E-02  0.8542573E-01
         -2   -1    0    0    0  501 -0.00000000000E+00  0.00000000000E+00  0.88666731888E+03  0.88666731888E+03  0.00000000000E+00 0. -1.
          2   -1    0    0  501    0  0.00000000000E+00 -0.00000000000E+00 -0.12947538928E+04  0.12947538928E+04  0.00000000000E+00 0.  1.
    2000013    1    1    2    0    0 -0.24054629344E+03 -0.42469924926E+03 -0.29092337979E+03  0.11069635877E+04  0.95000000000E+03 0.  0.
   -2000013    1    1    2    0    0  0.24054629344E+03  0.42469924926E+03 -0.11716319412E+03  0.10744576240E+04  0.95000000000E+03 0.  0.
<mgrwt>
<rscale>  0 0.21429101E+04</rscale>
<asrwt>0</asrwt>
<pdfrwt beam="2">  1        2 0.19919291E+00 0.21429101E+04</pdfrwt>
<pdfrwt beam="1">  1       -2 0.13641036E+00 0.21429101E+04</pdfrwt>
<totfact> 0.58741277E+00</totfact>
</mgrwt>
</event>
<event>
 4    1  0.2019612E-008  0.2155913E+04  0.7816531E-02  0.8537005E-01
         -1   -1    0    0    0  501 -0.00000000000E+00  0.00000000000E+00  0.52214017791E+03  0.52214017791E+03  0.00000000000E+00 0. -1.
          1   -1    0    0  501    0  0.00000000000E+00 -0.00000000000E+00 -0.22254371196E+04  0.22254371196E+04  0.00000000000E+00 0.  1.
    2000013    1    1    2    0    0 -0.37025130360E+03 -0.33260779538E+03 -0.98994795367E+03  0.14595242116E+04  0.95000000000E+03 0.  0.
   -2000013    1    1    2    0    0  0.37025130360E+03  0.33260779538E+03 -0.71334898805E+03  0.12880530859E+04  0.95000000000E+03 0.  0.
<mgrwt>
<rscale>  0 0.21559129E+04</rscale>
<asrwt>0</asrwt>
<pdfrwt beam="2">  1        1 0.34237494E+00 0.21559129E+04</pdfrwt>
<pdfrwt beam="1">  1       -1 0.80329259E-01 0.21559129E+04</pdfrwt>
<totfact> 0.29619249E+00</totfact>
</mgrwt>
</event>
<event>
 4    1  0.2019612E-008  0.2102603E+04  0.7816531E-02  0.8560097E-01
          2   -1    0    0  501    0  0.00000000000E+00  0.00000000000E+00  0.17337587684E+04  0.17337587684E+04  0.00000000000E+00 0.  1.
         -2   -1    0    0    0  501 -0.00000000000E+00 -0.00000000000E+00 -0.63747925419E+03  0.63747925419E+03  0.00000000000E+00 0. -1.
    2000013    1    1    2    0    0 -0.22957875837E+03 -0.28937255582E+03  0.83850828670E+03  0.13198632616E+04  0.95000000000E+03 0.  0.
   -2000013    1    1    2    0    0  0.22957875837E+03  0.28937255582E+03  0.25777122750E+03  0.10513747610E+04  0.95000000000E+03 0.  0.
<mgrwt>
<rscale>  0 0.21026034E+04</rscale>
<asrwt>0</asrwt>
<pdfrwt beam="1">  1        2 0.26673212E+00 0.21026034E+04</pdfrwt>
<pdfrwt beam="2">  1       -2 0.98073732E-01 0.21026034E+04</pdfrwt>
<totfact> 0.74840083E+00</totfact>
</mgrwt>
</event>
<event>
 4    1  0.2019612E-008  0.3355478E+04  0.7816531E-02  0.8148921E-01
          2   -1    0    0  501    0  0.00000000000E+00  0.00000000000E+00  0.39449235616E+04  0.39449235616E+04  0.00000000000E+00 0.  1.
         -2   -1    0    0    0  501 -0.00000000000E+00 -0.00000000000E+00 -0.71352662930E+03  0.71352662930E+03  0.00000000000E+00 0. -1.
    2000013    1    1    2    0    0 -0.40425397467E+03 -0.13194816728E+04  0.14926557119E+04  0.22438748261E+04  0.95000000000E+03 0.  0.
   -2000013    1    1    2    0    0  0.40425397467E+03  0.13194816728E+04  0.17387412203E+04  0.24145753648E+04  0.95000000000E+03 0.  0.
<mgrwt>
<rscale>  0 0.33554779E+04</rscale>
<asrwt>0</asrwt>
<pdfrwt beam="1">  1        2 0.60691131E+00 0.33554779E+04</pdfrwt>
<pdfrwt beam="2">  1       -2 0.10977333E+00 0.33554779E+04</pdfrwt>
<totfact> 0.20751585E-01</totfact>
</mgrwt>
</event>
<event>
 4    1  0.2019612E-008  0.3315938E+04  0.7816531E-02  0.8158852E-01
          2   -1    0    0  501    0  0.00000000000E+00  0.00000000000E+00  0.12329146179E+04  0.12329146179E+04  0.00000000000E+00 0.  1.
         -2   -1    0    0    0  501 -0.00000000000E+00 -0.00000000000E+00 -0.22295634859E+04  0.22295634859E+04  0.00000000000E+00 0. -1.
    2000013    1    1    2    0    0  0.12078957888E+04  0.61597413705E+03 -0.59128126939E+03  0.17579959936E+04  0.95000000000E+03 0.  0.
   -2000013    1    1    2    0    0 -0.12078957888E+04 -0.61597413705E+03 -0.40536759858E+03  0.17044821102E+04  0.95000000000E+03 0.  0.
<mgrwt>
<rscale>  0 0.33159381E+04</rscale>
<asrwt>0</asrwt>
<pdfrwt beam="1">  1        2 0.18967917E+00 0.33159381E+04</pdfrwt>
<pdfrwt beam="2">  1       -2 0.34300977E+00 0.33159381E+04</pdfrwt>
<totfact> 0.25989395E-01</totfact>
</mgrwt>
</event>
<event>
 4    1  0.2019612E-008  0.2670982E+04  0.7816531E-02  0.8344482E-01
          2   -1    0    0  501    0  0.00000000000E+00  0.00000000000E+00  0.16216830581E+04  0.16216830581E+04  0.00000000000E+00 0.  1.
         -2   -1    0    0    0  501 -0.00000000000E+00 -0.00000000000E+00 -0.10998053550E+04  0.10998053550E+04  0.00000000000E+00 0. -1.
    2000013    1    1    2    0    0  0.37707931009E+03  0.22080389675E+03  0.11073653615E+04  0.15230565356E+04  0.95000000000E+03 0.  0.
   -2000013    1    1    2    0    0 -0.37707931009E+03 -0.22080389675E+03 -0.58548765833E+03  0.11984318775E+04  0.95000000000E+03 0.  0.
<mgrwt>
<rscale>  0 0.26709816E+04</rscale>
<asrwt>0</asrwt>
<pdfrwt beam="1">  1        2 0.24948970E+00 0.26709816E+04</pdfrwt>
<pdfrwt beam="2">  1       -2 0.16920082E+00 0.26709816E+04</pdfrwt>
<totfact> 0.20597793E+00</totfact>
</mgrwt>
</event>
<event>
 4    1  0.2019612E-008  0.2033163E+04  0.7816531E-02  0.8591271E-01
          2   -1    0    0  501    0  0.00000000000E+00  0.00000000000E+00  0.27301388167E+04  0.27301388167E+04  0.00000000000E+00 0.  1.
         -2   -1    0    0    0  501 -0.00000000000E+00 -0.00000000000E+00 -0.37852962025E+03  0.37852962025E+03  0.00000000000E+00 0. -1.
    2000013    1    1    2    0    0  0.26291214332E+03  0.22107635920E+03  0.10018709360E+04  0.14227589129E+04  0.95000000000E+03 0.  0.
   -2000013    1    1    2    0    0 -0.26291214332E+03 -0.22107635920E+03  0.13497382605E+04  0.16859095241E+04  0.95000000000E+03 0.  0.
<mgrwt>
<rscale>  0 0.20331635E+04</rscale>
<asrwt>0</asrwt>
<pdfrwt beam="1">  1        2 0.42002134E+00 0.20331635E+04</pdfrwt>
<pdfrwt beam="2">  1       -2 0.58235328E-01 0.20331635E+04</pdfrwt>
<totfact> 0.65185825E+00</totfact>
</mgrwt>
</event>
<event>
 4    1  0.2019612E-008  0.2366504E+04  0.7816531E-02  0.8452151E-01
          1   -1    0    0  501    0  0.00000000000E+00  0.00000000000E+00  0.11470102328E+04  0.11470102328E+04  0.00000000000E+00 0.  1.
         -1   -1    0    0    0  501 -0.00000000000E+00 -0.00000000000E+00 -0.12206389571E+04  0.12206389571E+04  0.00000000000E+00 0. -1.
    2000013    1    1    2    0    0 -0.20023591750E+03  0.15340817428E+03 -0.69588716427E+03  0.12043203212E+04  0.95000000000E+03 0.  0.
   -2000013    1    1    2    0    0  0.20023591750E+03 -0.15340817428E+03  0.62225844004E+03  0.11633288687E+04  0.95000000000E+03 0.  0.
<mgrwt>
<rscale>  0 0.23665041E+04</rscale>
<asrwt>0</asrwt>
<pdfrwt beam="1">  1        1 0.17646311E+00 0.23665041E+04</pdfrwt>
<pdfrwt beam="2">  1       -1 0.18779061E+00 0.23665041E+04</pdfrwt>
<totfact> 0.19245020E+00</totfact>
</mgrwt>
</event>
<event>
 4    1  0.2019612E-008  0.2106863E+04  0.7816531E-02  0.8558226E-01
         -2   -1    0    0    0  501 -0.00000000000E+00  0.00000000000E+00  0.53387842851E+03  0.53387842851E+03  0.00000000000E+00 0. -1.
          2   -1    0    0  501    0  0.00000000000E+00 -0.00000000000E+00 -0.20785973578E+04  0.20785973578E+04  0.00000000000E+00 0.  1.
    2000013    1    1    2    0    0 -0.19605068897E+03  0.34353163569E+03 -0.49296822297E+03  0.11410379162E+04  0.95000000000E+03 0.  0.
   -2000013    1    1    2    0    0  0.19605068897E+03 -0.34353163569E+03 -0.10517507064E+04  0.14714378701E+04  0.95000000000E+03 0.  0.
<mgrwt>
<rscale>  0 0.21068633E+04</rscale>
<asrwt>0</asrwt>
<pdfrwt beam="2">  1        2 0.31978421E+00 0.21068633E+04</pdfrwt>
<pdfrwt beam="1">  1       -2 0.82135144E-01 0.21068633E+04</pdfrwt>
<totfact> 0.72450894E+00</totfact>
</mgrwt>
</event>
<event>
 4    1  0.2019612E-008  0.2521231E+04  0.7816531E-02  0.8395461E-01
         -2   -1    0    0    0  501 -0.00000000000E+00  0.00000000000E+00  0.10283850392E+04  0.10283850392E+04  0.00000000000E+00 0. -1.
          2   -1    0    0  501    0  0.00000000000E+00 -0.00000000000E+00 -0.15452886624E+04  0.15452886624E+04  0.00000000000E+00 0.  1.
    2000013    1    1    2    0    0 -0.21064059223E+03 -0.80112459004E+03 -0.28085538470E+03  0.12913364453E+04  0.95000000000E+03 0.  0.
   -2000013    1    1    2    0    0  0.21064059223E+03  0.80112459004E+03 -0.23604823853E+03  0.12823372563E+04  0.95000000000E+03 0.  0.
<mgrwt>
<rscale>  0 0.25212312E+04</rscale>
<asrwt>0</asrwt>
<pdfrwt beam="2">  1        2 0.23773672E+00 0.25212312E+04</pdfrwt>
<pdfrwt beam="1">  1       -2 0.15821308E+00 0.25212312E+04</pdfrwt>
<totfact> 0.27679421E+00</totfact>
</mgrwt>
</event>
<event>
 4    1  0.2019612E-008  0.2868693E+04  0.7816531E-02  0.8282254E-01
          2   -1    0    0  501    0  0.00000000000E+00  0.00000000000E+00  0.12960447704E+04  0.12960447704E+04  0.00000000000E+00 0.  1.
         -2   -1    0    0    0  501 -0.00000000000E+00 -0.00000000000E+00 -0.15874067808E+04  0.15874067808E+04  0.00000000000E+00 0. -1.
    2000013    1    1    2    0    0 -0.27523986917E+02 -0.10694038397E+04 -0.24852117315E+03  0.14521173905E+04  0.95000000000E+03 0.  0.
   -2000013    1    1    2    0    0  0.27523986917E+02  0.10694038397E+04 -0.42840837292E+02  0.14313341607E+04  0.95000000000E+03 0.  0.
<mgrwt>
<rscale>  0 0.28686933E+04</rscale>
<asrwt>0</asrwt>
<pdfrwt beam="1">  1        2 0.19939150E+00 0.28686933E+04</pdfrwt>
<pdfrwt beam="2">  1       -2 0.24421643E+00 0.28686933E+04</pdfrwt>
<totfact> 0.10031829E+00</totfact>
</mgrwt>
</event>
<event>
 4    1  0.2019612E-008  0.2032784E+04  0.7816531E-02  0.8591445E-01
          2   -1    0    0  501    0  0.00000000000E+00  0.00000000000E+00  0.24257525642E+04  0.24257525642E+04  0.00000000000E+00 0.  1.
         -2   -1    0    0    0  501 -0.00000000000E+00 -0.00000000000E+00 -0.42586893208E+03  0.42586893208E+03  0.00000000000E+00 0. -1.
    2000013    1    1    2    0    0  0.17409106691E+03 -0.24181736524E+03  0.12866429024E+04  0.16268783901E+04  0.95000000000E+03 0.  0.
   -2000013    1    1    2    0    0 -0.17409106691E+03  0.24181736524E+03  0.71324072971E+03  0.12247431062E+04  0.95000000000E+03 0.  0.
<mgrwt>
<rscale>  0 0.20327840E+04</rscale>
<asrwt>0</asrwt>
<pdfrwt beam="1">  1        2 0.37319270E+00 0.20327840E+04</pdfrwt>
<pdfrwt beam="2">  1       -2 0.65518298E-01 0.20327840E+04</pdfrwt>
<totfact> 0.76433063E+00</totfact>
</mgrwt>
</event>
<event>
 4    1  0.2019612E-008  0.3038948E+04  0.7816531E-02  0.8232696E-01
         -2   -1    0    0    0  501 -0.00000000000E+00  0.00000000000E+00  0.71719840339E+03  0.71719840339E+03  0.00000000000E+00 0. -1.
          2   -1    0    0  501    0  0.00000000000E+00 -0.00000000000E+00 -0.32191943286E+04  0.32191943286E+04  0.00000000000E+00 0.  1.
    2000013    1    1    2    0    0 -0.82819988359E+03 -0.83662883293E+03 -0.14361789075E+04  0.20858985368E+04  0.95000000000E+03 0.  0.
   -2000013    1    1    2    0    0  0.82819988359E+03  0.83662883293E+03 -0.10658170176E+04  0.18504941952E+04  0.95000000000E+03 0.  0.
<mgrwt>
<rscale>  0 0.30389479E+04</rscale>
<asrwt>0</asrwt>
<pdfrwt beam="2">  1        2 0.49526066E+00 0.30389479E+04</pdfrwt>
<pdfrwt beam="1">  1       -2 0.11033822E+00 0.30389479E+04</pdfrwt>
<totfact> 0.70048058E-01</totfact>
</mgrwt>
</event>
<event>
 4    1  0.2019612E-008  0.4357010E+04  0.7816531E-02  0.7936160E-01
          2   -1    0    0  501    0  0.00000000000E+00  0.00000000000E+00  0.34616532754E+04  0.34616532754E+04  0.00000000000E+00 0.  1.
         -2   -1    0    0    0  501 -0.00000000000E+00 -0.00000000000E+00 -0.13709879746E+04  0.13709879746E+04  0.00000000000E+00 0. -1.
    2000013    1    1    2    0    0  0.63767608231E+03 -0.18222376743E+04  0.66723267167E+03  0.22527495125E+04  0.95000000000E+03 0.  0.
   -2000013    1    1    2    0    0 -0.63767608231E+03  0.18222376743E+04  0.14234326291E+04  0.25798917375E+04  0.95000000000E+03 0.  0.
<mgrwt>
<rscale>  0 0.43570104E+04</rscale>
<asrwt>0</asrwt>
<pdfrwt beam="1">  1        2 0.53256204E+00 0.43570104E+04</pdfrwt>
<pdfrwt beam="2">  1       -2 0.21092123E+00 0.43570104E+04</pdfrwt>
<totfact> 0.74726932E-02</totfact>
</mgrwt>
</event>
<event>
 4    1  0.2019612E-008  0.2283721E+04  0.7816531E-02  0.8484367E-01
          2   -1    0    0  501    0  0.00000000000E+00  0.00000000000E+00  0.29855976004E+04  0.29855976004E+04  0.00000000000E+00 0.  1.
         -2   -1    0    0    0  501 -0.00000000000E+00 -0.00000000000E+00 -0.43671186089E+03  0.43671186089E+03  0.00000000000E+00 0. -1.
    2000013    1    1    2    0    0 -0.15731774798E+03  0.90226357407E+02  0.36480382165E+03  0.10336689498E+04  0.95000000000E+03 0.  0.
   -2000013    1    1    2    0    0  0.15731774798E+03 -0.90226357407E+02  0.21840819178E+04  0.23886405115E+04  0.95000000000E+03 0.  0.
<mgrwt>
<rscale>  0 0.22837214E+04</rscale>
<asrwt>0</asrwt>
<pdfrwt beam="1">  1        2 0.45932269E+00 0.22837214E+04</pdfrwt>
<pdfrwt beam="2">  1       -2 0.67186442E-01 0.22837214E+04</pdfrwt>
<totfact> 0.32829794E+00</totfact>
</mgrwt>
</event>
<event>
 4    1  0.2019612E-008  0.2983654E+04  0.7816531E-02  0.8248414E-01
         -2   -1    0    0    0  501 -0.00000000000E+00  0.00000000000E+00  0.90375493532E+03  0.90375493532E+03  0.00000000000E+00 0. -1.
          2   -1    0    0  501    0  0.00000000000E+00 -0.00000000000E+00 -0.24625565548E+04  0.24625565548E+04  0.00000000000E+00 0.  1.
    2000013    1    1    2    0    0  0.60322840037E+03 -0.92260991912E+03 -0.40869842960E+03  0.15114985849E+04  0.95000000000E+03 0.  0.
   -2000013    1    1    2    0    0 -0.60322840037E+03  0.92260991912E+03 -0.11501031898E+04  0.18548129052E+04  0.95000000000E+03 0.  0.
<mgrwt>
<rscale>  0 0.29836539E+04</rscale>
<asrwt>0</asrwt>
<pdfrwt beam="2">  1        2 0.37885485E+00 0.29836539E+04</pdfrwt>
<pdfrwt beam="1">  1       -2 0.13903922E+00 0.29836539E+04</pdfrwt>
<totfact> 0.11466623E+00</totfact>
</mgrwt>
</event>
<event>
 4    1  0.2019612E-008  0.2574155E+04  0.7816531E-02  0.8377034E-01
         -2   -1    0    0    0  501 -0.00000000000E+00  0.00000000000E+00  0.11381050901E+04  0.11381050901E+04  0.00000000000E+00 0. -1.
          2   -1    0    0  501    0  0.00000000000E+00 -0.00000000000E+00 -0.14555491131E+04  0.14555491131E+04  0.00000000000E+00 0.  1.
    2000013    1    1    2    0    0 -0.20710302720E+02 -0.84353324593E+03  0.47992052919E+02  0.12715268345E+04  0.95000000000E+03 0.  0.
   -2000013    1    1    2    0    0  0.20710302720E+02  0.84353324593E+03 -0.36543607588E+03  0.13221273687E+04  0.95000000000E+03 0.  0.
<mgrwt>
<rscale>  0 0.25741545E+04</rscale>
<asrwt>0</asrwt>
<pdfrwt beam="2">  1        2 0.22393063E+00 0.25741545E+04</pdfrwt>
<pdfrwt beam="1">  1       -2 0.17509309E+00 0.25741545E+04</pdfrwt>
<totfact> 0.23397092E+00</totfact>
</mgrwt>
</event>
<event>
 4    1  0.2019612E-008  0.2052878E+04  0.7816531E-02  0.8582290E-01
          2   -1    0    0  501    0  0.00000000000E+00  0.00000000000E+00  0.22706702292E+04  0.22706702292E+04  0.00000000000E+00 0.  1.
         -2   -1    0    0    0  501 -0.00000000000E+00 -0.00000000000E+00 -0.46399384046E+03  0.46399384046E+03  0.00000000000E+00 0. -1.
    2000013    1    1    2    0    0 -0.31062566153E+03  0.74742256126E+02  0.60845565873E+03  0.11725156694E+04  0.95000000000E+03 0.  0.
   -2000013    1    1    2    0    0  0.31062566153E+03 -0.74742256126E+02  0.11982207300E+04  0.15621484002E+04  0.95000000000E+03 0.  0.
<mgrwt>
<rscale>  0 0.20528780E+04</rscale>
<asrwt>0</asrwt>
<pdfrwt beam="1">  1        2 0.34933388E+00 0.20528780E+04</pdfrwt>
<pdfrwt beam="2">  1       -2 0.71383669E-01 0.20528780E+04</pdfrwt>
<totfact> 0.77608670E+00</totfact>
</mgrwt>
</event>
<event>
 4    1  0.2019612E-008  0.2065912E+04  0.7816531E-02  0.8576410E-01
         -2   -1    0    0    0  501 -0.00000000000E+00  0.00000000000E+00  0.53975644783E+03  0.53975644783E+03  0.00000000000E+00 0. -1.
          2   -1    0    0  501    0  0.00000000000E+00 -0.00000000000E+00 -0.19768130550E+04  0.19768130550E+04  0.00000000000E+00 0.  1.
    2000013    1    1    2    0    0  0.20941015337E+03 -0.26029586812E+03 -0.43837982230E+03  0.10983093462E+04  0.95000000000E+03 0.  0.
   -2000013    1    1    2    0    0 -0.20941015337E+03  0.26029586812E+03 -0.99867678488E+03  0.14182601567E+04  0.95000000000E+03 0.  0.
<mgrwt>
<rscale>  0 0.20659115E+04</rscale>
<asrwt>0</asrwt>
<pdfrwt beam="2">  1        2 0.30412509E+00 0.20659115E+04</pdfrwt>
<pdfrwt beam="1">  1       -2 0.83039453E-01 0.20659115E+04</pdfrwt>
<totfact> 0.80804929E+00</totfact>
</mgrwt>
</event>
<event>
 4    1  0.2019612E-008  0.2277360E+04  0.7816531E-02  0.8486901E-01
         -2   -1    0    0    0  501 -0.00000000000E+00  0.00000000000E+00  0.81942790611E+03  0.81942790611E+03  0.00000000000E+00 0. -1.
          2   -1    0    0  501    0  0.00000000000E+00 -0.00000000000E+00 -0.15823144044E+04  0.15823144044E+04  0.00000000000E+00 0.  1.
    2000013    1    1    2    0    0  0.44736426451E+03  0.32322472826E+03 -0.69691922788E+03  0.13010785604E+04  0.95000000000E+03 0.  0.
   -2000013    1    1    2    0    0 -0.44736426451E+03 -0.32322472826E+03 -0.65967270437E+02  0.11006637501E+04  0.95000000000E+03 0.  0.
<mgrwt>
<rscale>  0 0.22773604E+04</rscale>
<asrwt>0</asrwt>
<pdfrwt beam="2">  1        2 0.24343298E+00 0.22773604E+04</pdfrwt>
<pdfrwt beam="1">  1       -2 0.12606583E+00 0.22773604E+04</pdfrwt>
<totfact> 0.48646503E+00</totfact>
</mgrwt>
</event>
<event>
 4    1  0.2019612E-008  0.2617566E+04  0.7816531E-02  0.8362259E-01
         -2   -1    0    0    0  501 -0.00000000000E+00  0.00000000000E+00  0.83254157320E+03  0.83254157320E+03  0.00000000000E+00 0. -1.
          2   -1    0    0  501    0  0.00000000000E+00 -0.00000000000E+00 -0.20574509800E+04  0.20574509800E+04  0.00000000000E+00 0.  1.
    2000013    1    1    2    0    0 -0.70000885867E+03  0.49820247655E+03 -0.90911107160E+03  0.15707326476E+04  0.95000000000E+03 0.  0.
   -2000013    1    1    2    0    0  0.70000885867E+03 -0.49820247655E+03 -0.31579833519E+03  0.13192599055E+04  0.95000000000E+03 0.  0.
<mgrwt>
<rscale>  0 0.26175664E+04</rscale>
<asrwt>0</asrwt>
<pdfrwt beam="2">  1        2 0.31653092E+00 0.26175664E+04</pdfrwt>
<pdfrwt beam="1">  1       -2 0.12808332E+00 0.26175664E+04</pdfrwt>
<totfact> 0.24720101E+00</totfact>
</mgrwt>
</event>
<event>
 4    1  0.2019612E-008  0.2205969E+04  0.7816531E-02  0.8515948E-01
         -2   -1    0    0    0  501 -0.00000000000E+00  0.00000000000E+00  0.33149034630E+03  0.33149034630E+03  0.00000000000E+00 0.  1.
          2   -1    0    0  501    0  0.00000000000E+00 -0.00000000000E+00 -0.36700173688E+04  0.36700173688E+04  0.00000000000E+00 0. -1.
    2000013    1    1    2    0    0 -0.44490594528E+03  0.30974827926E+03 -0.19270099436E+04  0.22157961593E+04  0.95000000000E+03 0.  0.
   -2000013    1    1    2    0    0  0.44490594528E+03 -0.30974827926E+03 -0.14115170789E+04  0.17857115559E+04  0.95000000000E+03 0.  0.
<mgrwt>
<rscale>  0 0.22059695E+04</rscale>
<asrwt>0</asrwt>
<pdfrwt beam="2">  1        2 0.56461808E+00 0.22059695E+04</pdfrwt>
<pdfrwt beam="1">  1       -2 0.50998513E-01 0.22059695E+04</pdfrwt>
<totfact> 0.20482486E+00</totfact>
</mgrwt>
</event>
<event>
 4    1  0.2019612E-008  0.3055508E+04  0.7816531E-02  0.8228055E-01
         -1   -1    0    0    0  501 -0.00000000000E+00  0.00000000000E+00  0.95327898189E+03  0.95327898189E+03  0.00000000000E+00 0. -1.
          1   -1    0    0  501    0  0.00000000000E+00 -0.00000000000E+00 -0.24484253435E+04  0.24484253435E+04  0.00000000000E+00 0.  1.
    2000013    1    1    2    0    0 -0.18550508137E+03  0.11206766097E+04 -0.11659204734E+04  0.18847277652E+04  0.95000000000E+03 0.  0.
   -2000013    1    1    2    0    0  0.18550508137E+03 -0.11206766097E+04 -0.32922588821E+03  0.15169765602E+04  0.95000000000E+03 0.  0.
<mgrwt>
<rscale>  0 0.30555081E+04</rscale>
<asrwt>0</asrwt>
<pdfrwt beam="2">  1        1 0.37668082E+00 0.30555081E+04</pdfrwt>
<pdfrwt beam="1">  1       -1 0.14665831E+00 0.30555081E+04</pdfrwt>
<totfact> 0.46167982E-01</totfact>
</mgrwt>
</event>
<event>
 4    1  0.2019612E-008  0.2634496E+04  0.7816531E-02  0.8356577E-01
          2   -1    0    0  501    0  0.00000000000E+00  0.00000000000E+00  0.83178179462E+03  0.83178179462E+03  0.00000000000E+00 0.  1.
         -2   -1    0    0    0  501 -0.00000000000E+00 -0.00000000000E+00 -0.20860538954E+04  0.20860538954E+04  0.00000000000E+00 0. -1.
    2000013    1    1    2    0    0 -0.67939083339E+03 -0.53839418418E+03 -0.31153004173E+03  0.13232502292E+04  0.95000000000E+03 0.  0.
   -2000013    1    1    2    0    0  0.67939083339E+03  0.53839418418E+03 -0.94274205900E+03  0.15945854608E+04  0.95000000000E+03 0.  0.
<mgrwt>
<rscale>  0 0.26344955E+04</rscale>
<asrwt>0</asrwt>
<pdfrwt beam="1">  1        2 0.12796643E+00 0.26344955E+04</pdfrwt>
<pdfrwt beam="2">  1       -2 0.32093137E+00 0.26344955E+04</pdfrwt>
<totfact> 0.68139532E-01</totfact>
</mgrwt>
</event>
<event>
 4    1  0.2019612E-008  0.2273050E+04  0.7816531E-02  0.8488623E-01
         -1   -1    0    0    0  501 -0.00000000000E+00  0.00000000000E+00  0.51623062983E+03  0.51623062983E+03  0.00000000000E+00 0.  1.
          1   -1    0    0  501    0  0.00000000000E+00 -0.00000000000E+00 -0.25021559207E+04  0.25021559207E+04  0.00000000000E+00 0. -1.
    2000013    1    1    2    0    0 -0.41228217405E+03  0.26607009061E+03 -0.48138508906E+03  0.11726045745E+04  0.95000000000E+03 0.  0.
   -2000013    1    1    2    0    0  0.41228217405E+03 -0.26607009061E+03 -0.15045402018E+04  0.18457819760E+04  0.95000000000E+03 0.  0.
<mgrwt>
<rscale>  0 0.22730504E+04</rscale>
<asrwt>0</asrwt>
<pdfrwt beam="2">  1        1 0.38494707E+00 0.22730504E+04</pdfrwt>
<pdfrwt beam="1">  1       -1 0.79420096E-01 0.22730504E+04</pdfrwt>
<totfact> 0.19376531E+00</totfact>
</mgrwt>
</event>
<event>
 4    1  0.2019612E-008  0.4030249E+04  0.7816531E-02  0.7998472E-01
         -2   -1    0    0    0  501 -0.00000000000E+00  0.00000000000E+00  0.11867304379E+04  0.11867304379E+04  0.00000000000E+00 0. -1.
          2   -1    0    0  501    0  0.00000000000E+00 -0.00000000000E+00 -0.34217775097E+04  0.34217775097E+04  0.00000000000E+00 0.  1.
    2000013    1    1    2    0    0 -0.12504590234E+04 -0.34421443796E+03  0.27174355382E+03  0.16304833356E+04  0.95000000000E+03 0.  0.
   -2000013    1    1    2    0    0  0.12504590234E+04  0.34421443796E+03 -0.25067906256E+04  0.29780246119E+04  0.95000000000E+03 0.  0.
<mgrwt>
<rscale>  0 0.40302494E+04</rscale>
<asrwt>0</asrwt>
<pdfrwt beam="2">  1        2 0.52642729E+00 0.40302494E+04</pdfrwt>
<pdfrwt beam="1">  1       -2 0.18257392E+00 0.40302494E+04</pdfrwt>
<totfact> 0.12599320E-01</totfact>
</mgrwt>
</event>
<event>
 4    1  0.2019612E-008  0.3138678E+04  0.7816531E-02  0.8205203E-01
         -2   -1    0    0    0  501 -0.00000000000E+00  0.00000000000E+00  0.20861437253E+04  0.20861437253E+04  0.00000000000E+00 0. -1.
          2   -1    0    0  501    0  0.00000000000E+00 -0.00000000000E+00 -0.11805631895E+04  0.11805631895E+04  0.00000000000E+00 0.  1.
    2000013    1    1    2    0    0  0.79923558002E+03 -0.45595561582E+02  0.14507930669E+04  0.19100149189E+04  0.95000000000E+03 0.  0.
   -2000013    1    1    2    0    0 -0.79923558002E+03  0.45595561582E+02 -0.54521253111E+03  0.13566919959E+04  0.95000000000E+03 0.  0.
<mgrwt>
<rscale>  0 0.31386777E+04</rscale>
<asrwt>0</asrwt>
<pdfrwt beam="2">  1        2 0.18162511E+00 0.31386777E+04</pdfrwt>
<pdfrwt beam="1">  1       -2 0.32094519E+00 0.31386777E+04</pdfrwt>
<totfact> 0.38893487E-01</totfact>
</mgrwt>
</event>
<event>
 4    1  0.2019612E-008  0.4189337E+04  0.7816531E-02  0.7967404E-01
          2   -1    0    0  501    0  0.00000000000E+00  0.00000000000E+00  0.30505553881E+04  0.30505553881E+04  0.00000000000E+00 0.  1.
         -2   -1    0    0    0  501 -0.00000000000E+00 -0.00000000000E+00 -0.14383074067E+04  0.14383074067E+04  0.00000000000E+00 0. -1.
    2000013    1    1    2    0    0  0.11890063978E+04  0.62739711229E+03 -0.58177425803E+03  0.17459451990E+04  0.95000000000E+03 0.  0.
   -2000013    1    1    2    0    0 -0.11890063978E+04 -0.62739711229E+03  0.21940222394E+04  0.27429175958E+04  0.95000000000E+03 0.  0.
<mgrwt>
<rscale>  0 0.41893371E+04</rscale>
<asrwt>0</asrwt>
<pdfrwt beam="1">  1        2 0.46931621E+00 0.41893371E+04</pdfrwt>
<pdfrwt beam="2">  1       -2 0.22127806E+00 0.41893371E+04</pdfrwt>
<totfact> 0.12186506E-01</totfact>
</mgrwt>
</event>
<event>
 4    1  0.2019612E-008  0.2627552E+04  0.7816531E-02  0.8358902E-01
         -2   -1    0    0    0  501 -0.00000000000E+00  0.00000000000E+00  0.69826629040E+03  0.69826629040E+03  0.00000000000E+00 0. -1.
          2   -1    0    0  501    0  0.00000000000E+00 -0.00000000000E+00 -0.24718472147E+04  0.24718472147E+04  0.00000000000E+00 0.  1.
    2000013    1    1    2    0    0  0.28171623916E+03  0.85274386035E+03 -0.72961563336E+03  0.14971222740E+04  0.95000000000E+03 0.  0.
   -2000013    1    1    2    0    0 -0.28171623916E+03 -0.85274386035E+03 -0.10439652910E+04  0.16729912312E+04  0.95000000000E+03 0.  0.
<mgrwt>
<rscale>  0 0.26275522E+04</rscale>
<asrwt>0</asrwt>
<pdfrwt beam="2">  1        2 0.38028419E+00 0.26275522E+04</pdfrwt>
<pdfrwt beam="1">  1       -2 0.10742558E+00 0.26275522E+04</pdfrwt>
<totfact> 0.22188080E+00</totfact>
</mgrwt>
</event>
<event>
 4    1  0.2019612E-008  0.2579728E+04  0.7816531E-02  0.8375120E-01
          2   -1    0    0  501    0  0.00000000000E+00  0.00000000000E+00  0.25925933356E+04  0.25925933356E+04  0.00000000000E+00 0.  1.
         -2   -1    0    0    0  501 -0.00000000000E+00 -0.00000000000E+00 -0.64173179268E+03  0.64173179268E+03  0.00000000000E+00 0. -1.
    2000013    1    1    2    0    0 -0.55249516820E+03 -0.25517644023E+02  0.12940969349E+03  0.11068644586E+04  0.95000000000E+03 0.  0.
   -2000013    1    1    2    0    0  0.55249516820E+03  0.25517644023E+02  0.18214518494E+04  0.21274606696E+04  0.95000000000E+03 0.  0.
<mgrwt>
<rscale>  0 0.25797283E+04</rscale>
<asrwt>0</asrwt>
<pdfrwt beam="1">  1        2 0.39886051E+00 0.25797283E+04</pdfrwt>
<pdfrwt beam="2">  1       -2 0.98727969E-01 0.25797283E+04</pdfrwt>
<totfact> 0.23183741E+00</totfact>
</mgrwt>
</event>
<event>
 4    1  0.2019612E-008  0.2492102E+04  0.7816531E-02  0.8405805E-01
          2   -1    0    0  501    0  0.00000000000E+00  0.00000000000E+00  0.46542826124E+04  0.46542826124E+04  0.00000000000E+00 0.  1.
         -2   -1    0    0    0  501 -0.00000000000E+00 -0.00000000000E+00 -0.33359451676E+03  0.33359451676E+03  0.00000000000E+00 0. -1.
    2000013    1    1    2    0    0 -0.62949041892E+03 -0.43720627865E+03  0.16590332087E+04  0.20596841275E+04  0.95000000000E+03 0.  0.
   -2000013    1    1    2    0    0  0.62949041892E+03  0.43720627865E+03  0.26616548870E+04  0.29281930017E+04  0.95000000000E+03 0.  0.
<mgrwt>
<rscale>  0 0.24921021E+04</rscale>
<asrwt>0</asrwt>
<pdfrwt beam="1">  1        2 0.71604343E+00 0.24921021E+04</pdfrwt>
<pdfrwt beam="2">  1       -2 0.51322237E-01 0.24921021E+04</pdfrwt>
<totfact> 0.27673285E-01</totfact>
</mgrwt>
</event>
<event>
 4    1  0.2019612E-008  0.2557488E+04  0.7816531E-02  0.8382787E-01
         -2   -1    0    0    0  501 -0.00000000000E+00  0.00000000000E+00  0.16202708495E+04  0.16202708495E+04  0.00000000000E+00 0. -1.
          2   -1    0    0  501    0  0.00000000000E+00 -0.00000000000E+00 -0.10092055779E+04  0.10092055779E+04  0.00000000000E+00 0.  1.
    2000013    1    1    2    0    0  0.49775660340E+03 -0.49832334891E+03  0.80563824442E+03  0.14309579928E+04  0.95000000000E+03 0.  0.
   -2000013    1    1    2    0    0 -0.49775660340E+03  0.49832334891E+03 -0.19457297285E+03  0.11985184346E+04  0.95000000000E+03 0.  0.
<mgrwt>
<rscale>  0 0.25574881E+04</rscale>
<asrwt>0</asrwt>
<pdfrwt beam="2">  1        2 0.15526240E+00 0.25574881E+04</pdfrwt>
<pdfrwt beam="1">  1       -2 0.24927244E+00 0.25574881E+04</pdfrwt>
<totfact> 0.14319463E+00</totfact>
</mgrwt>
</event>
<event>
 4    1  0.2019612E-008  0.3361613E+04  0.7816531E-02  0.8147392E-01
          2   -1    0    0  501    0  0.00000000000E+00  0.00000000000E+00  0.30431367536E+04  0.30431367536E+04  0.00000000000E+00 0.  1.
         -2   -1    0    0    0  501 -0.00000000000E+00 -0.00000000000E+00 -0.92835490918E+03  0.92835490918E+03  0.00000000000E+00 0. -1.
    2000013    1    1    2    0    0 -0.12860160691E+03 -0.13263386009E+04  0.60458242605E+03  0.17446295789E+04  0.95000000000E+03 0.  0.
   -2000013    1    1    2    0    0  0.12860160691E+03  0.13263386009E+04  0.15101994184E+04  0.22268620840E+04  0.95000000000E+03 0.  0.
<mgrwt>
<rscale>  0 0.33616133E+04</rscale>
<asrwt>0</asrwt>
<pdfrwt beam="1">  1        2 0.46817488E+00 0.33616133E+04</pdfrwt>
<pdfrwt beam="2">  1       -2 0.14282383E+00 0.33616133E+04</pdfrwt>
<totfact> 0.46302387E-01</totfact>
</mgrwt>
</event>
<event>
 4    1  0.2019612E-008  0.2908768E+04  0.7816531E-02  0.8270273E-01
          2   -1    0    0  501    0  0.00000000000E+00  0.00000000000E+00  0.32884428868E+04  0.32884428868E+04  0.00000000000E+00 0.  1.
         -2   -1    0    0    0  501 -0.00000000000E+00 -0.00000000000E+00 -0.64323250091E+03  0.64323250091E+03  0.00000000000E+00 0. -1.
    2000013    1    1    2    0    0 -0.76535051726E+03  0.79180945222E+03  0.13183912822E+04  0.19630025970E+04  0.95000000000E+03 0.  0.
   -2000013    1    1    2    0    0  0.76535051726E+03 -0.79180945222E+03  0.13268191036E+04  0.19686727907E+04  0.95000000000E+03 0.  0.
<mgrwt>
<rscale>  0 0.29087684E+04</rscale>
<asrwt>0</asrwt>
<pdfrwt beam="1">  1        2 0.50591428E+00 0.29087684E+04</pdfrwt>
<pdfrwt beam="2">  1       -2 0.98958848E-01 0.29087684E+04</pdfrwt>
<totfact> 0.82747676E-01</totfact>
</mgrwt>
</event>
<event>
 4    1  0.2019612E-008  0.2007712E+04  0.7816531E-02  0.8603023E-01
          2   -1    0    0  501    0  0.00000000000E+00  0.00000000000E+00  0.76481078995E+03  0.76481078995E+03  0.00000000000E+00 0.  1.
         -2   -1    0    0    0  501 -0.00000000000E+00 -0.00000000000E+00 -0.13176162590E+04  0.13176162590E+04  0.00000000000E+00 0. -1.
    2000013    1    1    2    0    0 -0.20825268757E+03 -0.14503782650E+03 -0.48596609391E+03  0.10968446551E+04  0.95000000000E+03 0.  0.
   -2000013    1    1    2    0    0  0.20825268757E+03  0.14503782650E+03 -0.66839375151E+02  0.98558239385E+03  0.95000000000E+03 0.  0.
<mgrwt>
<rscale>  0 0.20077123E+04</rscale>
<asrwt>0</asrwt>
<pdfrwt beam="1">  1        2 0.11766320E+00 0.20077123E+04</pdfrwt>
<pdfrwt beam="2">  1       -2 0.20271019E+00 0.20077123E+04</pdfrwt>
<totfact> 0.43309111E+00</totfact>
</mgrwt>
</event>
<event>
 4    1  0.2019612E-008  0.2308429E+04  0.7816531E-02  0.8474605E-01
         -2   -1    0    0    0  501 -0.00000000000E+00  0.00000000000E+00  0.12066145691E+04  0.12066145691E+04  0.00000000000E+00 0. -1.
          2   -1    0    0  501    0  0.00000000000E+00 -0.00000000000E+00 -0.11040897880E+04  0.11040897880E+04  0.00000000000E+00 0.  1.
    2000013    1    1    2    0    0  0.31573078202E+03 -0.56400140248E+03 -0.58057516523E+02  0.11505017097E+04  0.95000000000E+03 0.  0.
   -2000013    1    1    2    0    0 -0.31573078202E+03  0.56400140248E+03  0.16058229758E+03  0.11602026474E+04  0.95000000000E+03 0.  0.
<mgrwt>
<rscale>  0 0.23084288E+04</rscale>
<asrwt>0</asrwt>
<pdfrwt beam="2">  1        2 0.16985997E+00 0.23084288E+04</pdfrwt>
<pdfrwt beam="1">  1       -2 0.18563301E+00 0.23084288E+04</pdfrwt>
<totfact> 0.32552050E+00</totfact>
</mgrwt>
</event>
<event>
 4    1  0.2019612E-008  0.2307962E+04  0.7816531E-02  0.8474788E-01
          2   -1    0    0  501    0  0.00000000000E+00  0.00000000000E+00  0.13044068610E+04  0.13044068610E+04  0.00000000000E+00 0.  1.
         -2   -1    0    0    0  501 -0.00000000000E+00 -0.00000000000E+00 -0.10209027477E+04  0.10209027477E+04  0.00000000000E+00 0. -1.
    2000013    1    1    2    0    0 -0.94337841846E+02 -0.38098307033E+03 -0.38671382358E+03  0.10982237066E+04  0.95000000000E+03 0.  0.
   -2000013    1    1    2    0    0  0.94337841846E+02  0.38098307033E+03  0.67021793694E+03  0.12270859022E+04  0.95000000000E+03 0.  0.
<mgrwt>
<rscale>  0 0.23079623E+04</rscale>
<asrwt>0</asrwt>
<pdfrwt beam="1">  1        2 0.20067798E+00 0.23079623E+04</pdfrwt>
<pdfrwt beam="2">  1       -2 0.15706196E+00 0.23079623E+04</pdfrwt>
<totfact> 0.39446668E+00</totfact>
</mgrwt>
</event>
<event>
 4    1  0.2019612E-008  0.2969237E+04  0.7816531E-02  0.8252570E-01
         -2   -1    0    0    0  501 -0.00000000000E+00  0.00000000000E+00  0.18602120087E+04  0.18602120087E+04  0.00000000000E+00 0. -1.
          2   -1    0    0  501    0  0.00000000000E+00 -0.00000000000E+00 -0.11848606750E+04  0.11848606750E+04  0.00000000000E+00 0.  1.
    2000013    1    1    2    0    0  0.11189958527E+04 -0.22198051385E+03  0.32450278638E+03  0.15196147950E+04  0.95000000000E+03 0.  0.
   -2000013    1    1    2    0    0 -0.11189958527E+04  0.22198051385E+03  0.35084854724E+03  0.15254578887E+04  0.95000000000E+03 0.  0.
<mgrwt>
<rscale>  0 0.29692370E+04</rscale>
<asrwt>0</asrwt>
<pdfrwt beam="2">  1        2 0.18228626E+00 0.29692370E+04</pdfrwt>
<pdfrwt beam="1">  1       -2 0.28618646E+00 0.29692370E+04</pdfrwt>
<totfact> 0.64076125E-01</totfact>
</mgrwt>
</event>
<event>
 4    1  0.2019612E-008  0.3968254E+04  0.7816531E-02  0.8010982E-01
         -2   -1    0    0    0  501 -0.00000000000E+00  0.00000000000E+00  0.22890516676E+04  0.22890516676E+04  0.00000000000E+00 0.  1.
          2   -1    0    0  501    0  0.00000000000E+00 -0.00000000000E+00 -0.17198210882E+04  0.17198210882E+04  0.00000000000E+00 0. -1.
    2000013    1    1    2    0    0  0.16606808592E+04 -0.11984743557E+03 -0.23251800565E+03  0.19310072363E+04  0.95000000000E+03 0.  0.
   -2000013    1    1    2    0    0 -0.16606808592E+04  0.11984743557E+03  0.80174858505E+03  0.20778655196E+04  0.95000000000E+03 0.  0.
<mgrwt>
<rscale>  0 0.39682537E+04</rscale>
<asrwt>0</asrwt>
<pdfrwt beam="2">  1        2 0.26458786E+00 0.39682537E+04</pdfrwt>
<pdfrwt beam="1">  1       -2 0.35216180E+00 0.39682537E+04</pdfrwt>
<totfact> 0.11397632E-01</totfact>
</mgrwt>
</event>
<event>
 4    1  0.2019612E-008  0.3018215E+04  0.7816531E-02  0.8238548E-01
         -2   -1    0    0    0  501 -0.00000000000E+00  0.00000000000E+00  0.16764237728E+04  0.16764237728E+04  0.00000000000E+00 0. -1.
          2   -1    0    0  501    0  0.00000000000E+00 -0.00000000000E+00 -0.13584906047E+04  0.13584906047E+04  0.00000000000E+00 0.  1.
    2000013    1    1    2    0    0  0.15289848427E+03  0.11550617347E+04  0.29145439667E+03  0.15313364172E+04  0.95000000000E+03 0.  0.
   -2000013    1    1    2    0    0 -0.15289848427E+03 -0.11550617347E+04  0.26478771447E+02  0.15035779603E+04  0.95000000000E+03 0.  0.
<mgrwt>
<rscale>  0 0.30182153E+04</rscale>
<asrwt>0</asrwt>
<pdfrwt beam="2">  1        2 0.20899856E+00 0.30182153E+04</pdfrwt>
<pdfrwt beam="1">  1       -2 0.25791135E+00 0.30182153E+04</pdfrwt>
<totfact> 0.75086518E-01</totfact>
</mgrwt>
</event>
<event>
 4    1  0.2019612E-008  0.2374801E+04  0.7816531E-02  0.8448998E-01
          2   -1    0    0  501    0  0.00000000000E+00  0.00000000000E+00  0.84289144479E+03  0.84289144479E+03  0.00000000000E+00 0.  1.
         -2   -1    0    0    0  501 -0.00000000000E+00 -0.00000000000E+00 -0.16727179589E+04  0.16727179589E+04  0.00000000000E+00 0. -1.
    2000013    1    1    2    0    0  0.28430934492E+03 -0.28267916824E+03 -0.10386202865E+04  0.14635475446E+04  0.95000000000E+03 0.  0.
   -2000013    1    1    2    0    0 -0.28430934492E+03  0.28267916824E+03  0.20879377249E+03  0.10520618590E+04  0.95000000000E+03 0.  0.
<mgrwt>
<rscale>  0 0.23748008E+04</rscale>
<asrwt>0</asrwt>
<pdfrwt beam="1">  1        2 0.12967561E+00 0.23748008E+04</pdfrwt>
<pdfrwt beam="2">  1       -2 0.25734122E+00 0.23748008E+04</pdfrwt>
<totfact> 0.16755221E+00</totfact>
</mgrwt>
</event>
<event>
 4    1  0.2019612E-008  0.2465824E+04  0.7816531E-02  0.8415263E-01
         -2   -1    0    0    0  501 -0.00000000000E+00  0.00000000000E+00  0.44238957767E+03  0.44238957767E+03  0.00000000000E+00 0. -1.
          2   -1    0    0  501    0  0.00000000000E+00 -0.00000000000E+00 -0.34360496432E+04  0.34360496432E+04  0.00000000000E+00 0.  1.
    2000013    1    1    2    0    0 -0.49643277360E+03  0.50972830570E+03 -0.97208247106E+03  0.15341814674E+04  0.95000000000E+03 0.  0.
   -2000013    1    1    2    0    0  0.49643277360E+03 -0.50972830570E+03 -0.20215775945E+04  0.23442577535E+04  0.95000000000E+03 0.  0.
<mgrwt>
<rscale>  0 0.24658244E+04</rscale>
<asrwt>0</asrwt>
<pdfrwt beam="2">  1        2 0.52862302E+00 0.24658244E+04</pdfrwt>
<pdfrwt beam="1">  1       -2 0.68059935E-01 0.24658244E+04</pdfrwt>
<totfact> 0.15940125E+00</totfact>
</mgrwt>
</event>
<event>
 4    1  0.2019612E-008  0.2501755E+04  0.7816531E-02  0.8402361E-01
         -2   -1    0    0    0  501 -0.00000000000E+00  0.00000000000E+00  0.20388845939E+04  0.20388845939E+04  0.00000000000E+00 0. -1.
          2   -1    0    0  501    0  0.00000000000E+00 -0.00000000000E+00 -0.76742682628E+03  0.76742682628E+03  0.00000000000E+00 0.  1.
    2000013    1    1    2    0    0 -0.33589694109E+03  0.63302702625E+03  0.20324904880E+03  0.12072117241E+04  0.95000000000E+03 0.  0.
   -2000013    1    1    2    0    0  0.33589694109E+03 -0.63302702625E+03  0.10682087188E+04  0.15990996960E+04  0.95000000000E+03 0.  0.
<mgrwt>
<rscale>  0 0.25017552E+04</rscale>
<asrwt>0</asrwt>
<pdfrwt beam="2">  1        2 0.11806567E+00 0.25017552E+04</pdfrwt>
<pdfrwt beam="1">  1       -2 0.31367455E+00 0.25017552E+04</pdfrwt>
<totfact> 0.85034418E-01</totfact>
</mgrwt>
</event>
<event>
 4    1  0.2019612E-008  0.2180318E+04  0.7816531E-02  0.8526665E-01
          2   -1    0    0  501    0  0.00000000000E+00  0.00000000000E+00  0.16408971325E+04  0.16408971325E+04  0.00000000000E+00 0. -1.
         -2   -1    0    0    0  501 -0.00000000000E+00 -0.00000000000E+00 -0.72426667532E+03  0.72426667532E+03  0.00000000000E+00 0.  1.
    2000013    1    1    2    0    0 -0.35119622162E+03  0.39918206109E+03  0.39635917820E+03  0.11585705426E+04  0.95000000000E+03 0.  0.
   -2000013    1    1    2    0    0  0.35119622162E+03 -0.39918206109E+03  0.52027127896E+03  0.12065932652E+04  0.95000000000E+03 0.  0.
<mgrwt>
<rscale>  0 0.21803184E+04</rscale>
<asrwt>0</asrwt>
<pdfrwt beam="1">  1        2 0.25244571E+00 0.21803184E+04</pdfrwt>
<pdfrwt beam="2">  1       -2 0.11142564E+00 0.21803184E+04</pdfrwt>
<totfact> 0.61688073E+00</totfact>
</mgrwt>
</event>
<event>
 4    1  0.2019612E-008  0.3353050E+04  0.7816531E-02  0.8149527E-01
         -2   -1    0    0    0  501 -0.00000000000E+00  0.00000000000E+00  0.94448837729E+03  0.94448837729E+03  0.00000000000E+00 0. -1.
          2   -1    0    0  501    0  0.00000000000E+00 -0.00000000000E+00 -0.29759346772E+04  0.29759346772E+04  0.00000000000E+00 0.  1.
    2000013    1    1    2    0    0  0.53317023910E+03  0.11883200719E+04 -0.47755492851E+03  0.16813488058E+04  0.95000000000E+03 0.  0.
   -2000013    1    1    2    0    0 -0.53317023910E+03 -0.11883200719E+04 -0.15538913714E+04  0.22390742487E+04  0.95000000000E+03 0.  0.
<mgrwt>
<rscale>  0 0.33530498E+04</rscale>
<asrwt>0</asrwt>
<pdfrwt beam="2">  1        2 0.45783610E+00 0.33530498E+04</pdfrwt>
<pdfrwt beam="1">  1       -2 0.14530591E+00 0.33530498E+04</pdfrwt>
<totfact> 0.48815545E-01</totfact>
</mgrwt>
</event>
<event>
 4    1  0.2019612E-008  0.2708219E+04  0.7816531E-02  0.8332343E-01
          2   -1    0    0  501    0  0.00000000000E+00  0.00000000000E+00  0.22863206187E+04  0.22863206187E+04  0.00000000000E+00 0.  1.
         -2   -1    0    0    0  501 -0.00000000000E+00 -0.00000000000E+00 -0.80199286526E+03  0.80199286526E+03  0.00000000000E+00 0. -1.
    2000013    1    1    2    0    0  0.95861202175E+03 -0.10556499831E+03  0.77879457281E+03  0.15617624543E+04  0.95000000000E+03 0.  0.
   -2000013    1    1    2    0    0 -0.95861202175E+03  0.10556499831E+03  0.70553318062E+03  0.15265510296E+04  0.95000000000E+03 0.  0.
<mgrwt>
<rscale>  0 0.27082192E+04</rscale>
<asrwt>0</asrwt>
<pdfrwt beam="1">  1        2 0.35174163E+00 0.27082192E+04</pdfrwt>
<pdfrwt beam="2">  1       -2 0.12338352E+00 0.27082192E+04</pdfrwt>
<totfact> 0.20042733E+00</totfact>
</mgrwt>
</event>
<event>
 4    1  0.2019612E-008  0.2269658E+04  0.7816531E-02  0.8489982E-01
         -2   -1    0    0    0  501 -0.00000000000E+00  0.00000000000E+00  0.37441605044E+03  0.37441605044E+03  0.00000000000E+00 0. -1.
          2   -1    0    0  501    0  0.00000000000E+00 -0.00000000000E+00 -0.34395867076E+04  0.34395867076E+04  0.00000000000E+00 0.  1.
    2000013    1    1    2    0    0  0.32168621795E+03 -0.44644829314E+03 -0.10498060866E+04  0.15190098488E+04  0.95000000000E+03 0.  0.
   -2000013    1    1    2    0    0 -0.32168621795E+03  0.44644829314E+03 -0.20153645705E+04  0.22949929092E+04  0.95000000000E+03 0.  0.
<mgrwt>
<rscale>  0 0.22696577E+04</rscale>
<asrwt>0</asrwt>
<pdfrwt beam="2">  1        2 0.52916718E+00 0.22696577E+04</pdfrwt>
<pdfrwt beam="1">  1       -2 0.57602470E-01 0.22696577E+04</pdfrwt>
<totfact> 0.23033100E+00</totfact>
</mgrwt>
</event>
<event>
 4    1  0.2019612E-008  0.3536614E+04  0.7816531E-02  0.8105167E-01
          2   -1    0    0  501    0  0.00000000000E+00  0.00000000000E+00  0.12946436881E+04  0.12946436881E+04  0.00000000000E+00 0.  1.
         -2   -1    0    0    0  501 -0.00000000000E+00 -0.00000000000E+00 -0.24152672424E+04  0.24152672424E+04  0.00000000000E+00 0. -1.
    2000013    1    1    2    0    0 -0.10398013786E+04 -0.10689941252E+04 -0.53744587878E+03  0.18480485435E+04  0.95000000000E+03 0.  0.
   -2000013    1    1    2    0    0  0.10398013786E+04  0.10689941252E+04 -0.58317767547E+03  0.18618623869E+04  0.95000000000E+03 0.  0.
<mgrwt>
<rscale>  0 0.35366145E+04</rscale>
<asrwt>0</asrwt>
<pdfrwt beam="1">  1        2 0.19917596E+00 0.35366145E+04</pdfrwt>
<pdfrwt beam="2">  1       -2 0.37157957E+00 0.35366145E+04</pdfrwt>
<totfact> 0.15463347E-01</totfact>
</mgrwt>
</event>
<event>
 4    1  0.2019612E-008  0.2323941E+04  0.7816531E-02  0.8468541E-01
         -1   -1    0    0    0  501 -0.00000000000E+00  0.00000000000E+00  0.57234208042E+03  0.57234208042E+03  0.00000000000E+00 0. -1.
          1   -1    0    0  501    0  0.00000000000E+00 -0.00000000000E+00 -0.23590348409E+04  0.23590348409E+04  0.00000000000E+00 0.  1.
    2000013    1    1    2    0    0  0.40597604790E+03  0.38404555063E+03 -0.42925484052E+03  0.11828217340E+04  0.95000000000E+03 0.  0.
   -2000013    1    1    2    0    0 -0.40597604790E+03 -0.38404555063E+03 -0.13574379200E+04  0.17485551873E+04  0.95000000000E+03 0.  0.
<mgrwt>
<rscale>  0 0.23239405E+04</rscale>
<asrwt>0</asrwt>
<pdfrwt beam="2">  1        1 0.36292844E+00 0.23239405E+04</pdfrwt>
<pdfrwt beam="1">  1       -1 0.88052627E-01 0.23239405E+04</pdfrwt>
<totfact> 0.19380027E+00</totfact>
</mgrwt>
</event>
<event>
 4    1  0.2019612E-008  0.3802559E+04  0.7816531E-02  0.8045606E-01
          1   -1    0    0  501    0  0.00000000000E+00  0.00000000000E+00  0.18333371855E+04  0.18333371855E+04  0.00000000000E+00 0.  1.
         -1   -1    0    0    0  501 -0.00000000000E+00 -0.00000000000E+00 -0.19717397689E+04  0.19717397689E+04  0.00000000000E+00 0. -1.
    2000013    1    1    2    0    0  0.10266540382E+04 -0.85463762135E+03  0.89473291565E+03  0.18674771667E+04  0.95000000000E+03 0.  0.
   -2000013    1    1    2    0    0 -0.10266540382E+04  0.85463762135E+03 -0.10331354990E+04  0.19375997877E+04  0.95000000000E+03 0.  0.
<mgrwt>
<rscale>  0 0.38025591E+04</rscale>
<asrwt>0</asrwt>
<pdfrwt beam="1">  1        1 0.28205187E+00 0.38025591E+04</pdfrwt>
<pdfrwt beam="2">  1       -1 0.30334458E+00 0.38025591E+04</pdfrwt>
<totfact> 0.96628961E-02</totfact>
</mgrwt>
</event>
<event>
 4    1  0.2019612E-008  0.2613057E+04  0.7816531E-02  0.8363779E-01
          1   -1    0    0  501    0  0.00000000000E+00  0.00000000000E+00  0.30177429629E+04  0.30177429629E+04  0.00000000000E+00 0.  1.
         -1   -1    0    0    0  501 -0.00000000000E+00 -0.00000000000E+00 -0.56566027981E+03  0.56566027981E+03  0.00000000000E+00 0. -1.
    2000013    1    1    2    0    0  0.67245842344E+03  0.40541121855E+03  0.63150557564E+03  0.13848674592E+04  0.95000000000E+03 0.  0.
   -2000013    1    1    2    0    0 -0.67245842344E+03 -0.40541121855E+03  0.18205771075E+04  0.21985357836E+04  0.95000000000E+03 0.  0.
<mgrwt>
<rscale>  0 0.26130575E+04</rscale>
<asrwt>0</asrwt>
<pdfrwt beam="1">  1        1 0.46426814E+00 0.26130575E+04</pdfrwt>
<pdfrwt beam="2">  1       -1 0.87024660E-01 0.26130575E+04</pdfrwt>
<totfact> 0.66363075E-01</totfact>
</mgrwt>
</event>
<event>
 4    1  0.2019612E-008  0.2525376E+04  0.7816531E-02  0.8394000E-01
          2   -1    0    0  501    0  0.00000000000E+00  0.00000000000E+00  0.11495539255E+04  0.11495539255E+04  0.00000000000E+00 0.  1.
         -2   -1    0    0    0  501 -0.00000000000E+00 -0.00000000000E+00 -0.13869567585E+04  0.13869567585E+04  0.00000000000E+00 0. -1.
    2000013    1    1    2    0    0 -0.11706427028E+03  0.68367982168E+03  0.34240810240E+03  0.12250981391E+04  0.95000000000E+03 0.  0.
   -2000013    1    1    2    0    0  0.11706427028E+03 -0.68367982168E+03 -0.57981093539E+03  0.13114125448E+04  0.95000000000E+03 0.  0.
<mgrwt>
<rscale>  0 0.25253765E+04</rscale>
<asrwt>0</asrwt>
<pdfrwt beam="1">  1        2 0.17685445E+00 0.25253765E+04</pdfrwt>
<pdfrwt beam="2">  1       -2 0.21337796E+00 0.25253765E+04</pdfrwt>
<totfact> 0.19692938E+00</totfact>
</mgrwt>
</event>
<event>
 4    1  0.2019612E-008  0.3723266E+04  0.7816531E-02  0.8062825E-01
          2   -1    0    0  501    0  0.00000000000E+00  0.00000000000E+00  0.31658184037E+04  0.31658184037E+04  0.00000000000E+00 0.  1.
         -2   -1    0    0    0  501 -0.00000000000E+00 -0.00000000000E+00 -0.10947176538E+04  0.10947176538E+04  0.00000000000E+00 0. -1.
    2000013    1    1    2    0    0 -0.13736160640E+04  0.69683686006E+03  0.15353552160E+04  0.23732295170E+04  0.95000000000E+03 0.  0.
   -2000013    1    1    2    0    0  0.13736160640E+04 -0.69683686006E+03  0.53574553382E+03  0.18873065405E+04  0.95000000000E+03 0.  0.
<mgrwt>
<rscale>  0 0.37232659E+04</rscale>
<asrwt>0</asrwt>
<pdfrwt beam="1">  1        2 0.48704898E+00 0.37232659E+04</pdfrwt>
<pdfrwt beam="2">  1       -2 0.16841810E+00 0.37232659E+04</pdfrwt>
<totfact> 0.24067378E-01</totfact>
</mgrwt>
</event>
<event>
 4    1  0.2019612E-008  0.4131059E+04  0.7816531E-02  0.7978617E-01
         -2   -1    0    0    0  501 -0.00000000000E+00  0.00000000000E+00  0.16912610329E+04  0.16912610329E+04  0.00000000000E+00 0. -1.
          2   -1    0    0  501    0  0.00000000000E+00 -0.00000000000E+00 -0.25226224817E+04  0.25226224817E+04  0.00000000000E+00 0.  1.
    2000013    1    1    2    0    0 -0.13606748608E+04  0.90107994527E+03 -0.12694392524E+04  0.22753806627E+04  0.95000000000E+03 0.  0.
   -2000013    1    1    2    0    0  0.13606748608E+04 -0.90107994527E+03  0.43807780365E+03  0.19385028519E+04  0.95000000000E+03 0.  0.
<mgrwt>
<rscale>  0 0.41310595E+04</rscale>
<asrwt>0</asrwt>
<pdfrwt beam="2">  1        2 0.38809576E+00 0.41310595E+04</pdfrwt>
<pdfrwt beam="1">  1       -2 0.26019401E+00 0.41310595E+04</pdfrwt>
<totfact> 0.14668678E-01</totfact>
</mgrwt>
</event>
<event>
 4    1  0.2019612E-008  0.3677890E+04  0.7816531E-02  0.8072879E-01
          2   -1    0    0  501    0  0.00000000000E+00  0.00000000000E+00  0.28199610195E+04  0.28199610195E+04  0.00000000000E+00 0.  1.
         -2   -1    0    0    0  501 -0.00000000000E+00 -0.00000000000E+00 -0.11992074057E+04  0.11992074057E+04  0.00000000000E+00 0. -1.
    2000013    1    1    2    0    0  0.13554258307E+04 -0.38519876343E+03  0.42570176355E+02  0.16999616142E+04  0.95000000000E+03 0.  0.
   -2000013    1    1    2    0    0 -0.13554258307E+04  0.38519876343E+03  0.15781834374E+04  0.23192068110E+04  0.95000000000E+03 0.  0.
<mgrwt>
<rscale>  0 0.36778897E+04</rscale>
<asrwt>0</asrwt>
<pdfrwt beam="1">  1        2 0.43384016E+00 0.36778897E+04</pdfrwt>
<pdfrwt beam="2">  1       -2 0.18449345E+00 0.36778897E+04</pdfrwt>
<totfact> 0.30746618E-01</totfact>
</mgrwt>
</event>
<event>
 4    1  0.2019612E-008  0.2722542E+04  0.7816531E-02  0.8327728E-01
          2   -1    0    0  501    0  0.00000000000E+00  0.00000000000E+00  0.29489592424E+04  0.29489592424E+04  0.00000000000E+00 0.  1.
         -2   -1    0    0    0  501 -0.00000000000E+00 -0.00000000000E+00 -0.62837723007E+03  0.62837723007E+03  0.00000000000E+00 0. -1.
    2000013    1    1    2    0    0 -0.49380452707E+03  0.83898979447E+03  0.10906127890E+04  0.17434686811E+04  0.95000000000E+03 0.  0.
   -2000013    1    1    2    0    0  0.49380452707E+03 -0.83898979447E+03  0.12299692233E+04  0.18338677914E+04  0.95000000000E+03 0.  0.
<mgrwt>
<rscale>  0 0.27225421E+04</rscale>
<asrwt>0</asrwt>
<pdfrwt beam="1">  1        2 0.45368603E+00 0.27225421E+04</pdfrwt>
<pdfrwt beam="2">  1       -2 0.96673422E-01 0.27225421E+04</pdfrwt>
<totfact> 0.14674162E+00</totfact>
</mgrwt>
</event>
<event>
 4    1  0.2019612E-008  0.2444915E+04  0.7816531E-02  0.8422877E-01
          2   -1    0    0  501    0  0.00000000000E+00  0.00000000000E+00  0.31956925284E+04  0.31956925284E+04  0.00000000000E+00 0.  1.
         -2   -1    0    0    0  501 -0.00000000000E+00 -0.00000000000E+00 -0.46763001719E+03  0.46763001719E+03  0.00000000000E+00 0. -1.
    2000013    1    1    2    0    0 -0.54750698050E+02  0.76313727086E+03  0.12429930905E+04  0.17415246068E+04  0.95000000000E+03 0.  0.
   -2000013    1    1    2    0    0  0.54750698050E+02 -0.76313727086E+03  0.14850694207E+04  0.19217979387E+04  0.95000000000E+03 0.  0.
<mgrwt>
<rscale>  0 0.24449145E+04</rscale>
<asrwt>0</asrwt>
<pdfrwt beam="1">  1        2 0.49164499E+00 0.24449145E+04</pdfrwt>
<pdfrwt beam="2">  1       -2 0.71943082E-01 0.24449145E+04</pdfrwt>
<totfact> 0.20485435E+00</totfact>
</mgrwt>
</event>
<event>
 4    1  0.2019612E-008  0.2388524E+04  0.7816531E-02  0.8443812E-01
         -2   -1    0    0    0  501 -0.00000000000E+00  0.00000000000E+00  0.63548895562E+03  0.63548895562E+03  0.00000000000E+00 0. -1.
          2   -1    0    0  501    0  0.00000000000E+00 -0.00000000000E+00 -0.22443539717E+04  0.22443539717E+04  0.00000000000E+00 0.  1.
    2000013    1    1    2    0    0  0.62919524836E+03  0.30164960252E+03 -0.57287847384E+03  0.13105605248E+04  0.95000000000E+03 0.  0.
   -2000013    1    1    2    0    0 -0.62919524836E+03 -0.30164960252E+03 -0.10359865422E+04  0.15692824025E+04  0.95000000000E+03 0.  0.
<mgrwt>
<rscale>  0 0.23885244E+04</rscale>
<asrwt>0</asrwt>
<pdfrwt beam="2">  1        2 0.34528522E+00 0.23885244E+04</pdfrwt>
<pdfrwt beam="1">  1       -2 0.97767532E-01 0.23885244E+04</pdfrwt>
<totfact> 0.38223044E+00</totfact>
</mgrwt>
</event>
<event>
 4    1  0.2019612E-008  0.2087965E+04  0.7816531E-02  0.8566563E-01
         -2   -1    0    0    0  501 -0.00000000000E+00  0.00000000000E+00  0.13715958306E+04  0.13715958306E+04  0.00000000000E+00 0. -1.
          2   -1    0    0  501    0  0.00000000000E+00 -0.00000000000E+00 -0.79462172019E+03  0.79462172019E+03  0.00000000000E+00 0.  1.
    2000013    1    1    2    0    0 -0.41111650253E+03 -0.95918533708E+02  0.18906932341E+03  0.10566287677E+04  0.95000000000E+03 0.  0.
   -2000013    1    1    2    0    0  0.41111650253E+03  0.95918533708E+02  0.38790478705E+03  0.11095887831E+04  0.95000000000E+03 0.  0.
<mgrwt>
<rscale>  0 0.20879654E+04</rscale>
<asrwt>0</asrwt>
<pdfrwt beam="2">  1        2 0.12224950E+00 0.20879654E+04</pdfrwt>
<pdfrwt beam="1">  1       -2 0.21101474E+00 0.20879654E+04</pdfrwt>
<totfact> 0.36148188E+00</totfact>
</mgrwt>
</event>
<event>
 4    1  0.2019612E-008  0.2627569E+04  0.7816531E-02  0.8358897E-01
          2   -1    0    0  501    0  0.00000000000E+00  0.00000000000E+00  0.71941045225E+03  0.71941045225E+03  0.00000000000E+00 0.  1.
         -2   -1    0    0    0  501 -0.00000000000E+00 -0.00000000000E+00 -0.23992272862E+04  0.23992272862E+04  0.00000000000E+00 0. -1.
    2000013    1    1    2    0    0  0.87181400746E+03  0.11882443599E+03 -0.57624148661E+03  0.14172978378E+04  0.95000000000E+03 0.  0.
   -2000013    1    1    2    0    0 -0.87181400746E+03 -0.11882443599E+03 -0.11035753473E+04  0.17013399006E+04  0.95000000000E+03 0.  0.
<mgrwt>
<rscale>  0 0.26275686E+04</rscale>
<asrwt>0</asrwt>
<pdfrwt beam="1">  1        2 0.11067853E+00 0.26275686E+04</pdfrwt>
<pdfrwt beam="2">  1       -2 0.36911189E+00 0.26275686E+04</pdfrwt>
<totfact> 0.41085776E-01</totfact>
</mgrwt>
</event>
<event>
 4    1  0.2019612E-008  0.2871126E+04  0.7816531E-02  0.8281520E-01
          2   -1    0    0  501    0  0.00000000000E+00  0.00000000000E+00  0.37463865260E+04  0.37463865260E+04  0.00000000000E+00 0.  1.
         -2   -1    0    0    0  501 -0.00000000000E+00 -0.00000000000E+00 -0.55008781432E+03  0.55008781432E+03  0.00000000000E+00 0. -1.
    2000013    1    1    2    0    0  0.67115046412E+03  0.19765089110E+03  0.28219725793E+04  0.30586824056E+04  0.95000000000E+03 0.  0.
   -2000013    1    1    2    0    0 -0.67115046412E+03 -0.19765089110E+03  0.37432613242E+03  0.12377919347E+04  0.95000000000E+03 0.  0.
<mgrwt>
<rscale>  0 0.28711263E+04</rscale>
<asrwt>0</asrwt>
<pdfrwt beam="1">  1        2 0.57636714E+00 0.28711263E+04</pdfrwt>
<pdfrwt beam="2">  1       -2 0.84628897E-01 0.28711263E+04</pdfrwt>
<totfact> 0.56748193E-01</totfact>
</mgrwt>
</event>
<event>
 4    1  0.2019612E-008  0.2030331E+04  0.7816531E-02  0.8592570E-01
         -2   -1    0    0    0  501 -0.00000000000E+00  0.00000000000E+00  0.10000309485E+04  0.10000309485E+04  0.00000000000E+00 0. -1.
          2   -1    0    0  501    0  0.00000000000E+00 -0.00000000000E+00 -0.10305287542E+04  0.10305287542E+04  0.00000000000E+00 0.  1.
    2000013    1    1    2    0    0  0.26885627387E+03 -0.23543869872E+03  0.33427240188E+01  0.10150006161E+04  0.95000000000E+03 0.  0.
   -2000013    1    1    2    0    0 -0.26885627387E+03  0.23543869872E+03 -0.33840529742E+02  0.10155590866E+04  0.95000000000E+03 0.  0.
<mgrwt>
<rscale>  0 0.20303307E+04</rscale>
<asrwt>0</asrwt>
<pdfrwt beam="2">  1        2 0.15854289E+00 0.20303307E+04</pdfrwt>
<pdfrwt beam="1">  1       -2 0.15385092E+00 0.20303307E+04</pdfrwt>
<totfact> 0.62497299E+00</totfact>
</mgrwt>
</event>
<event>
 4    1  0.2019612E-008  0.3074190E+04  0.7816531E-02  0.8222857E-01
         -2   -1    0    0    0  501 -0.00000000000E+00  0.00000000000E+00  0.11680692984E+04  0.11680692984E+04  0.00000000000E+00 0. -1.
          2   -1    0    0  501    0  0.00000000000E+00 -0.00000000000E+00 -0.20227064683E+04  0.20227064683E+04  0.00000000000E+00 0.  1.
    2000013    1    1    2    0    0 -0.51889638715E+03  0.10819613816E+04 -0.27955584666E+03  0.15558101951E+04  0.95000000000E+03 0.  0.
   -2000013    1    1    2    0    0  0.51889638715E+03 -0.10819613816E+04 -0.57508132325E+03  0.16349655716E+04  0.95000000000E+03 0.  0.
<mgrwt>
<rscale>  0 0.30741902E+04</rscale>
<asrwt>0</asrwt>
<pdfrwt beam="2">  1        2 0.31118561E+00 0.30741902E+04</pdfrwt>
<pdfrwt beam="1">  1       -2 0.17970297E+00 0.30741902E+04</pdfrwt>
<totfact> 0.10060049E+00</totfact>
</mgrwt>
</event>
<event>
 4    1  0.2019612E-008  0.3374053E+04  0.7816531E-02  0.8144304E-01
          2   -1    0    0  501    0  0.00000000000E+00  0.00000000000E+00  0.19997765704E+04  0.19997765704E+04  0.00000000000E+00 0.  1.
         -2   -1    0    0    0  501 -0.00000000000E+00 -0.00000000000E+00 -0.14231884196E+04  0.14231884196E+04  0.00000000000E+00 0. -1.
    2000013    1    1    2    0    0  0.13086374878E+04 -0.12751984422E+03 -0.18185193265E+03  0.16322878149E+04  0.95000000000E+03 0.  0.
   -2000013    1    1    2    0    0 -0.13086374878E+04  0.12751984422E+03  0.75844008344E+03  0.17906771751E+04  0.95000000000E+03 0.  0.
<mgrwt>
<rscale>  0 0.33740533E+04</rscale>
<asrwt>0</asrwt>
<pdfrwt beam="1">  1        2 0.30765793E+00 0.33740533E+04</pdfrwt>
<pdfrwt beam="2">  1       -2 0.21895206E+00 0.33740533E+04</pdfrwt>
<totfact> 0.55686297E-01</totfact>
</mgrwt>
</event>
<event>
 4    1  0.2019612E-008  0.2293733E+04  0.7816531E-02  0.8480396E-01
          2   -1    0    0  501    0  0.00000000000E+00  0.00000000000E+00  0.18961511372E+04  0.18961511372E+04  0.00000000000E+00 0.  1.
         -2   -1    0    0    0  501 -0.00000000000E+00 -0.00000000000E+00 -0.69366995681E+03  0.69366995681E+03  0.00000000000E+00 0. -1.
    2000013    1    1    2    0    0  0.69479679985E+02  0.62920286221E+03  0.72533428241E+03  0.13525285538E+04  0.95000000000E+03 0.  0.
   -2000013    1    1    2    0    0 -0.69479679985E+02 -0.62920286221E+03  0.47714689801E+03  0.12372925402E+04  0.95000000000E+03 0.  0.
<mgrwt>
<rscale>  0 0.22937333E+04</rscale>
<asrwt>0</asrwt>
<pdfrwt beam="1">  1        2 0.29171556E+00 0.22937333E+04</pdfrwt>
<pdfrwt beam="2">  1       -2 0.10671846E+00 0.22937333E+04</pdfrwt>
<totfact> 0.48931399E+00</totfact>
</mgrwt>
</event>
<event>
 4    1  0.2019612E-008  0.2543202E+04  0.7816531E-02  0.8387754E-01
         -2   -1    0    0    0  501 -0.00000000000E+00  0.00000000000E+00  0.17127290735E+04  0.17127290735E+04  0.00000000000E+00 0. -1.
          2   -1    0    0  501    0  0.00000000000E+00 -0.00000000000E+00 -0.94408933684E+03  0.94408933684E+03  0.00000000000E+00 0.  1.
    2000013    1    1    2    0    0  0.82371022794E+03 -0.12097252136E+03  0.53691518598E+03  0.13725563039E+04  0.95000000000E+03 0.  0.
   -2000013    1    1    2    0    0 -0.82371022794E+03  0.12097252136E+03  0.23172455067E+03  0.12842621064E+04  0.95000000000E+03 0.  0.
<mgrwt>
<rscale>  0 0.25432021E+04</rscale>
<asrwt>0</asrwt>
<pdfrwt beam="2">  1        2 0.14524451E+00 0.25432021E+04</pdfrwt>
<pdfrwt beam="1">  1       -2 0.26349678E+00 0.25432021E+04</pdfrwt>
<totfact> 0.12929884E+00</totfact>
</mgrwt>
</event>
<event>
 4    1  0.2019612E-008  0.2089381E+04  0.7816531E-02  0.8565936E-01
          2   -1    0    0  501    0  0.00000000000E+00  0.00000000000E+00  0.21663974145E+04  0.21663974145E+04  0.00000000000E+00 0.  1.
         -2   -1    0    0    0  501 -0.00000000000E+00 -0.00000000000E+00 -0.50377567533E+03  0.50377567533E+03  0.00000000000E+00 0. -1.
    2000013    1    1    2    0    0  0.98709034578E+02  0.21107877019E+03  0.13001382718E+04  0.16270086805E+04  0.95000000000E+03 0.  0.
   -2000013    1    1    2    0    0 -0.98709034578E+02 -0.21107877019E+03  0.36248346739E+03  0.10431644093E+04  0.95000000000E+03 0.  0.
<mgrwt>
<rscale>  0 0.20893811E+04</rscale>
<asrwt>0</asrwt>
<pdfrwt beam="1">  1        2 0.33329190E+00 0.20893811E+04</pdfrwt>
<pdfrwt beam="2">  1       -2 0.77503951E-01 0.20893811E+04</pdfrwt>
<totfact> 0.73826712E+00</totfact>
</mgrwt>
</event>
<event>
 4    1  0.2019612E-008  0.2341620E+04  0.7816531E-02  0.8461690E-01
          2   -1    0    0  501    0  0.00000000000E+00  0.00000000000E+00  0.15306948330E+04  0.15306948330E+04  0.00000000000E+00 0.  1.
         -2   -1    0    0    0  501 -0.00000000000E+00 -0.00000000000E+00 -0.89553816501E+03  0.89553816501E+03  0.00000000000E+00 0. -1.
    2000013    1    1    2    0    0  0.10727304098E+03 -0.49391815262E+02  0.10159888049E+04  0.13959513990E+04  0.95000000000E+03 0.  0.
   -2000013    1    1    2    0    0 -0.10727304098E+03  0.49391815262E+02 -0.38083213692E+03  0.10302815990E+04  0.95000000000E+03 0.  0.
<mgrwt>
<rscale>  0 0.23416196E+04</rscale>
<asrwt>0</asrwt>
<pdfrwt beam="1">  1        2 0.23549151E+00 0.23416196E+04</pdfrwt>
<pdfrwt beam="2">  1       -2 0.13777510E+00 0.23416196E+04</pdfrwt>
<totfact> 0.41270147E+00</totfact>
</mgrwt>
</event>
<event>
 4    1  0.2019612E-008  0.2713588E+04  0.7816531E-02  0.8330610E-01
         -2   -1    0    0    0  501 -0.00000000000E+00  0.00000000000E+00  0.62298692985E+03  0.62298692985E+03  0.00000000000E+00 0. -1.
          2   -1    0    0  501    0  0.00000000000E+00 -0.00000000000E+00 -0.29549415798E+04  0.29549415798E+04  0.00000000000E+00 0.  1.
    2000013    1    1    2    0    0  0.21033715124E+03 -0.74449170145E+03 -0.19346665408E+04  0.22899659899E+04  0.95000000000E+03 0.  0.
   -2000013    1    1    2    0    0 -0.21033715124E+03  0.74449170145E+03 -0.39728810918E+03  0.12879625198E+04  0.95000000000E+03 0.  0.
<mgrwt>
<rscale>  0 0.27135880E+04</rscale>
<asrwt>0</asrwt>
<pdfrwt beam="2">  1        2 0.45460639E+00 0.27135880E+04</pdfrwt>
<pdfrwt beam="1">  1       -2 0.95844144E-01 0.27135880E+04</pdfrwt>
<totfact> 0.14857161E+00</totfact>
</mgrwt>
</event>
<event>
 4    1  0.2019612E-008  0.2330281E+04  0.7816531E-02  0.8466076E-01
         -2   -1    0    0    0  501 -0.00000000000E+00  0.00000000000E+00  0.10418332313E+04  0.10418332313E+04  0.00000000000E+00 0. -1.
          2   -1    0    0  501    0  0.00000000000E+00 -0.00000000000E+00 -0.13030421992E+04  0.13030421992E+04  0.00000000000E+00 0.  1.
    2000013    1    1    2    0    0 -0.52984540385E+03  0.30182752410E+03  0.15967515495E+03  0.11401018206E+04  0.95000000000E+03 0.  0.
   -2000013    1    1    2    0    0  0.52984540385E+03 -0.30182752410E+03 -0.42088412278E+03  0.12047736099E+04  0.95000000000E+03 0.  0.
<mgrwt>
<rscale>  0 0.23302812E+04</rscale>
<asrwt>0</asrwt>
<pdfrwt beam="2">  1        2 0.20046803E+00 0.23302812E+04</pdfrwt>
<pdfrwt beam="1">  1       -2 0.16028204E+00 0.23302812E+04</pdfrwt>
<totfact> 0.37330092E+00</totfact>
</mgrwt>
</event>
<event>
 4    1  0.2019612E-008  0.2611773E+04  0.7816531E-02  0.8364213E-01
         -2   -1    0    0    0  501 -0.00000000000E+00  0.00000000000E+00  0.77586736227E+03  0.77586736227E+03  0.00000000000E+00 0. -1.
          2   -1    0    0  501    0  0.00000000000E+00 -0.00000000000E+00 -0.21979777614E+04  0.21979777614E+04  0.00000000000E+00 0.  1.
    2000013    1    1    2    0    0 -0.86475076085E+03 -0.23454292118E+03 -0.71778640275E+03  0.14901414632E+04  0.95000000000E+03 0.  0.
   -2000013    1    1    2    0    0  0.86475076085E+03  0.23454292118E+03 -0.70432399635E+03  0.14837036605E+04  0.95000000000E+03 0.  0.
<mgrwt>
<rscale>  0 0.26117727E+04</rscale>
<asrwt>0</asrwt>
<pdfrwt beam="2">  1        2 0.33815042E+00 0.26117727E+04</pdfrwt>
<pdfrwt beam="1">  1       -2 0.11936421E+00 0.26117727E+04</pdfrwt>
<totfact> 0.24615474E+00</totfact>
</mgrwt>
</event>
<event>
 4    1  0.2019612E-008  0.2308501E+04  0.7816531E-02  0.8474577E-01
          2   -1    0    0  501    0  0.00000000000E+00  0.00000000000E+00  0.14812210835E+04  0.14812210835E+04  0.00000000000E+00 0.  1.
         -2   -1    0    0    0  501 -0.00000000000E+00 -0.00000000000E+00 -0.89945693022E+03  0.89945693022E+03  0.00000000000E+00 0. -1.
    2000013    1    1    2    0    0 -0.32737664963E+03  0.23267979336E+03 -0.24346799111E+03  0.10597603595E+04  0.95000000000E+03 0.  0.
   -2000013    1    1    2    0    0  0.32737664963E+03 -0.23267979336E+03  0.82523214436E+03  0.13209176541E+04  0.95000000000E+03 0.  0.
<mgrwt>
<rscale>  0 0.23085013E+04</rscale>
<asrwt>0</asrwt>
<pdfrwt beam="1">  1        2 0.22788017E+00 0.23085013E+04</pdfrwt>
<pdfrwt beam="2">  1       -2 0.13837799E+00 0.23085013E+04</pdfrwt>
<totfact> 0.43636268E+00</totfact>
</mgrwt>
</event>
<event>
 4    1  0.2019612E-008  0.2059186E+04  0.7816531E-02  0.8579438E-01
          2   -1    0    0  501    0  0.00000000000E+00  0.00000000000E+00  0.24271897407E+04  0.24271897407E+04  0.00000000000E+00 0.  1.
         -2   -1    0    0    0  501 -0.00000000000E+00 -0.00000000000E+00 -0.43674463062E+03  0.43674463062E+03  0.00000000000E+00 0. -1.
    2000013    1    1    2    0    0 -0.17485267907E+03  0.33113580351E+03  0.11783541359E+04  0.15592443200E+04  0.95000000000E+03 0.  0.
   -2000013    1    1    2    0    0  0.17485267907E+03 -0.33113580351E+03  0.81209097412E+03  0.13046900513E+04  0.95000000000E+03 0.  0.
<mgrwt>
<rscale>  0 0.20591863E+04</rscale>
<asrwt>0</asrwt>
<pdfrwt beam="1">  1        2 0.37341380E+00 0.20591863E+04</pdfrwt>
<pdfrwt beam="2">  1       -2 0.67191483E-01 0.20591863E+04</pdfrwt>
<totfact> 0.72081934E+00</totfact>
</mgrwt>
</event>
<event>
 4    1  0.2019612E-008  0.2369828E+04  0.7816531E-02  0.8450887E-01
          2   -1    0    0  501    0  0.00000000000E+00  0.00000000000E+00  0.23433823009E+04  0.23433823009E+04  0.00000000000E+00 0. -1.
         -2   -1    0    0    0  501 -0.00000000000E+00 -0.00000000000E+00 -0.59914313231E+03  0.59914313231E+03  0.00000000000E+00 0.  1.
    2000013    1    1    2    0    0 -0.70686474510E+03  0.38799599522E+02  0.84861852283E+03  0.14573320054E+04  0.95000000000E+03 0.  0.
   -2000013    1    1    2    0    0  0.70686474510E+03 -0.38799599522E+02  0.89562064575E+03  0.14851934278E+04  0.95000000000E+03 0.  0.
<mgrwt>
<rscale>  0 0.23698282E+04</rscale>
<asrwt>0</asrwt>
<pdfrwt beam="1">  1        2 0.36052035E+00 0.23698282E+04</pdfrwt>
<pdfrwt beam="2">  1       -2 0.92175868E-01 0.23698282E+04</pdfrwt>
<totfact> 0.38602477E+00</totfact>
</mgrwt>
</event>
<event>
 4    1  0.2019612E-008  0.2663126E+04  0.7816531E-02  0.8347069E-01
         -2   -1    0    0    0  501 -0.00000000000E+00  0.00000000000E+00  0.10082091346E+04  0.10082091346E+04  0.00000000000E+00 0. -1.
          2   -1    0    0  501    0  0.00000000000E+00 -0.00000000000E+00 -0.17586233068E+04  0.17586233068E+04  0.00000000000E+00 0.  1.
    2000013    1    1    2    0    0  0.58063200434E+03  0.70360447295E+03 -0.57871053569E+03  0.14386099760E+04  0.95000000000E+03 0.  0.
   -2000013    1    1    2    0    0 -0.58063200434E+03 -0.70360447295E+03 -0.17170363658E+03  0.13282224654E+04  0.95000000000E+03 0.  0.
<mgrwt>
<rscale>  0 0.26631260E+04</rscale>
<asrwt>0</asrwt>
<pdfrwt beam="2">  1        2 0.27055743E+00 0.26631260E+04</pdfrwt>
<pdfrwt beam="1">  1       -2 0.15510910E+00 0.26631260E+04</pdfrwt>
<totfact> 0.21939255E+00</totfact>
</mgrwt>
</event>
<event>
 4    1  0.2019612E-008  0.2815395E+04  0.7816531E-02  0.8298505E-01
          2   -1    0    0  501    0  0.00000000000E+00  0.00000000000E+00  0.57063995184E+03  0.57063995184E+03  0.00000000000E+00 0.  1.
         -2   -1    0    0    0  501 -0.00000000000E+00 -0.00000000000E+00 -0.34726145083E+04  0.34726145083E+04  0.00000000000E+00 0. -1.
    2000013    1    1    2    0    0 -0.52391781399E+03  0.89190537432E+03 -0.15881915714E+04  0.21201031909E+04  0.95000000000E+03 0.  0.
   -2000013    1    1    2    0    0  0.52391781399E+03 -0.89190537432E+03 -0.13137829850E+04  0.19231512692E+04  0.95000000000E+03 0.  0.
<mgrwt>
<rscale>  0 0.28153952E+04</rscale>
<asrwt>0</asrwt>
<pdfrwt beam="1">  1        2 0.87790762E-01 0.28153952E+04</pdfrwt>
<pdfrwt beam="2">  1       -2 0.53424839E+00 0.28153952E+04</pdfrwt>
<totfact> 0.47116278E-02</totfact>
</mgrwt>
</event>
<event>
 4    1  0.2019612E-008  0.2742855E+04  0.7816531E-02  0.8321232E-01
         -2   -1    0    0    0  501 -0.00000000000E+00  0.00000000000E+00  0.12377932303E+04  0.12377932303E+04  0.00000000000E+00 0. -1.
          2   -1    0    0  501    0  0.00000000000E+00 -0.00000000000E+00 -0.15194893570E+04  0.15194893570E+04  0.00000000000E+00 0.  1.
    2000013    1    1    2    0    0  0.85742866391E+03 -0.47853376452E+03 -0.26036481920E+03  0.13908516515E+04  0.95000000000E+03 0.  0.
   -2000013    1    1    2    0    0 -0.85742866391E+03  0.47853376452E+03 -0.21331307509E+02  0.13664309357E+04  0.95000000000E+03 0.  0.
<mgrwt>
<rscale>  0 0.27428552E+04</rscale>
<asrwt>0</asrwt>
<pdfrwt beam="2">  1        2 0.23376759E+00 0.27428552E+04</pdfrwt>
<pdfrwt beam="1">  1       -2 0.19042973E+00 0.27428552E+04</pdfrwt>
<totfact> 0.16661673E+00</totfact>
</mgrwt>
</event>
<event>
 4    1  0.2019612E-008  0.2146754E+04  0.7816531E-02  0.8540923E-01
         -2   -1    0    0    0  501 -0.00000000000E+00  0.00000000000E+00  0.35095401185E+03  0.35095401185E+03  0.00000000000E+00 0. -1.
          2   -1    0    0  501    0  0.00000000000E+00 -0.00000000000E+00 -0.32828739523E+04  0.32828739523E+04  0.00000000000E+00 0.  1.
    2000013    1    1    2    0    0  0.30025689534E+03  0.26386606253E+03 -0.19733725294E+04  0.22263150366E+04  0.95000000000E+03 0.  0.
   -2000013    1    1    2    0    0 -0.30025689534E+03 -0.26386606253E+03 -0.95854741106E+03  0.14075129276E+04  0.95000000000E+03 0.  0.
<mgrwt>
<rscale>  0 0.21467536E+04</rscale>
<asrwt>0</asrwt>
<pdfrwt beam="2">  1        2 0.50505754E+00 0.21467536E+04</pdfrwt>
<pdfrwt beam="1">  1       -2 0.53992924E-01 0.21467536E+04</pdfrwt>
<totfact> 0.34010082E+00</totfact>
</mgrwt>
</event>
<event>
 4    1  0.2019612E-008  0.2106136E+04  0.7816531E-02  0.8558545E-01
          2   -1    0    0  501    0  0.00000000000E+00  0.00000000000E+00  0.62047655562E+03  0.62047655562E+03  0.00000000000E+00 0.  1.
         -2   -1    0    0    0  501 -0.00000000000E+00 -0.00000000000E+00 -0.17872583637E+04  0.17872583637E+04  0.00000000000E+00 0. -1.
    2000013    1    1    2    0    0  0.38491360967E+02  0.37069890842E+03 -0.28626295374E+03  0.10598800613E+04  0.95000000000E+03 0.  0.
   -2000013    1    1    2    0    0 -0.38491360967E+02 -0.37069890842E+03 -0.88051885437E+03  0.13478548581E+04  0.95000000000E+03 0.  0.
<mgrwt>
<rscale>  0 0.21061357E+04</rscale>
<asrwt>0</asrwt>
<pdfrwt beam="1">  1        2 0.95457932E-01 0.21061357E+04</pdfrwt>
<pdfrwt beam="2">  1       -2 0.27496282E+00 0.21061357E+04</pdfrwt>
<totfact> 0.19826363E+00</totfact>
</mgrwt>
</event>
<event>
 4    1  0.2019612E-008  0.2943483E+04  0.7816531E-02  0.8260056E-01
          2   -1    0    0  501    0  0.00000000000E+00  0.00000000000E+00  0.20944151144E+04  0.20944151144E+04  0.00000000000E+00 0.  1.
         -2   -1    0    0    0  501 -0.00000000000E+00 -0.00000000000E+00 -0.10341901229E+04  0.10341901229E+04  0.00000000000E+00 0. -1.
    2000013    1    1    2    0    0  0.10353152553E+04 -0.37321855892E+03  0.77331200655E+03  0.16467183214E+04  0.95000000000E+03 0.  0.
   -2000013    1    1    2    0    0 -0.10353152553E+04  0.37321855892E+03  0.28691298493E+03  0.14818869159E+04  0.95000000000E+03 0.  0.
<mgrwt>
<rscale>  0 0.29434833E+04</rscale>
<asrwt>0</asrwt>
<pdfrwt beam="1">  1        2 0.32221771E+00 0.29434833E+04</pdfrwt>
<pdfrwt beam="2">  1       -2 0.15910617E+00 0.29434833E+04</pdfrwt>
<totfact> 0.13018019E+00</totfact>
</mgrwt>
</event>
<event>
 4    1  0.2019612E-008  0.3627958E+04  0.7816531E-02  0.8084117E-01
         -2   -1    0    0    0  501 -0.00000000000E+00  0.00000000000E+00  0.14548037261E+04  0.14548037261E+04  0.00000000000E+00 0. -1.
          2   -1    0    0  501    0  0.00000000000E+00 -0.00000000000E+00 -0.22618310133E+04  0.22618310133E+04  0.00000000000E+00 0.  1.
    2000013    1    1    2    0    0  0.10183261539E+04  0.74477338549E+03  0.51067987042E+03  0.16598100739E+04  0.95000000000E+03 0.  0.
   -2000013    1    1    2    0    0 -0.10183261539E+04 -0.74477338549E+03 -0.13177071576E+04  0.20568246655E+04  0.95000000000E+03 0.  0.
<mgrwt>
<rscale>  0 0.36279582E+04</rscale>
<asrwt>0</asrwt>
<pdfrwt beam="2">  1        2 0.34797400E+00 0.36279582E+04</pdfrwt>
<pdfrwt beam="1">  1       -2 0.22381596E+00 0.36279582E+04</pdfrwt>
<totfact> 0.36229676E-01</totfact>
</mgrwt>
</event>
<event>
 4    1  0.2019612E-008  0.2977210E+04  0.7816531E-02  0.8250269E-01
         -2   -1    0    0    0  501 -0.00000000000E+00  0.00000000000E+00  0.13442393077E+04  0.13442393077E+04  0.00000000000E+00 0.  1.
          2   -1    0    0  501    0  0.00000000000E+00 -0.00000000000E+00 -0.16484752859E+04  0.16484752859E+04  0.00000000000E+00 0. -1.
    2000013    1    1    2    0    0 -0.55102352633E+03 -0.83746912765E+03 -0.71040548362E+03  0.15531121716E+04  0.95000000000E+03 0.  0.
   -2000013    1    1    2    0    0  0.55102352633E+03  0.83746912765E+03  0.40616950548E+03  0.14396024220E+04  0.95000000000E+03 0.  0.
<mgrwt>
<rscale>  0 0.29772103E+04</rscale>
<asrwt>0</asrwt>
<pdfrwt beam="2">  1        2 0.25361158E+00 0.29772103E+04</pdfrwt>
<pdfrwt beam="1">  1       -2 0.20680605E+00 0.29772103E+04</pdfrwt>
<totfact> 0.10790683E+00</totfact>
</mgrwt>
</event>
<event>
 4    1  0.2019612E-008  0.2398564E+04  0.7816531E-02  0.8440041E-01
         -2   -1    0    0    0  501 -0.00000000000E+00  0.00000000000E+00  0.32774938685E+03  0.32774938685E+03  0.00000000000E+00 0. -1.
          2   -1    0    0  501    0  0.00000000000E+00 -0.00000000000E+00 -0.43883457531E+04  0.43883457531E+04  0.00000000000E+00 0.  1.
    2000013    1    1    2    0    0 -0.50862122008E+03  0.37369631398E+03 -0.13013830808E+04  0.17304457240E+04  0.95000000000E+03 0.  0.
   -2000013    1    1    2    0    0  0.50862122008E+03 -0.37369631398E+03 -0.27592132854E+04  0.29856494160E+04  0.95000000000E+03 0.  0.
<mgrwt>
<rscale>  0 0.23985643E+04</rscale>
<asrwt>0</asrwt>
<pdfrwt beam="2">  1        2 0.67513006E+00 0.23985643E+04</pdfrwt>
<pdfrwt beam="1">  1       -2 0.50422986E-01 0.23985643E+04</pdfrwt>
<totfact> 0.53014809E-01</totfact>
</mgrwt>
</event>
<event>
 4    1  0.2019612E-008  0.2418201E+04  0.7816531E-02  0.8432721E-01
          1   -1    0    0  501    0  0.00000000000E+00  0.00000000000E+00  0.78329226650E+03  0.78329226650E+03  0.00000000000E+00 0. -1.
         -1   -1    0    0    0  501 -0.00000000000E+00 -0.00000000000E+00 -0.18663843453E+04  0.18663843453E+04  0.00000000000E+00 0.  1.
    2000013    1    1    2    0    0 -0.36909383298E+03 -0.63560839024E+03 -0.69335848550E+03  0.13868937496E+04  0.95000000000E+03 0.  0.
   -2000013    1    1    2    0    0  0.36909383298E+03  0.63560839024E+03 -0.38973359329E+03  0.12627828622E+04  0.95000000000E+03 0.  0.
<mgrwt>
<rscale>  0 0.24182013E+04</rscale>
<asrwt>0</asrwt>
<pdfrwt beam="1">  1        1 0.12050650E+00 0.24182013E+04</pdfrwt>
<pdfrwt beam="2">  1       -1 0.28713605E+00 0.24182013E+04</pdfrwt>
<totfact> 0.81882584E-01</totfact>
</mgrwt>
</event>
<event>
 4    1  0.2019612E-008  0.3232417E+04  0.7816531E-02  0.8180308E-01
          2   -1    0    0  501    0  0.00000000000E+00  0.00000000000E+00  0.32515315149E+04  0.32515315149E+04  0.00000000000E+00 0.  1.
         -2   -1    0    0    0  501 -0.00000000000E+00 -0.00000000000E+00 -0.80335349808E+03  0.80335349808E+03  0.00000000000E+00 0. -1.
    2000013    1    1    2    0    0  0.53306376140E+03  0.11891464242E+04  0.13580447255E+04  0.21083196315E+04  0.95000000000E+03 0.  0.
   -2000013    1    1    2    0    0 -0.53306376140E+03 -0.11891464242E+04  0.10901332913E+04  0.19465653816E+04  0.95000000000E+03 0.  0.
<mgrwt>
<rscale>  0 0.32324166E+04</rscale>
<asrwt>0</asrwt>
<pdfrwt beam="1">  1        2 0.50023561E+00 0.32324166E+04</pdfrwt>
<pdfrwt beam="2">  1       -2 0.12359285E+00 0.32324166E+04</pdfrwt>
<totfact> 0.49642711E-01</totfact>
</mgrwt>
</event>
<event>
 4    1  0.2019612E-008  0.2534293E+04  0.7816531E-02  0.8390869E-01
         -4   -1    0    0    0  501 -0.00000000000E+00  0.00000000000E+00  0.14625399162E+04  0.14625399162E+04  0.00000000000E+00 0. -1.
          4   -1    0    0  501    0  0.00000000000E+00 -0.00000000000E+00 -0.10978577974E+04  0.10978577974E+04  0.00000000000E+00 0.  1.
    2000013    1    1    2    0    0 -0.72834639563E+03  0.30205978420E+01 -0.23746672528E+03  0.12204048679E+04  0.95000000000E+03 0.  0.
   -2000013    1    1    2    0    0  0.72834639563E+03 -0.30205978420E+01  0.60214884409E+03  0.13399928457E+04  0.95000000000E+03 0.  0.
<mgrwt>
<rscale>  0 0.25342935E+04</rscale>
<asrwt>0</asrwt>
<pdfrwt beam="2">  1        4 0.16890120E+00 0.25342935E+04</pdfrwt>
<pdfrwt beam="1">  1       -4 0.22500614E+00 0.25342935E+04</pdfrwt>
<totfact> 0.34620255E-02</totfact>
</mgrwt>
</event>
<event>
 4    1  0.2019612E-008  0.2302619E+04  0.7816531E-02  0.8476889E-01
          2   -1    0    0  501    0  0.00000000000E+00  0.00000000000E+00  0.10815523988E+04  0.10815523988E+04  0.00000000000E+00 0.  1.
         -2   -1    0    0    0  501 -0.00000000000E+00 -0.00000000000E+00 -0.12255658590E+04  0.12255658590E+04  0.00000000000E+00 0. -1.
    2000013    1    1    2    0    0 -0.46813632780E+03 -0.15445537994E+03 -0.49710640186E+03  0.11800944287E+04  0.95000000000E+03 0.  0.
   -2000013    1    1    2    0    0  0.46813632780E+03  0.15445537994E+03  0.35309294165E+03  0.11270238291E+04  0.95000000000E+03 0.  0.
<mgrwt>
<rscale>  0 0.23026191E+04</rscale>
<asrwt>0</asrwt>
<pdfrwt beam="1">  1        2 0.16639268E+00 0.23026191E+04</pdfrwt>
<pdfrwt beam="2">  1       -2 0.18854859E+00 0.23026191E+04</pdfrwt>
<totfact> 0.32136278E+00</totfact>
</mgrwt>
</event>
<event>
 4    1  0.2019612E-008  0.2744819E+04  0.7816531E-02  0.8320608E-01
          2   -1    0    0  501    0  0.00000000000E+00  0.00000000000E+00  0.18493952453E+04  0.18493952453E+04  0.00000000000E+00 0.  1.
         -2   -1    0    0    0  501 -0.00000000000E+00 -0.00000000000E+00 -0.10184453544E+04  0.10184453544E+04  0.00000000000E+00 0. -1.
    2000013    1    1    2    0    0  0.13055818995E+02  0.64437759935E+03 -0.37030647833E+03  0.12062420291E+04  0.95000000000E+03 0.  0.
   -2000013    1    1    2    0    0 -0.13055818995E+02 -0.64437759935E+03  0.12012563692E+04  0.16615985705E+04  0.95000000000E+03 0.  0.
<mgrwt>
<rscale>  0 0.27448191E+04</rscale>
<asrwt>0</asrwt>
<pdfrwt beam="1">  1        2 0.28452235E+00 0.27448191E+04</pdfrwt>
<pdfrwt beam="2">  1       -2 0.15668390E+00 0.27448191E+04</pdfrwt>
<totfact> 0.18882425E+00</totfact>
</mgrwt>
</event>
<event>
 4    1  0.2019612E-008  0.3556927E+04  0.7816531E-02  0.8100430E-01
          2   -1    0    0  501    0  0.00000000000E+00  0.00000000000E+00  0.16901455444E+04  0.16901455444E+04  0.00000000000E+00 0.  1.
         -2   -1    0    0    0  501 -0.00000000000E+00 -0.00000000000E+00 -0.18713965715E+04  0.18713965715E+04  0.00000000000E+00 0. -1.
    2000013    1    1    2    0    0 -0.13922091887E+04  0.13641668463E+03 -0.64231828885E+03  0.18088473460E+04  0.95000000000E+03 0.  0.
   -2000013    1    1    2    0    0  0.13922091887E+04 -0.13641668463E+03  0.46106726170E+03  0.17526947700E+04  0.95000000000E+03 0.  0.
<mgrwt>
<rscale>  0 0.35569271E+04</rscale>
<asrwt>0</asrwt>
<pdfrwt beam="1">  1        2 0.26002239E+00 0.35569271E+04</pdfrwt>
<pdfrwt beam="2">  1       -2 0.28790716E+00 0.35569271E+04</pdfrwt>
<totfact> 0.30609337E-01</totfact>
</mgrwt>
</event>
<event>
 4    1  0.2019612E-008  0.2788161E+04  0.7816531E-02  0.8306953E-01
         -2   -1    0    0    0  501 -0.00000000000E+00  0.00000000000E+00  0.80586190755E+03  0.80586190755E+03  0.00000000000E+00 0. -1.
          2   -1    0    0  501    0  0.00000000000E+00 -0.00000000000E+00 -0.24116547096E+04  0.24116547096E+04  0.00000000000E+00 0.  1.
    2000013    1    1    2    0    0  0.45412394258E+03 -0.90083240345E+03 -0.62700021784E+03  0.15209723362E+04  0.95000000000E+03 0.  0.
   -2000013    1    1    2    0    0 -0.45412394258E+03  0.90083240345E+03 -0.97879258425E+03  0.16965442810E+04  0.95000000000E+03 0.  0.
<mgrwt>
<rscale>  0 0.27881612E+04</rscale>
<asrwt>0</asrwt>
<pdfrwt beam="2">  1        2 0.37102379E+00 0.27881612E+04</pdfrwt>
<pdfrwt beam="1">  1       -2 0.12397876E+00 0.27881612E+04</pdfrwt>
<totfact> 0.16686122E+00</totfact>
</mgrwt>
</event>
<event>
 4    1  0.2019612E-008  0.2926716E+04  0.7816531E-02  0.8264973E-01
         -2   -1    0    0    0  501 -0.00000000000E+00  0.00000000000E+00  0.47580977540E+03  0.47580977540E+03  0.00000000000E+00 0. -1.
          2   -1    0    0  501    0  0.00000000000E+00 -0.00000000000E+00 -0.45005727160E+04  0.45005727160E+04  0.00000000000E+00 0.  1.
    2000013    1    1    2    0    0  0.40160852147E+02 -0.89018176832E+03 -0.87827289007E+03  0.15709550420E+04  0.95000000000E+03 0.  0.
   -2000013    1    1    2    0    0 -0.40160852147E+02  0.89018176832E+03 -0.31464900505E+04  0.34054274493E+04  0.95000000000E+03 0.  0.
<mgrwt>
<rscale>  0 0.29267159E+04</rscale>
<asrwt>0</asrwt>
<pdfrwt beam="2">  1        2 0.69239581E+00 0.29267159E+04</pdfrwt>
<pdfrwt beam="1">  1       -2 0.73201503E-01 0.29267159E+04</pdfrwt>
<totfact> 0.17836108E-01</totfact>
</mgrwt>
</event>
<event>
 4    1  0.2019612E-008  0.2282816E+04  0.7816531E-02  0.8484727E-01
          2   -1    0    0  501    0  0.00000000000E+00  0.00000000000E+00  0.86143541837E+03  0.86143541837E+03  0.00000000000E+00 0.  1.
         -2   -1    0    0    0  501 -0.00000000000E+00 -0.00000000000E+00 -0.15123736677E+04  0.15123736677E+04  0.00000000000E+00 0. -1.
    2000013    1    1    2    0    0  0.23984047902E+03 -0.53427303144E+03 -0.57447405472E+03  0.12551858695E+04  0.95000000000E+03 0.  0.
   -2000013    1    1    2    0    0 -0.23984047902E+03  0.53427303144E+03 -0.76464194586E+02  0.11186232165E+04  0.95000000000E+03 0.  0.
<mgrwt>
<rscale>  0 0.22828160E+04</rscale>
<asrwt>0</asrwt>
<pdfrwt beam="1">  1        2 0.13252853E+00 0.22828160E+04</pdfrwt>
<pdfrwt beam="2">  1       -2 0.23267287E+00 0.22828160E+04</pdfrwt>
<totfact> 0.23269242E+00</totfact>
</mgrwt>
</event>
<event>
 4    1  0.2019612E-008  0.3211801E+04  0.7816531E-02  0.8185707E-01
         -2   -1    0    0    0  501 -0.00000000000E+00  0.00000000000E+00  0.10851773833E+04  0.10851773833E+04  0.00000000000E+00 0. -1.
          2   -1    0    0  501    0  0.00000000000E+00 -0.00000000000E+00 -0.23764936457E+04  0.23764936457E+04  0.00000000000E+00 0.  1.
    2000013    1    1    2    0    0 -0.12421106964E+04  0.35949818493E+03 -0.57466057831E+03  0.17043511103E+04  0.95000000000E+03 0.  0.
   -2000013    1    1    2    0    0  0.12421106964E+04 -0.35949818493E+03 -0.71665568412E+03  0.17573199187E+04  0.95000000000E+03 0.  0.
<mgrwt>
<rscale>  0 0.32118015E+04</rscale>
<asrwt>0</asrwt>
<pdfrwt beam="2">  1        2 0.36561440E+00 0.32118015E+04</pdfrwt>
<pdfrwt beam="1">  1       -2 0.16695037E+00 0.32118015E+04</pdfrwt>
<totfact> 0.77307470E-01</totfact>
</mgrwt>
</event>
<event>
 4    1  0.2019612E-008  0.3125531E+04  0.7816531E-02  0.8208766E-01
          2   -1    0    0  501    0  0.00000000000E+00  0.00000000000E+00  0.13782512051E+04  0.13782512051E+04  0.00000000000E+00 0.  1.
         -2   -1    0    0    0  501 -0.00000000000E+00 -0.00000000000E+00 -0.17719821476E+04  0.17719821476E+04  0.00000000000E+00 0. -1.
    2000013    1    1    2    0    0 -0.10149422812E+04 -0.66922342401E+03 -0.44736280996E+03  0.16064250089E+04  0.95000000000E+03 0.  0.
   -2000013    1    1    2    0    0  0.10149422812E+04  0.66922342401E+03  0.53631867447E+02  0.15438083439E+04  0.95000000000E+03 0.  0.
<mgrwt>
<rscale>  0 0.31255313E+04</rscale>
<asrwt>0</asrwt>
<pdfrwt beam="1">  1        2 0.21203865E+00 0.31255313E+04</pdfrwt>
<pdfrwt beam="2">  1       -2 0.27261264E+00 0.31255313E+04</pdfrwt>
<totfact> 0.58946426E-01</totfact>
</mgrwt>
</event>
<event>
 4    1  0.2019612E-008  0.3121796E+04  0.7816531E-02  0.8209782E-01
          2   -1    0    0  501    0  0.00000000000E+00  0.00000000000E+00  0.21732078867E+04  0.21732078867E+04  0.00000000000E+00 0.  1.
         -2   -1    0    0    0  501 -0.00000000000E+00 -0.00000000000E+00 -0.11211089085E+04  0.11211089085E+04  0.00000000000E+00 0. -1.
    2000013    1    1    2    0    0 -0.61448950740E+03 -0.10085414751E+04  0.13240734417E+03  0.15214417394E+04  0.95000000000E+03 0.  0.
   -2000013    1    1    2    0    0  0.61448950740E+03  0.10085414751E+04  0.91969163400E+03  0.17728750558E+04  0.95000000000E+03 0.  0.
<mgrwt>
<rscale>  0 0.31217961E+04</rscale>
<asrwt>0</asrwt>
<pdfrwt beam="1">  1        2 0.33433968E+00 0.31217961E+04</pdfrwt>
<pdfrwt beam="2">  1       -2 0.17247829E+00 0.31217961E+04</pdfrwt>
<totfact> 0.92739145E-01</totfact>
</mgrwt>
</event>
<event>
 4    1  0.2019612E-008  0.3640549E+04  0.7816531E-02  0.8081266E-01
          1   -1    0    0  501    0  0.00000000000E+00  0.00000000000E+00  0.15241548942E+04  0.15241548942E+04  0.00000000000E+00 0.  1.
         -1   -1    0    0    0  501 -0.00000000000E+00 -0.00000000000E+00 -0.21739260911E+04  0.21739260911E+04  0.00000000000E+00 0. -1.
    2000013    1    1    2    0    0  0.13124872776E+04 -0.79560138067E+03 -0.86019186572E+02  0.18070704777E+04  0.95000000000E+03 0.  0.
   -2000013    1    1    2    0    0 -0.13124872776E+04  0.79560138067E+03 -0.56375201031E+03  0.18910105076E+04  0.95000000000E+03 0.  0.
<mgrwt>
<rscale>  0 0.36405495E+04</rscale>
<asrwt>0</asrwt>
<pdfrwt beam="1">  1        1 0.23448537E+00 0.36405495E+04</pdfrwt>
<pdfrwt beam="2">  1       -1 0.33445017E+00 0.36405495E+04</pdfrwt>
<totfact> 0.99856116E-02</totfact>
</mgrwt>
</event>
<event>
 4    1  0.2019612E-008  0.3303184E+04  0.7816531E-02  0.8162086E-01
          2   -1    0    0  501    0  0.00000000000E+00  0.00000000000E+00  0.15658531583E+04  0.15658531583E+04  0.00000000000E+00 0.  1.
         -2   -1    0    0    0  501 -0.00000000000E+00 -0.00000000000E+00 -0.17420259402E+04  0.17420259402E+04  0.00000000000E+00 0. -1.
    2000013    1    1    2    0    0 -0.28880367229E+03  0.12993828505E+04 -0.31961504471E+03  0.16662704253E+04  0.95000000000E+03 0.  0.
   -2000013    1    1    2    0    0  0.28880367229E+03 -0.12993828505E+04  0.14344226286E+03  0.16416086733E+04  0.95000000000E+03 0.  0.
<mgrwt>
<rscale>  0 0.33031844E+04</rscale>
<asrwt>0</asrwt>
<pdfrwt beam="1">  1        2 0.24090049E+00 0.33031844E+04</pdfrwt>
<pdfrwt beam="2">  1       -2 0.26800399E+00 0.33031844E+04</pdfrwt>
<totfact> 0.48508542E-01</totfact>
</mgrwt>
</event>
<event>
 4    1  0.2019612E-008  0.2796536E+04  0.7816531E-02  0.8304345E-01
          2   -1    0    0  501    0  0.00000000000E+00  0.00000000000E+00  0.27001058226E+04  0.27001058226E+04  0.00000000000E+00 0.  1.
         -2   -1    0    0    0  501 -0.00000000000E+00 -0.00000000000E+00 -0.72410241340E+03  0.72410241340E+03  0.00000000000E+00 0. -1.
    2000013    1    1    2    0    0  0.50348591071E+03  0.79583620020E+03  0.14865782140E+04  0.19998170181E+04  0.95000000000E+03 0.  0.
   -2000013    1    1    2    0    0 -0.50348591071E+03 -0.79583620020E+03  0.48942519527E+03  0.14243912179E+04  0.95000000000E+03 0.  0.
<mgrwt>
<rscale>  0 0.27965358E+04</rscale>
<asrwt>0</asrwt>
<pdfrwt beam="1">  1        2 0.41540089E+00 0.27965358E+04</pdfrwt>
<pdfrwt beam="2">  1       -2 0.11140037E+00 0.27965358E+04</pdfrwt>
<totfact> 0.14719858E+00</totfact>
</mgrwt>
</event>
<event>
 4    1  0.2019612E-008  0.2190458E+04  0.7816531E-02  0.8522410E-01
         -2   -1    0    0    0  501 -0.00000000000E+00  0.00000000000E+00  0.86448013512E+03  0.86448013512E+03  0.00000000000E+00 0. -1.
          2   -1    0    0  501    0  0.00000000000E+00 -0.00000000000E+00 -0.13875701501E+04  0.13875701501E+04  0.00000000000E+00 0.  1.
    2000013    1    1    2    0    0  0.31701799406E+03 -0.44317923266E+03 -0.27274111666E+03  0.11286256942E+04  0.95000000000E+03 0.  0.
   -2000013    1    1    2    0    0 -0.31701799406E+03  0.44317923266E+03 -0.25034889827E+03  0.11234245910E+04  0.95000000000E+03 0.  0.
<mgrwt>
<rscale>  0 0.21904582E+04</rscale>
<asrwt>0</asrwt>
<pdfrwt beam="2">  1        2 0.21347233E+00 0.21904582E+04</pdfrwt>
<pdfrwt beam="1">  1       -2 0.13299694E+00 0.21904582E+04</pdfrwt>
<totfact> 0.55161791E+00</totfact>
</mgrwt>
</event>
<event>
 4    1  0.2019612E-008  0.2260370E+04  0.7816531E-02  0.8493712E-01
         -2   -1    0    0    0  501 -0.00000000000E+00  0.00000000000E+00  0.95666971218E+03  0.95666971218E+03  0.00000000000E+00 0. -1.
          2   -1    0    0  501    0  0.00000000000E+00 -0.00000000000E+00 -0.13351719582E+04  0.13351719582E+04  0.00000000000E+00 0.  1.
    2000013    1    1    2    0    0  0.40259505058E+03  0.84855181018E+02  0.27042115693E+03  0.10700050367E+04  0.95000000000E+03 0.  0.
   -2000013    1    1    2    0    0 -0.40259505058E+03 -0.84855181018E+02 -0.64892340297E+03  0.12218366337E+04  0.95000000000E+03 0.  0.
<mgrwt>
<rscale>  0 0.22603704E+04</rscale>
<asrwt>0</asrwt>
<pdfrwt beam="2">  1        2 0.20541107E+00 0.22603704E+04</pdfrwt>
<pdfrwt beam="1">  1       -2 0.14717996E+00 0.22603704E+04</pdfrwt>
<totfact> 0.45197958E+00</totfact>
</mgrwt>
</event>
<event>
 4    1  0.2019612E-008  0.3919943E+04  0.7816531E-02  0.8020894E-01
          2   -1    0    0  501    0  0.00000000000E+00  0.00000000000E+00  0.24917151961E+04  0.24917151961E+04  0.00000000000E+00 0.  1.
         -2   -1    0    0    0  501 -0.00000000000E+00 -0.00000000000E+00 -0.15417042746E+04  0.15417042746E+04  0.00000000000E+00 0. -1.
    2000013    1    1    2    0    0  0.13777951111E+04 -0.10176561827E+04  0.54808612528E+03  0.20339227800E+04  0.95000000000E+03 0.  0.
   -2000013    1    1    2    0    0 -0.13777951111E+04  0.10176561827E+04  0.40192479622E+03  0.19994966907E+04  0.95000000000E+03 0.  0.
<mgrwt>
<rscale>  0 0.39199428E+04</rscale>
<asrwt>0</asrwt>
<pdfrwt beam="1">  1        2 0.38334080E+00 0.39199428E+04</pdfrwt>
<pdfrwt beam="2">  1       -2 0.23718527E+00 0.39199428E+04</pdfrwt>
<totfact> 0.21551371E-01</totfact>
</mgrwt>
</event>
<event>
 4    1  0.2019612E-008  0.2935827E+04  0.7816531E-02  0.8262297E-01
         -2   -1    0    0    0  501 -0.00000000000E+00  0.00000000000E+00  0.64042260452E+03  0.64042260452E+03  0.00000000000E+00 0. -1.
          2   -1    0    0  501    0  0.00000000000E+00 -0.00000000000E+00 -0.33646054458E+04  0.33646054458E+04  0.00000000000E+00 0.  1.
    2000013    1    1    2    0    0 -0.91422467274E+03 -0.12846094611E+03 -0.49934399096E+03  0.14156812453E+04  0.95000000000E+03 0.  0.
   -2000013    1    1    2    0    0  0.91422467274E+03  0.12846094611E+03 -0.22248388503E+04  0.25893468050E+04  0.95000000000E+03 0.  0.
<mgrwt>
<rscale>  0 0.29358265E+04</rscale>
<asrwt>0</asrwt>
<pdfrwt beam="2">  1        2 0.51763161E+00 0.29358265E+04</pdfrwt>
<pdfrwt beam="1">  1       -2 0.98526553E-01 0.29358265E+04</pdfrwt>
<totfact> 0.74146391E-01</totfact>
</mgrwt>
</event>
<event>
 4    1  0.2019612E-008  0.2016092E+04  0.7816531E-02  0.8599134E-01
         -1   -1    0    0    0  501 -0.00000000000E+00  0.00000000000E+00  0.62045074185E+03  0.62045074185E+03  0.00000000000E+00 0. -1.
          1   -1    0    0  501    0  0.00000000000E+00 -0.00000000000E+00 -0.16377724061E+04  0.16377724061E+04  0.00000000000E+00 0.  1.
    2000013    1    1    2    0    0  0.29444853344E+03 -0.16347573733E+03 -0.52575285485E+03  0.11368114707E+04  0.95000000000E+03 0.  0.
   -2000013    1    1    2    0    0 -0.29444853344E+03  0.16347573733E+03 -0.49156880942E+03  0.11214116773E+04  0.95000000000E+03 0.  0.
<mgrwt>
<rscale>  0 0.20160924E+04</rscale>
<asrwt>0</asrwt>
<pdfrwt beam="2">  1        1 0.25196498E+00 0.20160924E+04</pdfrwt>
<pdfrwt beam="1">  1       -1 0.95453961E-01 0.20160924E+04</pdfrwt>
<totfact> 0.51581855E+00</totfact>
</mgrwt>
</event>
<event>
 4    1  0.2019612E-008  0.3128025E+04  0.7816531E-02  0.8208089E-01
         -2   -1    0    0    0  501 -0.00000000000E+00  0.00000000000E+00  0.22084497080E+04  0.22084497080E+04  0.00000000000E+00 0. -1.
          2   -1    0    0  501    0  0.00000000000E+00 -0.00000000000E+00 -0.11076251644E+04  0.11076251644E+04  0.00000000000E+00 0.  1.
    2000013    1    1    2    0    0  0.94766224790E+02  0.11167116718E+04  0.11189447905E+04  0.18467709764E+04  0.95000000000E+03 0.  0.
   -2000013    1    1    2    0    0 -0.94766224790E+02 -0.11167116718E+04 -0.18120246901E+02  0.14693038959E+04  0.95000000000E+03 0.  0.
<mgrwt>
<rscale>  0 0.31280246E+04</rscale>
<asrwt>0</asrwt>
<pdfrwt beam="2">  1        2 0.17040387E+00 0.31280246E+04</pdfrwt>
<pdfrwt beam="1">  1       -2 0.33976149E+00 0.31280246E+04</pdfrwt>
<totfact> 0.32928389E-01</totfact>
</mgrwt>
</event>
<event>
 4    1  0.2019612E-008  0.4166391E+04  0.7816531E-02  0.7971796E-01
         -2   -1    0    0    0  501 -0.00000000000E+00  0.00000000000E+00  0.25753727711E+04  0.25753727711E+04  0.00000000000E+00 0.  1.
          2   -1    0    0  501    0  0.00000000000E+00 -0.00000000000E+00 -0.16850781638E+04  0.16850781638E+04  0.00000000000E+00 0. -1.
    2000013    1    1    2    0    0  0.60012849577E+03  0.16915145456E+04  0.92020914294E+03  0.22294978215E+04  0.95000000000E+03 0.  0.
   -2000013    1    1    2    0    0 -0.60012849577E+03 -0.16915145456E+04 -0.29914535613E+02  0.20309531134E+04  0.95000000000E+03 0.  0.
<mgrwt>
<rscale>  0 0.41663914E+04</rscale>
<asrwt>0</asrwt>
<pdfrwt beam="2">  1        2 0.25924279E+00 0.41663914E+04</pdfrwt>
<pdfrwt beam="1">  1       -2 0.39621120E+00 0.41663914E+04</pdfrwt>
<totfact> 0.61122907E-02</totfact>
</mgrwt>
</event>
<event>
 4    1  0.2019612E-008  0.3616906E+04  0.7816531E-02  0.8086630E-01
         -2   -1    0    0    0  501 -0.00000000000E+00  0.00000000000E+00  0.17955343335E+04  0.17955343335E+04  0.00000000000E+00 0.  1.
          2   -1    0    0  501    0  0.00000000000E+00 -0.00000000000E+00 -0.18214649159E+04  0.18214649159E+04  0.00000000000E+00 0. -1.
    2000013    1    1    2    0    0 -0.71734664578E+03  0.10550537244E+04 -0.87338162729E+03  0.18146680243E+04  0.95000000000E+03 0.  0.
   -2000013    1    1    2    0    0  0.71734664578E+03 -0.10550537244E+04  0.84745104484E+03  0.18023312251E+04  0.95000000000E+03 0.  0.
<mgrwt>
<rscale>  0 0.36169063E+04</rscale>
<asrwt>0</asrwt>
<pdfrwt beam="2">  1        2 0.28022537E+00 0.36169063E+04</pdfrwt>
<pdfrwt beam="1">  1       -2 0.27623605E+00 0.36169063E+04</pdfrwt>
<totfact> 0.30338387E-01</totfact>
</mgrwt>
</event>
<event>
 4    1  0.2019612E-008  0.1991103E+04  0.7816531E-02  0.8610791E-01
          1   -1    0    0  501    0  0.00000000000E+00  0.00000000000E+00  0.17511441374E+04  0.17511441374E+04  0.00000000000E+00 0.  1.
         -1   -1    0    0    0  501 -0.00000000000E+00 -0.00000000000E+00 -0.56598611698E+03  0.56598611698E+03  0.00000000000E+00 0. -1.
    2000013    1    1    2    0    0 -0.26543740708E+03  0.28200631613E+02  0.43919900445E+03  0.10801148357E+04  0.95000000000E+03 0.  0.
   -2000013    1    1    2    0    0  0.26543740708E+03 -0.28200631613E+02  0.74595901602E+03  0.12370154188E+04  0.95000000000E+03 0.  0.
<mgrwt>
<rscale>  0 0.19911035E+04</rscale>
<asrwt>0</asrwt>
<pdfrwt beam="1">  1        1 0.26940679E+00 0.19911035E+04</pdfrwt>
<pdfrwt beam="2">  1       -1 0.87074788E-01 0.19911035E+04</pdfrwt>
<totfact> 0.53033032E+00</totfact>
</mgrwt>
</event>
<event>
 4    1  0.2019612E-008  0.2774615E+04  0.7816531E-02  0.8311193E-01
          2   -1    0    0  501    0  0.00000000000E+00  0.00000000000E+00  0.12423235304E+04  0.12423235304E+04  0.00000000000E+00 0.  1.
         -2   -1    0    0    0  501 -0.00000000000E+00 -0.00000000000E+00 -0.15492117656E+04  0.15492117656E+04  0.00000000000E+00 0. -1.
    2000013    1    1    2    0    0  0.16308617667E+03 -0.87493840086E+03  0.32907194755E+03  0.13427221056E+04  0.95000000000E+03 0.  0.
   -2000013    1    1    2    0    0 -0.16308617667E+03  0.87493840086E+03 -0.63596018274E+03  0.14488131903E+04  0.95000000000E+03 0.  0.
<mgrwt>
<rscale>  0 0.27746151E+04</rscale>
<asrwt>0</asrwt>
<pdfrwt beam="1">  1        2 0.19112670E+00 0.27746151E+04</pdfrwt>
<pdfrwt beam="2">  1       -2 0.23834027E+00 0.27746151E+04</pdfrwt>
<totfact> 0.11821492E+00</totfact>
</mgrwt>
</event>
<event>
 4    1  0.2019612E-008  0.2297124E+04  0.7816531E-02  0.8479056E-01
          2   -1    0    0  501    0  0.00000000000E+00  0.00000000000E+00  0.10548878080E+04  0.10548878080E+04  0.00000000000E+00 0.  1.
         -2   -1    0    0    0  501 -0.00000000000E+00 -0.00000000000E+00 -0.12505542511E+04  0.12505542511E+04  0.00000000000E+00 0. -1.
    2000013    1    1    2    0    0  0.56900698609E+03  0.21581846963E+03 -0.31389836191E+03  0.11710588131E+04  0.95000000000E+03 0.  0.
   -2000013    1    1    2    0    0 -0.56900698609E+03 -0.21581846963E+03  0.11823191881E+03  0.11343832459E+04  0.95000000000E+03 0.  0.
<mgrwt>
<rscale>  0 0.22971238E+04</rscale>
<asrwt>0</asrwt>
<pdfrwt beam="1">  1        2 0.16229043E+00 0.22971238E+04</pdfrwt>
<pdfrwt beam="2">  1       -2 0.19239296E+00 0.22971238E+04</pdfrwt>
<totfact> 0.31481205E+00</totfact>
</mgrwt>
</event>
<event>
 4    1  0.2019612E-008  0.2783150E+04  0.7816531E-02  0.8308519E-01
         -2   -1    0    0    0  501 -0.00000000000E+00  0.00000000000E+00  0.51716514377E+03  0.51716514377E+03  0.00000000000E+00 0. -1.
          2   -1    0    0  501    0  0.00000000000E+00 -0.00000000000E+00 -0.37444163677E+04  0.37444163677E+04  0.00000000000E+00 0.  1.
    2000013    1    1    2    0    0 -0.99139868308E+03 -0.20838939186E+01 -0.19597799622E+04  0.23929298343E+04  0.95000000000E+03 0.  0.
   -2000013    1    1    2    0    0  0.99139868308E+03  0.20838939186E+01 -0.12674712617E+04  0.18686516772E+04  0.95000000000E+03 0.  0.
<mgrwt>
<rscale>  0 0.27831505E+04</rscale>
<asrwt>0</asrwt>
<pdfrwt beam="2">  1        2 0.57606405E+00 0.27831505E+04</pdfrwt>
<pdfrwt beam="1">  1       -2 0.79563870E-01 0.27831505E+04</pdfrwt>
<totfact> 0.65978534E-01</totfact>
</mgrwt>
</event>
