<event>
 4    1  0.1295381E-008  0.2117163E+04  0.7816531E-02  0.8553720E-01
          2   -1    0    0  501    0  0.00000000000E+00  0.00000000000E+00  0.87242558103E+03  0.87242558103E+03  0.00000000000E+00 0.  1.
         -2   -1    0    0    0  501 -0.00000000000E+00 -0.00000000000E+00 -0.12844593548E+04  0.12844593548E+04  0.00000000000E+00 0. -1.
    2000013    1    1    2    0    0  0.30669068882E+03  0.34843873275E+03 -0.15380627191E+03  0.10684685762E+04  0.95000000000E+03 0.  0.
   -2000013    1    1    2    0    0 -0.30669068882E+03 -0.34843873275E+03 -0.25822750183E+03  0.10884163596E+04  0.95000000000E+03 0.  0.
<mgrwt>
<rscale>  0 0.21171634E+04</rscale>
<asrwt>0</asrwt>
<pdfrwt beam="1">  1        2 0.13421932E+00 0.21171634E+04</pdfrwt>
<pdfrwt beam="2">  1       -2 0.19760913E+00 0.21171634E+04</pdfrwt>
<totfact> 0.38848483E+00</totfact>
</mgrwt>
</event>
<event>
 4    1  0.1295381E-008  0.3683395E+04  0.7816531E-02  0.8071652E-01
          2   -1    0    0  501    0  0.00000000000E+00  0.00000000000E+00  0.16480436294E+04  0.16480436294E+04  0.00000000000E+00 0.  1.
         -2   -1    0    0    0  501 -0.00000000000E+00 -0.00000000000E+00 -0.20581065382E+04  0.20581065382E+04  0.00000000000E+00 0. -1.
    2000013    1    1    2    0    0 -0.76928233231E+03 -0.92508804284E+03  0.82194352827E+03  0.17394465664E+04  0.95000000000E+03 0.  0.
   -2000013    1    1    2    0    0  0.76928233231E+03  0.92508804284E+03 -0.12320064371E+04  0.19667036012E+04  0.95000000000E+03 0.  0.
<mgrwt>
<rscale>  0 0.36833948E+04</rscale>
<asrwt>0</asrwt>
<pdfrwt beam="1">  1        2 0.25354517E+00 0.36833948E+04</pdfrwt>
<pdfrwt beam="2">  1       -2 0.31663178E+00 0.36833948E+04</pdfrwt>
<totfact> 0.21312598E-01</totfact>
</mgrwt>
</event>
<event>
 4    1  0.1295381E-008  0.2148789E+04  0.7816531E-02  0.8540051E-01
         -2   -1    0    0    0  501 -0.00000000000E+00  0.00000000000E+00  0.33340996638E+03  0.33340996638E+03  0.00000000000E+00 0. -1.
          2   -1    0    0  501    0  0.00000000000E+00 -0.00000000000E+00 -0.34621756018E+04  0.34621756018E+04  0.00000000000E+00 0.  1.
    2000013    1    1    2    0    0  0.31323829800E+03  0.37355747633E+03 -0.17745782144E+04  0.20710604189E+04  0.95000000000E+03 0.  0.
   -2000013    1    1    2    0    0 -0.31323829800E+03 -0.37355747633E+03 -0.13541874210E+04  0.17245251493E+04  0.95000000000E+03 0.  0.
<mgrwt>
<rscale>  0 0.21487893E+04</rscale>
<asrwt>0</asrwt>
<pdfrwt beam="2">  1        2 0.53264236E+00 0.21487893E+04</pdfrwt>
<pdfrwt beam="1">  1       -2 0.51293845E-01 0.21487893E+04</pdfrwt>
<totfact> 0.28585395E+00</totfact>
</mgrwt>
</event>
<event>
 4    1  0.1295381E-008  0.3169175E+04  0.7816531E-02  0.8197006E-01
          2   -1    0    0  501    0  0.00000000000E+00  0.00000000000E+00  0.19141588563E+04  0.19141588563E+04  0.00000000000E+00 0.  1.
         -2   -1    0    0    0  501 -0.00000000000E+00 -0.00000000000E+00 -0.13117599516E+04  0.13117599516E+04  0.00000000000E+00 0. -1.
    2000013    1    1    2    0    0 -0.40209190984E+03 -0.11999615262E+04  0.38533138411E+03  0.16286699617E+04  0.95000000000E+03 0.  0.
   -2000013    1    1    2    0    0  0.40209190984E+03  0.11999615262E+04  0.21706752058E+03  0.15972488463E+04  0.95000000000E+03 0.  0.
<mgrwt>
<rscale>  0 0.31691746E+04</rscale>
<asrwt>0</asrwt>
<pdfrwt beam="1">  1        2 0.29448598E+00 0.31691746E+04</pdfrwt>
<pdfrwt beam="2">  1       -2 0.20180922E+00 0.31691746E+04</pdfrwt>
<totfact> 0.81479297E-01</totfact>
</mgrwt>
</event>
<event>
 4    1  0.1295381E-008  0.2511948E+04  0.7816531E-02  0.8398741E-01
         -1   -1    0    0    0  501 -0.00000000000E+00  0.00000000000E+00  0.24654090636E+04  0.24654090636E+04  0.00000000000E+00 0.  1.
          1   -1    0    0  501    0  0.00000000000E+00 -0.00000000000E+00 -0.63984121434E+03  0.63984121434E+03  0.00000000000E+00 0. -1.
    2000013    1    1    2    0    0  0.63172464189E+03  0.44636543303E+03  0.57053007369E+03  0.13514150687E+04  0.95000000000E+03 0.  0.
   -2000013    1    1    2    0    0 -0.63172464189E+03 -0.44636543303E+03  0.12550377755E+04  0.17538352092E+04  0.95000000000E+03 0.  0.
<mgrwt>
<rscale>  0 0.25119477E+04</rscale>
<asrwt>0</asrwt>
<pdfrwt beam="2">  1        1 0.98437111E-01 0.25119477E+04</pdfrwt>
<pdfrwt beam="1">  1       -1 0.37929370E+00 0.25119477E+04</pdfrwt>
<totfact> 0.27374864E-01</totfact>
</mgrwt>
</event>
<event>
 4    1  0.1295381E-008  0.2354886E+04  0.7816531E-02  0.8456590E-01
         -2   -1    0    0    0  501 -0.00000000000E+00  0.00000000000E+00  0.77645363324E+03  0.77645363324E+03  0.00000000000E+00 0. -1.
          2   -1    0    0  501    0  0.00000000000E+00 -0.00000000000E+00 -0.17855173575E+04  0.17855173575E+04  0.00000000000E+00 0.  1.
    2000013    1    1    2    0    0  0.26065335083E+03 -0.64452075277E+03 -0.47962140687E+03  0.12711742068E+04  0.95000000000E+03 0.  0.
   -2000013    1    1    2    0    0 -0.26065335083E+03  0.64452075277E+03 -0.52944231740E+03  0.12907967840E+04  0.95000000000E+03 0.  0.
<mgrwt>
<rscale>  0 0.23548855E+04</rscale>
<asrwt>0</asrwt>
<pdfrwt beam="2">  1        2 0.27469498E+00 0.23548855E+04</pdfrwt>
<pdfrwt beam="1">  1       -2 0.11945440E+00 0.23548855E+04</pdfrwt>
<totfact> 0.42610958E+00</totfact>
</mgrwt>
</event>
<event>
 4    1  0.1295381E-008  0.3176699E+04  0.7816531E-02  0.8194998E-01
          2   -1    0    0  501    0  0.00000000000E+00  0.00000000000E+00  0.11599821095E+04  0.11599821095E+04  0.00000000000E+00 0.  1.
         -2   -1    0    0    0  501 -0.00000000000E+00 -0.00000000000E+00 -0.21749071314E+04  0.21749071314E+04  0.00000000000E+00 0. -1.
    2000013    1    1    2    0    0  0.11332793842E+04  0.22416765018E+03  0.53742292396E+02  0.14966501034E+04  0.95000000000E+03 0.  0.
   -2000013    1    1    2    0    0 -0.11332793842E+04 -0.22416765018E+03 -0.10686673142E+04  0.18382391375E+04  0.95000000000E+03 0.  0.
<mgrwt>
<rscale>  0 0.31766985E+04</rscale>
<asrwt>0</asrwt>
<pdfrwt beam="1">  1        2 0.17845879E+00 0.31766985E+04</pdfrwt>
<pdfrwt beam="2">  1       -2 0.33460110E+00 0.31766985E+04</pdfrwt>
<totfact> 0.32816616E-01</totfact>
</mgrwt>
</event>
<event>
 4    1  0.1295381E-008  0.2626372E+04  0.7816531E-02  0.8359298E-01
          2   -1    0    0  501    0  0.00000000000E+00  0.00000000000E+00  0.14315567568E+04  0.14315567568E+04  0.00000000000E+00 0.  1.
         -2   -1    0    0    0  501 -0.00000000000E+00 -0.00000000000E+00 -0.12046025811E+04  0.12046025811E+04  0.00000000000E+00 0. -1.
    2000013    1    1    2    0    0  0.81647672651E+03  0.31773211520E+03 -0.12056353345E+03  0.12979304710E+04  0.95000000000E+03 0.  0.
   -2000013    1    1    2    0    0 -0.81647672651E+03 -0.31773211520E+03  0.34751770917E+03  0.13382288669E+04  0.95000000000E+03 0.  0.
<mgrwt>
<rscale>  0 0.26263716E+04</rscale>
<asrwt>0</asrwt>
<pdfrwt beam="1">  1        2 0.22023950E+00 0.26263716E+04</pdfrwt>
<pdfrwt beam="2">  1       -2 0.18532347E+00 0.26263716E+04</pdfrwt>
<totfact> 0.20428079E+00</totfact>
</mgrwt>
</event>
<event>
 4    1  0.1295381E-008  0.3291815E+04  0.7816531E-02  0.8164981E-01
          2   -1    0    0  501    0  0.00000000000E+00  0.00000000000E+00  0.24539640738E+04  0.24539640738E+04  0.00000000000E+00 0.  1.
         -2   -1    0    0    0  501 -0.00000000000E+00 -0.00000000000E+00 -0.11039329993E+04  0.11039329993E+04  0.00000000000E+00 0. -1.
    2000013    1    1    2    0    0 -0.12588925584E+04 -0.37995286174E+03  0.37444089196E+03  0.16648965831E+04  0.95000000000E+03 0.  0.
   -2000013    1    1    2    0    0  0.12588925584E+04  0.37995286174E+03  0.97559018253E+03  0.18930004900E+04  0.95000000000E+03 0.  0.
<mgrwt>
<rscale>  0 0.32918153E+04</rscale>
<asrwt>0</asrwt>
<pdfrwt beam="1">  1        2 0.37753293E+00 0.32918153E+04</pdfrwt>
<pdfrwt beam="2">  1       -2 0.16983585E+00 0.32918153E+04</pdfrwt>
<totfact> 0.66099312E-01</totfact>
</mgrwt>
</event>
<event>
 4    1  0.1295381E-008  0.2755248E+04  0.7816531E-02  0.8317298E-01
         -1   -1    0    0    0  501 -0.00000000000E+00  0.00000000000E+00  0.13739068823E+04  0.13739068823E+04  0.00000000000E+00 0. -1.
          1   -1    0    0  501    0  0.00000000000E+00 -0.00000000000E+00 -0.13813510962E+04  0.13813510962E+04  0.00000000000E+00 0.  1.
    2000013    1    1    2    0    0  0.69272869606E+03 -0.71795726996E+03 -0.71992095915E+01  0.13776383838E+04  0.95000000000E+03 0.  0.
   -2000013    1    1    2    0    0 -0.69272869606E+03  0.71795726996E+03 -0.24500432934E+00  0.13776195948E+04  0.95000000000E+03 0.  0.
<mgrwt>
<rscale>  0 0.27552479E+04</rscale>
<asrwt>0</asrwt>
<pdfrwt beam="2">  1        1 0.21251555E+00 0.27552479E+04</pdfrwt>
<pdfrwt beam="1">  1       -1 0.21137029E+00 0.27552479E+04</pdfrwt>
<totfact> 0.86598630E-01</totfact>
</mgrwt>
</event>
<event>
 4    1  0.1295381E-008  0.2268814E+04  0.7816531E-02  0.8490320E-01
          2   -1    0    0  501    0  0.00000000000E+00  0.00000000000E+00  0.15867507421E+04  0.15867507421E+04  0.00000000000E+00 0.  1.
         -2   -1    0    0    0  501 -0.00000000000E+00 -0.00000000000E+00 -0.81101562540E+03  0.81101562540E+03  0.00000000000E+00 0. -1.
    2000013    1    1    2    0    0 -0.45054903846E+03 -0.27832988466E+03  0.47182855472E+02  0.10886634846E+04  0.95000000000E+03 0.  0.
   -2000013    1    1    2    0    0  0.45054903846E+03  0.27832988466E+03  0.72855226120E+03  0.13091028829E+04  0.95000000000E+03 0.  0.
<mgrwt>
<rscale>  0 0.22688144E+04</rscale>
<asrwt>0</asrwt>
<pdfrwt beam="1">  1        2 0.24411550E+00 0.22688144E+04</pdfrwt>
<pdfrwt beam="2">  1       -2 0.12477164E+00 0.22688144E+04</pdfrwt>
<totfact> 0.49674334E+00</totfact>
</mgrwt>
</event>
<event>
 4    1  0.1295381E-008  0.2295105E+04  0.7816531E-02  0.8479854E-01
          2   -1    0    0  501    0  0.00000000000E+00  0.00000000000E+00  0.19784459645E+04  0.19784459645E+04  0.00000000000E+00 0.  1.
         -2   -1    0    0    0  501 -0.00000000000E+00 -0.00000000000E+00 -0.66561150029E+03  0.66561150029E+03  0.00000000000E+00 0. -1.
    2000013    1    1    2    0    0 -0.56155726271E+03  0.40637127678E+02  0.10159179984E+04  0.15005290117E+04  0.95000000000E+03 0.  0.
   -2000013    1    1    2    0    0  0.56155726271E+03 -0.40637127678E+02  0.29691646585E+03  0.11435284531E+04  0.95000000000E+03 0.  0.
<mgrwt>
<rscale>  0 0.22951047E+04</rscale>
<asrwt>0</asrwt>
<pdfrwt beam="1">  1        2 0.30437630E+00 0.22951047E+04</pdfrwt>
<pdfrwt beam="2">  1       -2 0.10240177E+00 0.22951047E+04</pdfrwt>
<totfact> 0.48622546E+00</totfact>
</mgrwt>
</event>
<event>
 4    1  0.1295381E-008  0.2436139E+04  0.7816531E-02  0.8426096E-01
          2   -1    0    0  501    0  0.00000000000E+00  0.00000000000E+00  0.21580668560E+04  0.21580668560E+04  0.00000000000E+00 0.  1.
         -2   -1    0    0    0  501 -0.00000000000E+00 -0.00000000000E+00 -0.68751054911E+03  0.68751054911E+03  0.00000000000E+00 0. -1.
    2000013    1    1    2    0    0 -0.28287748221E+03  0.65144687083E+03  0.41159243766E+03  0.12555122581E+04  0.95000000000E+03 0.  0.
   -2000013    1    1    2    0    0  0.28287748221E+03 -0.65144687083E+03  0.10589638692E+04  0.15900651470E+04  0.95000000000E+03 0.  0.
<mgrwt>
<rscale>  0 0.24361393E+04</rscale>
<asrwt>0</asrwt>
<pdfrwt beam="1">  1        2 0.33201028E+00 0.24361393E+04</pdfrwt>
<pdfrwt beam="2">  1       -2 0.10577085E+00 0.24361393E+04</pdfrwt>
<totfact> 0.35300226E+00</totfact>
</mgrwt>
</event>
<event>
 4    1  0.1295381E-008  0.2770106E+04  0.7816531E-02  0.8312610E-01
         -2   -1    0    0    0  501 -0.00000000000E+00  0.00000000000E+00  0.92830601124E+03  0.92830601124E+03  0.00000000000E+00 0. -1.
          2   -1    0    0  501    0  0.00000000000E+00 -0.00000000000E+00 -0.20665299633E+04  0.20665299633E+04  0.00000000000E+00 0.  1.
    2000013    1    1    2    0    0 -0.93531703532E+03 -0.11813617116E+03 -0.95454249417E+03  0.16439055583E+04  0.95000000000E+03 0.  0.
   -2000013    1    1    2    0    0  0.93531703532E+03  0.11813617116E+03 -0.18368145789E+03  0.13509304162E+04  0.95000000000E+03 0.  0.
<mgrwt>
<rscale>  0 0.27701063E+04</rscale>
<asrwt>0</asrwt>
<pdfrwt beam="2">  1        2 0.31792768E+00 0.27701063E+04</pdfrwt>
<pdfrwt beam="1">  1       -2 0.14281631E+00 0.27701063E+04</pdfrwt>
<totfact> 0.18246046E+00</totfact>
</mgrwt>
</event>
<event>
 4    1  0.1295381E-008  0.2435678E+04  0.7816531E-02  0.8426266E-01
         -1   -1    0    0    0  501 -0.00000000000E+00  0.00000000000E+00  0.93437338140E+03  0.93437338140E+03  0.00000000000E+00 0. -1.
          1   -1    0    0  501    0  0.00000000000E+00 -0.00000000000E+00 -0.15873013383E+04  0.15873013383E+04  0.00000000000E+00 0.  1.
    2000013    1    1    2    0    0 -0.54977575278E+03 -0.51306732523E+03 -0.45385580225E+03  0.12938224561E+04  0.95000000000E+03 0.  0.
   -2000013    1    1    2    0    0  0.54977575278E+03  0.51306732523E+03 -0.19907215465E+03  0.12278522636E+04  0.95000000000E+03 0.  0.
<mgrwt>
<rscale>  0 0.24356782E+04</rscale>
<asrwt>0</asrwt>
<pdfrwt beam="2">  1        1 0.24420020E+00 0.24356782E+04</pdfrwt>
<pdfrwt beam="1">  1       -1 0.14374975E+00 0.24356782E+04</pdfrwt>
<totfact> 0.19885973E+00</totfact>
</mgrwt>
</event>
<event>
 4    1  0.1295381E-008  0.2790504E+04  0.7816531E-02  0.8306223E-01
          1   -1    0    0  501    0  0.00000000000E+00  0.00000000000E+00  0.23848221369E+04  0.23848221369E+04  0.00000000000E+00 0.  1.
         -1   -1    0    0    0  501 -0.00000000000E+00 -0.00000000000E+00 -0.81629887818E+03  0.81629887818E+03  0.00000000000E+00 0. -1.
    2000013    1    1    2    0    0 -0.23629677288E+03  0.81439308277E+03  0.13013027008E+03  0.12800414623E+04  0.95000000000E+03 0.  0.
   -2000013    1    1    2    0    0  0.23629677288E+03 -0.81439308277E+03  0.14383929886E+04  0.19210795527E+04  0.95000000000E+03 0.  0.
<mgrwt>
<rscale>  0 0.27905036E+04</rscale>
<asrwt>0</asrwt>
<pdfrwt beam="1">  1        1 0.36689571E+00 0.27905036E+04</pdfrwt>
<pdfrwt beam="2">  1       -1 0.12558444E+00 0.27905036E+04</pdfrwt>
<totfact> 0.77969065E-01</totfact>
</mgrwt>
</event>
<event>
 4    1  0.1295381E-008  0.3547985E+04  0.7816531E-02  0.8102511E-01
          2   -1    0    0  501    0  0.00000000000E+00  0.00000000000E+00  0.20493086744E+04  0.20493086744E+04  0.00000000000E+00 0.  1.
         -2   -1    0    0    0  501 -0.00000000000E+00 -0.00000000000E+00 -0.15356636377E+04  0.15356636377E+04  0.00000000000E+00 0. -1.
    2000013    1    1    2    0    0  0.58543958879E+03  0.66312410995E+03 -0.96494620302E+03  0.16174344723E+04  0.95000000000E+03 0.  0.
   -2000013    1    1    2    0    0 -0.58543958879E+03 -0.66312410995E+03  0.14785912397E+04  0.19675378399E+04  0.95000000000E+03 0.  0.
<mgrwt>
<rscale>  0 0.35479847E+04</rscale>
<asrwt>0</asrwt>
<pdfrwt beam="1">  1        2 0.31527826E+00 0.35479847E+04</pdfrwt>
<pdfrwt beam="2">  1       -2 0.23625594E+00 0.35479847E+04</pdfrwt>
<totfact> 0.40118547E-01</totfact>
</mgrwt>
</event>
<event>
 4    1  0.1295381E-008  0.1993242E+04  0.7816531E-02  0.8609787E-01
          2   -1    0    0  501    0  0.00000000000E+00  0.00000000000E+00  0.66597240186E+03  0.66597240186E+03  0.00000000000E+00 0.  1.
         -2   -1    0    0    0  501 -0.00000000000E+00 -0.00000000000E+00 -0.14914327600E+04  0.14914327600E+04  0.00000000000E+00 0. -1.
    2000013    1    1    2    0    0 -0.12084461308E+03 -0.26636654855E+03 -0.49076900610E+03  0.11085615797E+04  0.95000000000E+03 0.  0.
   -2000013    1    1    2    0    0  0.12084461308E+03  0.26636654855E+03 -0.33469135207E+03  0.10488435822E+04  0.95000000000E+03 0.  0.
<mgrwt>
<rscale>  0 0.19932416E+04</rscale>
<asrwt>0</asrwt>
<pdfrwt beam="1">  1        2 0.10245729E+00 0.19932416E+04</pdfrwt>
<pdfrwt beam="2">  1       -2 0.22945119E+00 0.19932416E+04</pdfrwt>
<totfact> 0.34930899E+00</totfact>
</mgrwt>
</event>
<event>
 4    1  0.1295381E-008  0.2427321E+04  0.7816531E-02  0.8429345E-01
          2   -1    0    0  501    0  0.00000000000E+00  0.00000000000E+00  0.14586862678E+04  0.14586862678E+04  0.00000000000E+00 0.  1.
         -2   -1    0    0    0  501 -0.00000000000E+00 -0.00000000000E+00 -0.10097932325E+04  0.10097932325E+04  0.00000000000E+00 0. -1.
    2000013    1    1    2    0    0 -0.22563599778E+03 -0.67600076128E+03  0.47885416235E+03  0.12805037843E+04  0.95000000000E+03 0.  0.
   -2000013    1    1    2    0    0  0.22563599778E+03  0.67600076128E+03 -0.29961127041E+02  0.11879757160E+04  0.95000000000E+03 0.  0.
<mgrwt>
<rscale>  0 0.24273208E+04</rscale>
<asrwt>0</asrwt>
<pdfrwt beam="1">  1        2 0.22441327E+00 0.24273208E+04</pdfrwt>
<pdfrwt beam="2">  1       -2 0.15535281E+00 0.24273208E+04</pdfrwt>
<totfact> 0.32801615E+00</totfact>
</mgrwt>
</event>
<event>
 4    1  0.1295381E-008  0.2168263E+04  0.7816531E-02  0.8531755E-01
         -2   -1    0    0    0  501 -0.00000000000E+00  0.00000000000E+00  0.16598685805E+04  0.16598685805E+04  0.00000000000E+00 0. -1.
          2   -1    0    0  501    0  0.00000000000E+00 -0.00000000000E+00 -0.70809299831E+03  0.70809299831E+03  0.00000000000E+00 0.  1.
    2000013    1    1    2    0    0 -0.50041199794E+03  0.10236652608E+03  0.35650242710E+03  0.11359951822E+04  0.95000000000E+03 0.  0.
   -2000013    1    1    2    0    0  0.50041199794E+03 -0.10236652608E+03  0.59527315512E+03  0.12319663967E+04  0.95000000000E+03 0.  0.
<mgrwt>
<rscale>  0 0.21682632E+04</rscale>
<asrwt>0</asrwt>
<pdfrwt beam="2">  1        2 0.10893738E+00 0.21682632E+04</pdfrwt>
<pdfrwt beam="1">  1       -2 0.25536440E+00 0.21682632E+04</pdfrwt>
<totfact> 0.22038050E+00</totfact>
</mgrwt>
</event>
<event>
 4    1  0.1295381E-008  0.2662724E+04  0.7816531E-02  0.8347202E-01
          1   -1    0    0  501    0  0.00000000000E+00  0.00000000000E+00  0.21356715749E+04  0.21356715749E+04  0.00000000000E+00 0. -1.
         -1   -1    0    0    0  501 -0.00000000000E+00 -0.00000000000E+00 -0.82996105603E+03  0.82996105603E+03  0.00000000000E+00 0.  1.
    2000013    1    1    2    0    0 -0.81312497877E+03  0.45432423361E+03  0.70788775570E+03  0.15070460560E+04  0.95000000000E+03 0.  0.
   -2000013    1    1    2    0    0  0.81312497877E+03 -0.45432423361E+03  0.59782276320E+03  0.14585865749E+04  0.95000000000E+03 0.  0.
<mgrwt>
<rscale>  0 0.26627236E+04</rscale>
<asrwt>0</asrwt>
<pdfrwt beam="1">  1        1 0.32856486E+00 0.26627236E+04</pdfrwt>
<pdfrwt beam="2">  1       -1 0.12768632E+00 0.26627236E+04</pdfrwt>
<totfact> 0.11199112E+00</totfact>
</mgrwt>
</event>
<event>
 4    1  0.1295381E-008  0.3369576E+04  0.7816531E-02  0.8145414E-01
          2   -1    0    0  501    0  0.00000000000E+00  0.00000000000E+00  0.27197791556E+04  0.27197791556E+04  0.00000000000E+00 0.  1.
         -2   -1    0    0    0  501 -0.00000000000E+00 -0.00000000000E+00 -0.10436545557E+04  0.10436545557E+04  0.00000000000E+00 0. -1.
    2000013    1    1    2    0    0  0.13807306867E+04 -0.15956659796E+03  0.76627526423E+03  0.18497449848E+04  0.95000000000E+03 0.  0.
   -2000013    1    1    2    0    0 -0.13807306867E+04  0.15956659796E+03  0.90984933573E+03  0.19136887265E+04  0.95000000000E+03 0.  0.
<mgrwt>
<rscale>  0 0.33695756E+04</rscale>
<asrwt>0</asrwt>
<pdfrwt beam="1">  1        2 0.41842756E+00 0.33695756E+04</pdfrwt>
<pdfrwt beam="2">  1       -2 0.16056224E+00 0.33695756E+04</pdfrwt>
<totfact> 0.53527152E-01</totfact>
</mgrwt>
</event>
<event>
 4    1  0.1295381E-008  0.2605950E+04  0.7816531E-02  0.8366183E-01
          2   -1    0    0  501    0  0.00000000000E+00  0.00000000000E+00  0.77918184113E+03  0.77918184113E+03  0.00000000000E+00 0.  1.
         -2   -1    0    0    0  501 -0.00000000000E+00 -0.00000000000E+00 -0.21788796688E+04  0.21788796688E+04  0.00000000000E+00 0. -1.
    2000013    1    1    2    0    0 -0.33830148264E+03  0.36820110678E+03  0.13831404270E+03  0.10824281605E+04  0.95000000000E+03 0.  0.
   -2000013    1    1    2    0    0  0.33830148264E+03 -0.36820110678E+03 -0.15380118704E+04  0.18756333495E+04  0.95000000000E+03 0.  0.
<mgrwt>
<rscale>  0 0.26059497E+04</rscale>
<asrwt>0</asrwt>
<pdfrwt beam="1">  1        2 0.11987413E+00 0.26059497E+04</pdfrwt>
<pdfrwt beam="2">  1       -2 0.33521225E+00 0.26059497E+04</pdfrwt>
<totfact> 0.60768500E-01</totfact>
</mgrwt>
</event>
<event>
 4    1  0.1295381E-008  0.2922369E+04  0.7816531E-02  0.8266253E-01
         -2   -1    0    0    0  501 -0.00000000000E+00  0.00000000000E+00  0.30662917085E+04  0.30662917085E+04  0.00000000000E+00 0. -1.
          2   -1    0    0  501    0  0.00000000000E+00 -0.00000000000E+00 -0.69630055981E+03  0.69630055981E+03  0.00000000000E+00 0.  1.
    2000013    1    1    2    0    0 -0.87159432631E+03 -0.16520666967E+03  0.32554654536E+03  0.13399442028E+04  0.95000000000E+03 0.  0.
   -2000013    1    1    2    0    0  0.87159432631E+03  0.16520666967E+03  0.20444446034E+04  0.24226480656E+04  0.95000000000E+03 0.  0.
<mgrwt>
<rscale>  0 0.29223693E+04</rscale>
<asrwt>0</asrwt>
<pdfrwt beam="2">  1        2 0.10712316E+00 0.29223693E+04</pdfrwt>
<pdfrwt beam="1">  1       -2 0.47173718E+00 0.29223693E+04</pdfrwt>
<totfact> 0.88580507E-02</totfact>
</mgrwt>
</event>
<event>
 4    1  0.1295381E-008  0.2568988E+04  0.7816531E-02  0.8378812E-01
         -1   -1    0    0    0  501 -0.00000000000E+00  0.00000000000E+00  0.90301702303E+03  0.90301702303E+03  0.00000000000E+00 0. -1.
          1   -1    0    0  501    0  0.00000000000E+00 -0.00000000000E+00 -0.18271254005E+04  0.18271254005E+04  0.00000000000E+00 0.  1.
    2000013    1    1    2    0    0 -0.23520075399E+03 -0.81816657781E+03 -0.62220382439E+03  0.14192792336E+04  0.95000000000E+03 0.  0.
   -2000013    1    1    2    0    0  0.23520075399E+03  0.81816657781E+03 -0.30190455311E+03  0.13108631900E+04  0.95000000000E+03 0.  0.
<mgrwt>
<rscale>  0 0.25689884E+04</rscale>
<asrwt>0</asrwt>
<pdfrwt beam="2">  1        1 0.28109622E+00 0.25689884E+04</pdfrwt>
<pdfrwt beam="1">  1       -1 0.13892569E+00 0.25689884E+04</pdfrwt>
<totfact> 0.14746801E+00</totfact>
</mgrwt>
</event>
<event>
 4    1  0.1295381E-008  0.2312877E+04  0.7816531E-02  0.8472861E-01
          2   -1    0    0  501    0  0.00000000000E+00  0.00000000000E+00  0.99033309443E+03  0.99033309443E+03  0.00000000000E+00 0.  1.
         -2   -1    0    0    0  501 -0.00000000000E+00 -0.00000000000E+00 -0.13504047660E+04  0.13504047660E+04  0.00000000000E+00 0. -1.
    2000013    1    1    2    0    0  0.30318463243E+03 -0.37859687859E+03  0.27210518632E+03  0.11008168559E+04  0.95000000000E+03 0.  0.
   -2000013    1    1    2    0    0 -0.30318463243E+03  0.37859687859E+03 -0.63217685790E+03  0.12399210045E+04  0.95000000000E+03 0.  0.
<mgrwt>
<rscale>  0 0.23128775E+04</rscale>
<asrwt>0</asrwt>
<pdfrwt beam="1">  1        2 0.15235894E+00 0.23128775E+04</pdfrwt>
<pdfrwt beam="2">  1       -2 0.20775458E+00 0.23128775E+04</pdfrwt>
<totfact> 0.27391953E+00</totfact>
</mgrwt>
</event>
<event>
 4    1  0.1295381E-008  0.2502532E+04  0.7816531E-02  0.8402084E-01
          2   -1    0    0  501    0  0.00000000000E+00  0.00000000000E+00  0.24520300186E+04  0.24520300186E+04  0.00000000000E+00 0. -1.
         -2   -1    0    0    0  501 -0.00000000000E+00 -0.00000000000E+00 -0.63851842434E+03  0.63851842434E+03  0.00000000000E+00 0.  1.
    2000013    1    1    2    0    0 -0.21363970070E+03 -0.76337533978E+03  0.67643326388E+03  0.14101226158E+04  0.95000000000E+03 0.  0.
   -2000013    1    1    2    0    0  0.21363970070E+03  0.76337533978E+03  0.11370783304E+04  0.16804258271E+04  0.95000000000E+03 0.  0.
<mgrwt>
<rscale>  0 0.25025318E+04</rscale>
<asrwt>0</asrwt>
<pdfrwt beam="1">  1        2 0.37723538E+00 0.25025318E+04</pdfrwt>
<pdfrwt beam="2">  1       -2 0.98233605E-01 0.25025318E+04</pdfrwt>
<totfact> 0.28502740E+00</totfact>
</mgrwt>
</event>
<event>
 4    1  0.1295381E-008  0.3164905E+04  0.7816531E-02  0.8198148E-01
          2   -1    0    0  501    0  0.00000000000E+00  0.00000000000E+00  0.23947599233E+04  0.23947599233E+04  0.00000000000E+00 0.  1.
         -2   -1    0    0    0  501 -0.00000000000E+00 -0.00000000000E+00 -0.10456813634E+04  0.10456813634E+04  0.00000000000E+00 0. -1.
    2000013    1    1    2    0    0  0.85031514550E+03 -0.66140485055E+03 -0.47487516465E+02  0.14370968260E+04  0.95000000000E+03 0.  0.
   -2000013    1    1    2    0    0 -0.85031514550E+03  0.66140485055E+03  0.13965660763E+04  0.20033444608E+04  0.95000000000E+03 0.  0.
<mgrwt>
<rscale>  0 0.31649049E+04</rscale>
<asrwt>0</asrwt>
<pdfrwt beam="1">  1        2 0.36842460E+00 0.31649049E+04</pdfrwt>
<pdfrwt beam="2">  1       -2 0.16087406E+00 0.31649049E+04</pdfrwt>
<totfact> 0.83888241E-01</totfact>
</mgrwt>
</event>
<event>
 4    1  0.1295381E-008  0.2768959E+04  0.7816531E-02  0.8312971E-01
         -2   -1    0    0    0  501 -0.00000000000E+00  0.00000000000E+00  0.10715712345E+04  0.10715712345E+04  0.00000000000E+00 0. -1.
          2   -1    0    0  501    0  0.00000000000E+00 -0.00000000000E+00 -0.17887600026E+04  0.17887600026E+04  0.00000000000E+00 0.  1.
    2000013    1    1    2    0    0 -0.38208492478E+01 -0.67109049436E+03 -0.11343115549E+04  0.16246660439E+04  0.95000000000E+03 0.  0.
   -2000013    1    1    2    0    0  0.38208492478E+01  0.67109049436E+03  0.41712278684E+03  0.12356651932E+04  0.95000000000E+03 0.  0.
<mgrwt>
<rscale>  0 0.27689592E+04</rscale>
<asrwt>0</asrwt>
<pdfrwt beam="2">  1        2 0.27519384E+00 0.27689592E+04</pdfrwt>
<pdfrwt beam="1">  1       -2 0.16485711E+00 0.27689592E+04</pdfrwt>
<totfact> 0.17724587E+00</totfact>
</mgrwt>
</event>
<event>
 4    1  0.1295381E-008  0.3899127E+04  0.7816531E-02  0.8025211E-01
         -2   -1    0    0    0  501 -0.00000000000E+00  0.00000000000E+00  0.13402931070E+04  0.13402931070E+04  0.00000000000E+00 0. -1.
          2   -1    0    0  501    0  0.00000000000E+00 -0.00000000000E+00 -0.28357963603E+04  0.28357963603E+04  0.00000000000E+00 0.  1.
    2000013    1    1    2    0    0 -0.53683139922E+03 -0.15196291356E+04 -0.16030490772E+03  0.18776736470E+04  0.95000000000E+03 0.  0.
   -2000013    1    1    2    0    0  0.53683139922E+03  0.15196291356E+04 -0.13351983456E+04  0.22984158203E+04  0.95000000000E+03 0.  0.
<mgrwt>
<rscale>  0 0.38991272E+04</rscale>
<asrwt>0</asrwt>
<pdfrwt beam="2">  1        2 0.43627636E+00 0.38991272E+04</pdfrwt>
<pdfrwt beam="1">  1       -2 0.20619894E+00 0.38991272E+04</pdfrwt>
<totfact> 0.21188880E-01</totfact>
</mgrwt>
</event>
<event>
 4    1  0.1295381E-008  0.2380056E+04  0.7816531E-02  0.8447008E-01
          2   -1    0    0  501    0  0.00000000000E+00  0.00000000000E+00  0.15357071346E+04  0.15357071346E+04  0.00000000000E+00 0.  1.
         -2   -1    0    0    0  501 -0.00000000000E+00 -0.00000000000E+00 -0.92215923000E+03  0.92215923000E+03  0.00000000000E+00 0. -1.
    2000013    1    1    2    0    0 -0.58642214946E+03  0.40584281742E+03  0.38028527389E+03  0.12472835361E+04  0.95000000000E+03 0.  0.
   -2000013    1    1    2    0    0  0.58642214946E+03 -0.40584281742E+03  0.23326263072E+03  0.12105828285E+04  0.95000000000E+03 0.  0.
<mgrwt>
<rscale>  0 0.23800559E+04</rscale>
<asrwt>0</asrwt>
<pdfrwt beam="1">  1        2 0.23626263E+00 0.23800559E+04</pdfrwt>
<pdfrwt beam="2">  1       -2 0.14187065E+00 0.23800559E+04</pdfrwt>
<totfact> 0.37876465E+00</totfact>
</mgrwt>
</event>
<event>
 4    1  0.1295381E-008  0.2496740E+04  0.7816531E-02  0.8404148E-01
         -2   -1    0    0    0  501 -0.00000000000E+00  0.00000000000E+00  0.68739624217E+03  0.68739624217E+03  0.00000000000E+00 0. -1.
          2   -1    0    0  501    0  0.00000000000E+00 -0.00000000000E+00 -0.22671465463E+04  0.22671465463E+04  0.00000000000E+00 0.  1.
    2000013    1    1    2    0    0  0.50637921846E+03 -0.60814749174E+03 -0.58605969007E+03  0.13682942830E+04  0.95000000000E+03 0.  0.
   -2000013    1    1    2    0    0 -0.50637921846E+03  0.60814749174E+03 -0.99369061404E+03  0.15862485054E+04  0.95000000000E+03 0.  0.
<mgrwt>
<rscale>  0 0.24967403E+04</rscale>
<asrwt>0</asrwt>
<pdfrwt beam="2">  1        2 0.34879178E+00 0.24967403E+04</pdfrwt>
<pdfrwt beam="1">  1       -2 0.10575327E+00 0.24967403E+04</pdfrwt>
<totfact> 0.30499966E+00</totfact>
</mgrwt>
</event>
<event>
 4    1  0.1295381E-008  0.2225911E+04  0.7816531E-02  0.8507720E-01
         -2   -1    0    0    0  501 -0.00000000000E+00  0.00000000000E+00  0.71299387907E+03  0.71299387907E+03  0.00000000000E+00 0. -1.
          2   -1    0    0  501    0  0.00000000000E+00 -0.00000000000E+00 -0.17372802788E+04  0.17372802788E+04  0.00000000000E+00 0.  1.
    2000013    1    1    2    0    0  0.98078473357E+02  0.56015768685E+03 -0.38772800586E+03  0.11731278820E+04  0.95000000000E+03 0.  0.
   -2000013    1    1    2    0    0 -0.98078473357E+02 -0.56015768685E+03 -0.63655839387E+03  0.12771462758E+04  0.95000000000E+03 0.  0.
<mgrwt>
<rscale>  0 0.22259112E+04</rscale>
<asrwt>0</asrwt>
<pdfrwt beam="2">  1        2 0.26727389E+00 0.22259112E+04</pdfrwt>
<pdfrwt beam="1">  1       -2 0.10969137E+00 0.22259112E+04</pdfrwt>
<totfact> 0.56415341E+00</totfact>
</mgrwt>
</event>
<event>
 4    1  0.1295381E-008  0.3316962E+04  0.7816531E-02  0.8158593E-01
          2   -1    0    0  501    0  0.00000000000E+00  0.00000000000E+00  0.27885914610E+04  0.27885914610E+04  0.00000000000E+00 0.  1.
         -2   -1    0    0    0  501 -0.00000000000E+00 -0.00000000000E+00 -0.98636146169E+03  0.98636146169E+03  0.00000000000E+00 0. -1.
    2000013    1    1    2    0    0 -0.13526444921E+04  0.64712861235E+02  0.76538179883E+03  0.18226750052E+04  0.95000000000E+03 0.  0.
   -2000013    1    1    2    0    0  0.13526444921E+04 -0.64712861235E+02  0.10368482005E+04  0.19522779176E+04  0.95000000000E+03 0.  0.
<mgrwt>
<rscale>  0 0.33169620E+04</rscale>
<asrwt>0</asrwt>
<pdfrwt beam="1">  1        2 0.42901407E+00 0.33169620E+04</pdfrwt>
<pdfrwt beam="2">  1       -2 0.15174792E+00 0.33169620E+04</pdfrwt>
<totfact> 0.56905701E-01</totfact>
</mgrwt>
</event>
<event>
 4    1  0.1295381E-008  0.3771198E+04  0.7816531E-02  0.8052364E-01
          2   -1    0    0  501    0  0.00000000000E+00  0.00000000000E+00  0.24249831912E+04  0.24249831912E+04  0.00000000000E+00 0.  1.
         -2   -1    0    0    0  501 -0.00000000000E+00 -0.00000000000E+00 -0.14661892636E+04  0.14661892636E+04  0.00000000000E+00 0. -1.
    2000013    1    1    2    0    0 -0.99231395728E+03  0.11839697463E+04 -0.53275532854E+02  0.18143344875E+04  0.95000000000E+03 0.  0.
   -2000013    1    1    2    0    0  0.99231395728E+03 -0.11839697463E+04  0.10120694605E+04  0.20768379674E+04  0.95000000000E+03 0.  0.
<mgrwt>
<rscale>  0 0.37711984E+04</rscale>
<asrwt>0</asrwt>
<pdfrwt beam="1">  1        2 0.37307434E+00 0.37711984E+04</pdfrwt>
<pdfrwt beam="2">  1       -2 0.22556758E+00 0.37711984E+04</pdfrwt>
<totfact> 0.28177662E-01</totfact>
</mgrwt>
</event>
<event>
 4    1  0.1295381E-008  0.2618213E+04  0.7816531E-02  0.8362041E-01
          1   -1    0    0  501    0  0.00000000000E+00  0.00000000000E+00  0.15112023661E+04  0.15112023661E+04  0.00000000000E+00 0.  1.
         -1   -1    0    0    0  501 -0.00000000000E+00 -0.00000000000E+00 -0.11340375618E+04  0.11340375618E+04  0.00000000000E+00 0. -1.
    2000013    1    1    2    0    0 -0.39318013853E+03 -0.74089710595E+03  0.52021006614E+03  0.13699042506E+04  0.95000000000E+03 0.  0.
   -2000013    1    1    2    0    0  0.39318013853E+03  0.74089710595E+03 -0.14304526188E+03  0.12753356773E+04  0.95000000000E+03 0.  0.
<mgrwt>
<rscale>  0 0.26182133E+04</rscale>
<asrwt>0</asrwt>
<pdfrwt beam="1">  1        1 0.23249267E+00 0.26182133E+04</pdfrwt>
<pdfrwt beam="2">  1       -1 0.17446732E+00 0.26182133E+04</pdfrwt>
<totfact> 0.12896037E+00</totfact>
</mgrwt>
</event>
<event>
 4    1  0.1295381E-008  0.2971006E+04  0.7816531E-02  0.8252059E-01
          2   -1    0    0  501    0  0.00000000000E+00  0.00000000000E+00  0.28320155903E+04  0.28320155903E+04  0.00000000000E+00 0.  1.
         -2   -1    0    0    0  501 -0.00000000000E+00 -0.00000000000E+00 -0.77920456630E+03  0.77920456630E+03  0.00000000000E+00 0. -1.
    2000013    1    1    2    0    0  0.51450393448E+03 -0.10036951413E+04  0.12441821757E+04  0.19294060023E+04  0.95000000000E+03 0.  0.
   -2000013    1    1    2    0    0 -0.51450393448E+03  0.10036951413E+04  0.80862884830E+03  0.16818141543E+04  0.95000000000E+03 0.  0.
<mgrwt>
<rscale>  0 0.29710062E+04</rscale>
<asrwt>0</asrwt>
<pdfrwt beam="1">  1        2 0.43569470E+00 0.29710062E+04</pdfrwt>
<pdfrwt beam="2">  1       -2 0.11987763E+00 0.29710062E+04</pdfrwt>
<totfact> 0.10095768E+00</totfact>
</mgrwt>
</event>
<event>
 4    1  0.1295381E-008  0.3159922E+04  0.7816531E-02  0.8199483E-01
         -2   -1    0    0    0  501 -0.00000000000E+00  0.00000000000E+00  0.97627382097E+03  0.97627382097E+03  0.00000000000E+00 0. -1.
          2   -1    0    0  501    0  0.00000000000E+00 -0.00000000000E+00 -0.25569430978E+04  0.25569430978E+04  0.00000000000E+00 0.  1.
    2000013    1    1    2    0    0 -0.48368146788E+03 -0.11655744066E+04 -0.75056380343E+03  0.17488160231E+04  0.95000000000E+03 0.  0.
   -2000013    1    1    2    0    0  0.48368146788E+03  0.11655744066E+04 -0.83010547344E+03  0.17844008957E+04  0.95000000000E+03 0.  0.
<mgrwt>
<rscale>  0 0.31599219E+04</rscale>
<asrwt>0</asrwt>
<pdfrwt beam="2">  1        2 0.39337586E+00 0.31599219E+04</pdfrwt>
<pdfrwt beam="1">  1       -2 0.15019597E+00 0.31599219E+04</pdfrwt>
<totfact> 0.81338908E-01</totfact>
</mgrwt>
</event>
<event>
 4    1  0.1295381E-008  0.2665628E+04  0.7816531E-02  0.8346244E-01
         -2   -1    0    0    0  501 -0.00000000000E+00  0.00000000000E+00  0.72549782180E+03  0.72549782180E+03  0.00000000000E+00 0. -1.
          2   -1    0    0  501    0  0.00000000000E+00 -0.00000000000E+00 -0.24485158551E+04  0.24485158551E+04  0.00000000000E+00 0.  1.
    2000013    1    1    2    0    0 -0.21093962337E+03 -0.90813315646E+03 -0.94306731353E+03  0.16312808809E+04  0.95000000000E+03 0.  0.
   -2000013    1    1    2    0    0  0.21093962337E+03  0.90813315646E+03 -0.77995071977E+03  0.15427327960E+04  0.95000000000E+03 0.  0.
<mgrwt>
<rscale>  0 0.26656278E+04</rscale>
<asrwt>0</asrwt>
<pdfrwt beam="2">  1        2 0.37669475E+00 0.26656278E+04</pdfrwt>
<pdfrwt beam="1">  1       -2 0.11161505E+00 0.26656278E+04</pdfrwt>
<totfact> 0.20796295E+00</totfact>
</mgrwt>
</event>
<event>
 4    1  0.1295381E-008  0.2444081E+04  0.7816531E-02  0.8423182E-01
          2   -1    0    0  501    0  0.00000000000E+00  0.00000000000E+00  0.29388934476E+04  0.29388934476E+04  0.00000000000E+00 0.  1.
         -2   -1    0    0    0  501 -0.00000000000E+00 -0.00000000000E+00 -0.50814459851E+03  0.50814459851E+03  0.00000000000E+00 0. -1.
    2000013    1    1    2    0    0  0.15712966918E+03 -0.61889323602E+03  0.18189767060E+04  0.21491614243E+04  0.95000000000E+03 0.  0.
   -2000013    1    1    2    0    0 -0.15712966918E+03  0.61889323602E+03  0.61177214308E+03  0.12978766219E+04  0.95000000000E+03 0.  0.
<mgrwt>
<rscale>  0 0.24440809E+04</rscale>
<asrwt>0</asrwt>
<pdfrwt beam="1">  1        2 0.45213744E+00 0.24440809E+04</pdfrwt>
<pdfrwt beam="2">  1       -2 0.78176094E-01 0.24440809E+04</pdfrwt>
<totfact> 0.24799661E+00</totfact>
</mgrwt>
</event>
<event>
 4    1  0.1295381E-008  0.2413247E+04  0.7816531E-02  0.8434561E-01
         -2   -1    0    0    0  501 -0.00000000000E+00  0.00000000000E+00  0.11347140414E+04  0.11347140414E+04  0.00000000000E+00 0. -1.
          2   -1    0    0  501    0  0.00000000000E+00 -0.00000000000E+00 -0.12830897504E+04  0.12830897504E+04  0.00000000000E+00 0.  1.
    2000013    1    1    2    0    0  0.12347387565E+03  0.51660849429E+03 -0.59604554075E+03  0.12409272424E+04  0.95000000000E+03 0.  0.
   -2000013    1    1    2    0    0 -0.12347387565E+03 -0.51660849429E+03  0.44766983174E+03  0.11768765494E+04  0.95000000000E+03 0.  0.
<mgrwt>
<rscale>  0 0.24132467E+04</rscale>
<asrwt>0</asrwt>
<pdfrwt beam="2">  1        2 0.19739842E+00 0.24132467E+04</pdfrwt>
<pdfrwt beam="1">  1       -2 0.17457139E+00 0.24132467E+04</pdfrwt>
<totfact> 0.30058058E+00</totfact>
</mgrwt>
</event>
<event>
 4    1  0.1295381E-008  0.2361439E+04  0.7816531E-02  0.8454083E-01
          2   -1    0    0  501    0  0.00000000000E+00  0.00000000000E+00  0.25563600680E+04  0.25563600680E+04  0.00000000000E+00 0.  1.
         -2   -1    0    0    0  501 -0.00000000000E+00 -0.00000000000E+00 -0.54534506103E+03  0.54534506103E+03  0.00000000000E+00 0. -1.
    2000013    1    1    2    0    0  0.44825398491E+03 -0.53309215714E+03  0.11112362353E+04  0.16194026224E+04  0.95000000000E+03 0.  0.
   -2000013    1    1    2    0    0 -0.44825398491E+03  0.53309215714E+03  0.89977877165E+03  0.14823025065E+04  0.95000000000E+03 0.  0.
<mgrwt>
<rscale>  0 0.23614388E+04</rscale>
<asrwt>0</asrwt>
<pdfrwt beam="1">  1        2 0.39328616E+00 0.23614388E+04</pdfrwt>
<pdfrwt beam="2">  1       -2 0.83899242E-01 0.23614388E+04</pdfrwt>
<totfact> 0.36138421E+00</totfact>
</mgrwt>
</event>
<event>
 4    1  0.1295381E-008  0.2100514E+04  0.7816531E-02  0.8561017E-01
          2   -1    0    0  501    0  0.00000000000E+00  0.00000000000E+00  0.20944607026E+04  0.20944607026E+04  0.00000000000E+00 0.  1.
         -2   -1    0    0    0  501 -0.00000000000E+00 -0.00000000000E+00 -0.52664611681E+03  0.52664611681E+03  0.00000000000E+00 0. -1.
    2000013    1    1    2    0    0  0.41316385968E+03  0.14178953554E+03  0.66081332820E+03  0.12369247762E+04  0.95000000000E+03 0.  0.
   -2000013    1    1    2    0    0 -0.41316385968E+03 -0.14178953554E+03  0.90700125756E+03  0.13841820431E+04  0.95000000000E+03 0.  0.
<mgrwt>
<rscale>  0 0.21005138E+04</rscale>
<asrwt>0</asrwt>
<pdfrwt beam="1">  1        2 0.32222472E+00 0.21005138E+04</pdfrwt>
<pdfrwt beam="2">  1       -2 0.81022481E-01 0.21005138E+04</pdfrwt>
<totfact> 0.73248289E+00</totfact>
</mgrwt>
</event>
<event>
 4    1  0.1295381E-008  0.3475820E+04  0.7816531E-02  0.8119544E-01
         -2   -1    0    0    0  501 -0.00000000000E+00  0.00000000000E+00  0.24158711016E+04  0.24158711016E+04  0.00000000000E+00 0. -1.
          2   -1    0    0  501    0  0.00000000000E+00 -0.00000000000E+00 -0.12502038272E+04  0.12502038272E+04  0.00000000000E+00 0.  1.
    2000013    1    1    2    0    0  0.13834673810E+04  0.45149672945E+03  0.58291743192E+03  0.18330641078E+04  0.95000000000E+03 0.  0.
   -2000013    1    1    2    0    0 -0.13834673810E+04 -0.45149672945E+03  0.58274984253E+03  0.18330108210E+04  0.95000000000E+03 0.  0.
<mgrwt>
<rscale>  0 0.34758201E+04</rscale>
<asrwt>0</asrwt>
<pdfrwt beam="2">  1        2 0.19233905E+00 0.34758201E+04</pdfrwt>
<pdfrwt beam="1">  1       -2 0.37167248E+00 0.34758201E+04</pdfrwt>
<totfact> 0.16480406E-01</totfact>
</mgrwt>
</event>
<event>
 4    1  0.1295381E-008  0.2147963E+04  0.7816531E-02  0.8540405E-01
          2   -1    0    0  501    0  0.00000000000E+00  0.00000000000E+00  0.15078532686E+04  0.15078532686E+04  0.00000000000E+00 0.  1.
         -2   -1    0    0    0  501 -0.00000000000E+00 -0.00000000000E+00 -0.76495225100E+03  0.76495225100E+03  0.00000000000E+00 0. -1.
    2000013    1    1    2    0    0 -0.42034675005E+01 -0.47472957570E+03  0.54058426203E+03  0.11916866969E+04  0.95000000000E+03 0.  0.
   -2000013    1    1    2    0    0  0.42034675005E+01  0.47472957570E+03  0.20231675553E+03  0.10811188227E+04  0.95000000000E+03 0.  0.
<mgrwt>
<rscale>  0 0.21479625E+04</rscale>
<asrwt>0</asrwt>
<pdfrwt beam="1">  1        2 0.23197743E+00 0.21479625E+04</pdfrwt>
<pdfrwt beam="2">  1       -2 0.11768496E+00 0.21479625E+04</pdfrwt>
<totfact> 0.64281253E+00</totfact>
</mgrwt>
</event>
<event>
 4    1  0.1295381E-008  0.2300693E+04  0.7816531E-02  0.8477648E-01
         -1   -1    0    0    0  501 -0.00000000000E+00  0.00000000000E+00  0.69384772017E+03  0.69384772017E+03  0.00000000000E+00 0. -1.
          1   -1    0    0  501    0  0.00000000000E+00 -0.00000000000E+00 -0.19071857792E+04  0.19071857792E+04  0.00000000000E+00 0.  1.
    2000013    1    1    2    0    0  0.20776141030E+03 -0.38432295352E+03 -0.11487733777E+04  0.15533992434E+04  0.95000000000E+03 0.  0.
   -2000013    1    1    2    0    0 -0.20776141030E+03  0.38432295352E+03 -0.64564681385E+02  0.10476342560E+04  0.95000000000E+03 0.  0.
<mgrwt>
<rscale>  0 0.23006925E+04</rscale>
<asrwt>0</asrwt>
<pdfrwt beam="2">  1        1 0.29341319E+00 0.23006925E+04</pdfrwt>
<pdfrwt beam="1">  1       -1 0.10674580E+00 0.23006925E+04</pdfrwt>
<totfact> 0.25503062E+00</totfact>
</mgrwt>
</event>
<event>
 4    1  0.1295381E-008  0.4737040E+04  0.7816531E-02  0.7870403E-01
         -2   -1    0    0    0  501 -0.00000000000E+00  0.00000000000E+00  0.16637200876E+04  0.16637200876E+04  0.00000000000E+00 0. -1.
          2   -1    0    0  501    0  0.00000000000E+00 -0.00000000000E+00 -0.33718929239E+04  0.33718929239E+04  0.00000000000E+00 0.  1.
    2000013    1    1    2    0    0 -0.15734722751E+04 -0.12989888251E+04 -0.69891158843E+02  0.22517930061E+04  0.95000000000E+03 0.  0.
   -2000013    1    1    2    0    0  0.15734722751E+04  0.12989888251E+04 -0.16382816774E+04  0.27838200054E+04  0.95000000000E+03 0.  0.
<mgrwt>
<rscale>  0 0.47370396E+04</rscale>
<asrwt>0</asrwt>
<pdfrwt beam="2">  1        2 0.51875276E+00 0.47370396E+04</pdfrwt>
<pdfrwt beam="1">  1       -2 0.25595693E+00 0.47370396E+04</pdfrwt>
<totfact> 0.43685033E-02</totfact>
</mgrwt>
</event>
<event>
 4    1  0.1295381E-008  0.5280429E+04  0.7816531E-02  0.7786647E-01
          2   -1    0    0  501    0  0.00000000000E+00  0.00000000000E+00  0.18766390839E+04  0.18766390839E+04  0.00000000000E+00 0. -1.
         -2   -1    0    0    0  501 -0.00000000000E+00 -0.00000000000E+00 -0.37144769580E+04  0.37144769580E+04  0.00000000000E+00 0.  1.
    2000013    1    1    2    0    0  0.59043261046E+03 -0.10619828624E+04  0.13500129512E+04  0.20497446758E+04  0.95000000000E+03 0.  0.
   -2000013    1    1    2    0    0 -0.59043261046E+03  0.10619828624E+04 -0.31878508254E+04  0.35413713661E+04  0.95000000000E+03 0.  0.
<mgrwt>
<rscale>  0 0.52804290E+04</rscale>
<asrwt>0</asrwt>
<pdfrwt beam="1">  1        2 0.28871371E+00 0.52804290E+04</pdfrwt>
<pdfrwt beam="2">  1       -2 0.57145799E+00 0.52804290E+04</pdfrwt>
<totfact> 0.37893899E-03</totfact>
</mgrwt>
</event>
<event>
 4    1  0.1295381E-008  0.2509515E+04  0.7816531E-02  0.8399603E-01
         -2   -1    0    0    0  501 -0.00000000000E+00  0.00000000000E+00  0.58594336251E+03  0.58594336251E+03  0.00000000000E+00 0. -1.
          2   -1    0    0  501    0  0.00000000000E+00 -0.00000000000E+00 -0.26869779343E+04  0.26869779343E+04  0.00000000000E+00 0.  1.
    2000013    1    1    2    0    0  0.59389517365E+03 -0.18812845064E+03 -0.17453206483E+04  0.20824860039E+04  0.95000000000E+03 0.  0.
   -2000013    1    1    2    0    0 -0.59389517365E+03  0.18812845064E+03 -0.35571392354E+03  0.11904352929E+04  0.95000000000E+03 0.  0.
<mgrwt>
<rscale>  0 0.25095154E+04</rscale>
<asrwt>0</asrwt>
<pdfrwt beam="2">  1        2 0.41338122E+00 0.25095154E+04</pdfrwt>
<pdfrwt beam="1">  1       -2 0.90145132E-01 0.25095154E+04</pdfrwt>
<totfact> 0.25362547E+00</totfact>
</mgrwt>
</event>
<event>
 4    1  0.1295381E-008  0.2381156E+04  0.7816531E-02  0.8446592E-01
         -2   -1    0    0    0  501 -0.00000000000E+00  0.00000000000E+00  0.60539380286E+03  0.60539380286E+03  0.00000000000E+00 0. -1.
          2   -1    0    0  501    0  0.00000000000E+00 -0.00000000000E+00 -0.23414114616E+04  0.23414114616E+04  0.00000000000E+00 0.  1.
    2000013    1    1    2    0    0 -0.42033407902E+03 -0.57931104689E+03 -0.93224199070E+03  0.15112435794E+04  0.95000000000E+03 0.  0.
   -2000013    1    1    2    0    0  0.42033407902E+03  0.57931104689E+03 -0.80377566800E+03  0.14355616850E+04  0.95000000000E+03 0.  0.
<mgrwt>
<rscale>  0 0.23811560E+04</rscale>
<asrwt>0</asrwt>
<pdfrwt beam="2">  1        2 0.36021715E+00 0.23811560E+04</pdfrwt>
<pdfrwt beam="1">  1       -2 0.93137506E-01 0.23811560E+04</pdfrwt>
<totfact> 0.37744456E+00</totfact>
</mgrwt>
</event>
<event>
 4    1  0.1295381E-008  0.2598799E+04  0.7816531E-02  0.8368609E-01
          2   -1    0    0  501    0  0.00000000000E+00  0.00000000000E+00  0.11671727210E+04  0.11671727210E+04  0.00000000000E+00 0.  1.
         -2   -1    0    0    0  501 -0.00000000000E+00 -0.00000000000E+00 -0.14466056312E+04  0.14466056312E+04  0.00000000000E+00 0. -1.
    2000013    1    1    2    0    0 -0.76969893541E+03  0.57975521655E+02  0.29884860497E+03  0.12600032147E+04  0.95000000000E+03 0.  0.
   -2000013    1    1    2    0    0  0.76969893541E+03 -0.57975521655E+02 -0.57828151513E+03  0.13537751375E+04  0.95000000000E+03 0.  0.
<mgrwt>
<rscale>  0 0.25987987E+04</rscale>
<asrwt>0</asrwt>
<pdfrwt beam="1">  1        2 0.17956503E+00 0.25987987E+04</pdfrwt>
<pdfrwt beam="2">  1       -2 0.22255471E+00 0.25987987E+04</pdfrwt>
<totfact> 0.16696954E+00</totfact>
</mgrwt>
</event>
<event>
 4    1  0.1295381E-008  0.2305349E+04  0.7816531E-02  0.8475815E-01
         -2   -1    0    0    0  501 -0.00000000000E+00  0.00000000000E+00  0.12660396290E+04  0.12660396290E+04  0.00000000000E+00 0. -1.
          2   -1    0    0  501    0  0.00000000000E+00 -0.00000000000E+00 -0.10494600346E+04  0.10494600346E+04  0.00000000000E+00 0.  1.
    2000013    1    1    2    0    0  0.49609460345E+03 -0.21122251152E+03  0.47792274443E+03  0.11923233431E+04  0.95000000000E+03 0.  0.
   -2000013    1    1    2    0    0 -0.49609460345E+03  0.21122251152E+03 -0.26134315002E+03  0.11231763205E+04  0.95000000000E+03 0.  0.
<mgrwt>
<rscale>  0 0.23053486E+04</rscale>
<asrwt>0</asrwt>
<pdfrwt beam="2">  1        2 0.16145539E+00 0.23053486E+04</pdfrwt>
<pdfrwt beam="1">  1       -2 0.19477533E+00 0.23053486E+04</pdfrwt>
<totfact> 0.30568375E+00</totfact>
</mgrwt>
</event>
<event>
 4    1  0.1295381E-008  0.2605375E+04  0.7816531E-02  0.8366378E-01
         -2   -1    0    0    0  501 -0.00000000000E+00  0.00000000000E+00  0.81343095549E+03  0.81343095549E+03  0.00000000000E+00 0. -1.
          2   -1    0    0  501    0  0.00000000000E+00 -0.00000000000E+00 -0.20862192788E+04  0.20862192788E+04  0.00000000000E+00 0.  1.
    2000013    1    1    2    0    0 -0.36058468169E+03  0.77287607456E+03 -0.92476741198E+03  0.15764052479E+04  0.95000000000E+03 0.  0.
   -2000013    1    1    2    0    0  0.36058468169E+03 -0.77287607456E+03 -0.34802091133E+03  0.13232449864E+04  0.95000000000E+03 0.  0.
<mgrwt>
<rscale>  0 0.26053755E+04</rscale>
<asrwt>0</asrwt>
<pdfrwt beam="2">  1        2 0.32095681E+00 0.26053755E+04</pdfrwt>
<pdfrwt beam="1">  1       -2 0.12514322E+00 0.26053755E+04</pdfrwt>
<totfact> 0.25282624E+00</totfact>
</mgrwt>
</event>
<event>
 4    1  0.1295381E-008  0.3156718E+04  0.7816531E-02  0.8200342E-01
          2   -1    0    0  501    0  0.00000000000E+00  0.00000000000E+00  0.35655880518E+04  0.35655880518E+04  0.00000000000E+00 0.  1.
         -2   -1    0    0    0  501 -0.00000000000E+00 -0.00000000000E+00 -0.69868360474E+03  0.69868360474E+03  0.00000000000E+00 0. -1.
    2000013    1    1    2    0    0 -0.14951044774E+03 -0.10256420738E+04  0.46457411028E+03  0.14807512085E+04  0.95000000000E+03 0.  0.
   -2000013    1    1    2    0    0  0.14951044774E+03  0.10256420738E+04  0.24023303368E+04  0.27835204481E+04  0.95000000000E+03 0.  0.
<mgrwt>
<rscale>  0 0.31567185E+04</rscale>
<asrwt>0</asrwt>
<pdfrwt beam="1">  1        2 0.54855200E+00 0.31567185E+04</pdfrwt>
<pdfrwt beam="2">  1       -2 0.10748979E+00 0.31567185E+04</pdfrwt>
<totfact> 0.42846202E-01</totfact>
</mgrwt>
</event>
<event>
 4    1  0.1295381E-008  0.2700051E+04  0.7816531E-02  0.8334989E-01
         -2   -1    0    0    0  501 -0.00000000000E+00  0.00000000000E+00  0.14092999649E+04  0.14092999649E+04  0.00000000000E+00 0. -1.
          2   -1    0    0  501    0  0.00000000000E+00 -0.00000000000E+00 -0.12932437346E+04  0.12932437346E+04  0.00000000000E+00 0.  1.
    2000013    1    1    2    0    0  0.92529067158E+03  0.25020501986E+03  0.94158131275E+02  0.13528233930E+04  0.95000000000E+03 0.  0.
   -2000013    1    1    2    0    0 -0.92529067158E+03 -0.25020501986E+03  0.21898099018E+02  0.13497203064E+04  0.95000000000E+03 0.  0.
<mgrwt>
<rscale>  0 0.27000506E+04</rscale>
<asrwt>0</asrwt>
<pdfrwt beam="2">  1        2 0.19896058E+00 0.27000506E+04</pdfrwt>
<pdfrwt beam="1">  1       -2 0.21681538E+00 0.27000506E+04</pdfrwt>
<totfact> 0.15155386E+00</totfact>
</mgrwt>
</event>
<event>
 4    1  0.1295381E-008  0.2380483E+04  0.7816531E-02  0.8446847E-01
          2   -1    0    0  501    0  0.00000000000E+00  0.00000000000E+00  0.12059802469E+04  0.12059802469E+04  0.00000000000E+00 0.  1.
         -2   -1    0    0    0  501 -0.00000000000E+00 -0.00000000000E+00 -0.11747085030E+04  0.11747085030E+04  0.00000000000E+00 0. -1.
    2000013    1    1    2    0    0 -0.27644238122E+03 -0.99210429353E+02  0.66984225931E+03  0.11989377598E+04  0.95000000000E+03 0.  0.
   -2000013    1    1    2    0    0  0.27644238122E+03  0.99210429353E+02 -0.63857051545E+03  0.11817509901E+04  0.95000000000E+03 0.  0.
<mgrwt>
<rscale>  0 0.23804834E+04</rscale>
<asrwt>0</asrwt>
<pdfrwt beam="1">  1        2 0.18553542E+00 0.23804834E+04</pdfrwt>
<pdfrwt beam="2">  1       -2 0.18072438E+00 0.23804834E+04</pdfrwt>
<totfact> 0.30328436E+00</totfact>
</mgrwt>
</event>
<event>
 4    1  0.1295381E-008  0.2737215E+04  0.7816531E-02  0.8323030E-01
         -2   -1    0    0    0  501 -0.00000000000E+00  0.00000000000E+00  0.84928328702E+03  0.84928328702E+03  0.00000000000E+00 0. -1.
          2   -1    0    0  501    0  0.00000000000E+00 -0.00000000000E+00 -0.22054912184E+04  0.22054912184E+04  0.00000000000E+00 0.  1.
    2000013    1    1    2    0    0 -0.55149757263E+03 -0.75715813402E+03 -0.33749279831E+03  0.13761683768E+04  0.95000000000E+03 0.  0.
   -2000013    1    1    2    0    0  0.55149757263E+03  0.75715813402E+03 -0.10187151330E+04  0.16786061286E+04  0.95000000000E+03 0.  0.
<mgrwt>
<rscale>  0 0.27372153E+04</rscale>
<asrwt>0</asrwt>
<pdfrwt beam="2">  1        2 0.33930633E+00 0.27372153E+04</pdfrwt>
<pdfrwt beam="1">  1       -2 0.13065897E+00 0.27372153E+04</pdfrwt>
<totfact> 0.19226384E+00</totfact>
</mgrwt>
</event>
<event>
 4    1  0.1295381E-008  0.3289483E+04  0.7816531E-02  0.8165576E-01
         -2   -1    0    0    0  501 -0.00000000000E+00  0.00000000000E+00  0.12856946927E+04  0.12856946927E+04  0.00000000000E+00 0. -1.
          2   -1    0    0  501    0  0.00000000000E+00 -0.00000000000E+00 -0.21040573805E+04  0.21040573805E+04  0.00000000000E+00 0.  1.
    2000013    1    1    2    0    0  0.80072568902E+03  0.10688759526E+04 -0.55129060254E+03  0.17291844203E+04  0.95000000000E+03 0.  0.
   -2000013    1    1    2    0    0 -0.80072568902E+03 -0.10688759526E+04 -0.26707208531E+03  0.16605676529E+04  0.95000000000E+03 0.  0.
<mgrwt>
<rscale>  0 0.32894835E+04</rscale>
<asrwt>0</asrwt>
<pdfrwt beam="2">  1        2 0.32370113E+00 0.32894835E+04</pdfrwt>
<pdfrwt beam="1">  1       -2 0.19779919E+00 0.32894835E+04</pdfrwt>
<totfact> 0.67195861E-01</totfact>
</mgrwt>
</event>
<event>
 4    1  0.1295381E-008  0.2319381E+04  0.7816531E-02  0.8470318E-01
         -2   -1    0    0    0  501 -0.00000000000E+00  0.00000000000E+00  0.11813209575E+04  0.11813209575E+04  0.00000000000E+00 0. -1.
          2   -1    0    0  501    0  0.00000000000E+00 -0.00000000000E+00 -0.11384563458E+04  0.11384563458E+04  0.00000000000E+00 0.  1.
    2000013    1    1    2    0    0  0.62951188599E+03  0.50912359557E+02  0.23004658290E+03  0.11637434053E+04  0.95000000000E+03 0.  0.
   -2000013    1    1    2    0    0 -0.62951188599E+03 -0.50912359557E+02 -0.18718197122E+03  0.11560338980E+04  0.95000000000E+03 0.  0.
<mgrwt>
<rscale>  0 0.23193812E+04</rscale>
<asrwt>0</asrwt>
<pdfrwt beam="2">  1        2 0.17514713E+00 0.23193812E+04</pdfrwt>
<pdfrwt beam="1">  1       -2 0.18174169E+00 0.23193812E+04</pdfrwt>
<totfact> 0.32941030E+00</totfact>
</mgrwt>
</event>
<event>
 4    1  0.1295381E-008  0.2567532E+04  0.7816531E-02  0.8379314E-01
          1   -1    0    0  501    0  0.00000000000E+00  0.00000000000E+00  0.44719333682E+04  0.44719333682E+04  0.00000000000E+00 0.  1.
         -1   -1    0    0    0  501 -0.00000000000E+00 -0.00000000000E+00 -0.36853311779E+03  0.36853311779E+03  0.00000000000E+00 0. -1.
    2000013    1    1    2    0    0 -0.14078306638E+02 -0.85183070557E+03  0.23165895628E+04  0.26447875060E+04  0.95000000000E+03 0.  0.
   -2000013    1    1    2    0    0  0.14078306638E+02  0.85183070557E+03  0.17868106877E+04  0.21956789800E+04  0.95000000000E+03 0.  0.
<mgrwt>
<rscale>  0 0.25675323E+04</rscale>
<asrwt>0</asrwt>
<pdfrwt beam="1">  1        1 0.68798971E+00 0.25675323E+04</pdfrwt>
<pdfrwt beam="2">  1       -1 0.56697406E-01 0.25675323E+04</pdfrwt>
<totfact> 0.96095614E-02</totfact>
</mgrwt>
</event>
<event>
 4    1  0.1295381E-008  0.3343696E+04  0.7816531E-02  0.8151865E-01
         -2   -1    0    0    0  501 -0.00000000000E+00  0.00000000000E+00  0.10838081581E+04  0.10838081581E+04  0.00000000000E+00 0.  1.
          2   -1    0    0  501    0  0.00000000000E+00 -0.00000000000E+00 -0.25789400271E+04  0.25789400271E+04  0.00000000000E+00 0. -1.
    2000013    1    1    2    0    0 -0.12075044713E+04  0.65853998739E+03 -0.77920586096E+03  0.18442894938E+04  0.95000000000E+03 0.  0.
   -2000013    1    1    2    0    0  0.12075044713E+04 -0.65853998739E+03 -0.71592600796E+03  0.18184586914E+04  0.95000000000E+03 0.  0.
<mgrwt>
<rscale>  0 0.33436963E+04</rscale>
<asrwt>0</asrwt>
<pdfrwt beam="2">  1        2 0.39676001E+00 0.33436963E+04</pdfrwt>
<pdfrwt beam="1">  1       -2 0.16673972E+00 0.33436963E+04</pdfrwt>
<totfact> 0.58593784E-01</totfact>
</mgrwt>
</event>
<event>
 4    1  0.1295381E-008  0.2023763E+04  0.7816531E-02  0.8595591E-01
         -2   -1    0    0    0  501 -0.00000000000E+00  0.00000000000E+00  0.71793844379E+03  0.71793844379E+03  0.00000000000E+00 0. -1.
          2   -1    0    0  501    0  0.00000000000E+00 -0.00000000000E+00 -0.14261719905E+04  0.14261719905E+04  0.00000000000E+00 0.  1.
    2000013    1    1    2    0    0 -0.24384615343E+03 -0.73496483779E+02 -0.10219284660E+03  0.98884076451E+03  0.95000000000E+03 0.  0.
   -2000013    1    1    2    0    0  0.24384615343E+03  0.73496483779E+02 -0.60604070008E+03  0.11552696697E+04  0.95000000000E+03 0.  0.
<mgrwt>
<rscale>  0 0.20237625E+04</rscale>
<asrwt>0</asrwt>
<pdfrwt beam="2">  1        2 0.21941108E+00 0.20237625E+04</pdfrwt>
<pdfrwt beam="1">  1       -2 0.11045207E+00 0.20237625E+04</pdfrwt>
<totfact> 0.84344635E+00</totfact>
</mgrwt>
</event>
<event>
 4    1  0.1295381E-008  0.2274230E+04  0.7816531E-02  0.8488152E-01
          2   -1    0    0  501    0  0.00000000000E+00  0.00000000000E+00  0.20208013074E+04  0.20208013074E+04  0.00000000000E+00 0.  1.
         -2   -1    0    0    0  501 -0.00000000000E+00 -0.00000000000E+00 -0.63986018220E+03  0.63986018220E+03  0.00000000000E+00 0. -1.
    2000013    1    1    2    0    0 -0.39801068238E+03 -0.48010121134E+03  0.64337333033E+03  0.13058862579E+04  0.95000000000E+03 0.  0.
   -2000013    1    1    2    0    0  0.39801068238E+03  0.48010121134E+03  0.73756779489E+03  0.13547752317E+04  0.95000000000E+03 0.  0.
<mgrwt>
<rscale>  0 0.22742298E+04</rscale>
<asrwt>0</asrwt>
<pdfrwt beam="1">  1        2 0.31089251E+00 0.22742298E+04</pdfrwt>
<pdfrwt beam="2">  1       -2 0.98440029E-01 0.22742298E+04</pdfrwt>
<totfact> 0.50664475E+00</totfact>
</mgrwt>
</event>
<event>
 4    1  0.1295381E-008  0.2582135E+04  0.7816531E-02  0.8374295E-01
         -2   -1    0    0    0  501 -0.00000000000E+00  0.00000000000E+00  0.59156936787E+03  0.59156936787E+03  0.00000000000E+00 0. -1.
          2   -1    0    0  501    0  0.00000000000E+00 -0.00000000000E+00 -0.28176838477E+04  0.28176838477E+04  0.00000000000E+00 0.  1.
    2000013    1    1    2    0    0 -0.67499580158E+03  0.44041884461E+03 -0.15603475525E+04  0.19966904055E+04  0.95000000000E+03 0.  0.
   -2000013    1    1    2    0    0  0.67499580158E+03 -0.44041884461E+03 -0.66576692732E+03  0.14125628101E+04  0.95000000000E+03 0.  0.
<mgrwt>
<rscale>  0 0.25821351E+04</rscale>
<asrwt>0</asrwt>
<pdfrwt beam="2">  1        2 0.43348982E+00 0.25821351E+04</pdfrwt>
<pdfrwt beam="1">  1       -2 0.91010673E-01 0.25821351E+04</pdfrwt>
<totfact> 0.20578629E+00</totfact>
</mgrwt>
</event>
<event>
 4    1  0.1295381E-008  0.3336829E+04  0.7816531E-02  0.8153587E-01
         -1   -1    0    0    0  501 -0.00000000000E+00  0.00000000000E+00  0.16139952358E+04  0.16139952358E+04  0.00000000000E+00 0.  1.
          1   -1    0    0  501    0  0.00000000000E+00 -0.00000000000E+00 -0.17246683428E+04  0.17246683428E+04  0.00000000000E+00 0. -1.
    2000013    1    1    2    0    0  0.90798109212E+03 -0.37866011644E+03  0.90085276808E+03  0.16376351417E+04  0.95000000000E+03 0.  0.
   -2000013    1    1    2    0    0 -0.90798109212E+03  0.37866011644E+03 -0.10115258750E+04  0.17010284370E+04  0.95000000000E+03 0.  0.
<mgrwt>
<rscale>  0 0.33368287E+04</rscale>
<asrwt>0</asrwt>
<pdfrwt beam="2">  1        1 0.26533359E+00 0.33368287E+04</pdfrwt>
<pdfrwt beam="1">  1       -1 0.24830696E+00 0.33368287E+04</pdfrwt>
<totfact> 0.27120575E-01</totfact>
</mgrwt>
</event>
<event>
 4    1  0.1295381E-008  0.2923859E+04  0.7816531E-02  0.8265814E-01
          2   -1    0    0  501    0  0.00000000000E+00  0.00000000000E+00  0.23509142495E+04  0.23509142495E+04  0.00000000000E+00 0.  1.
         -2   -1    0    0    0  501 -0.00000000000E+00 -0.00000000000E+00 -0.90910939647E+03  0.90910939647E+03  0.00000000000E+00 0. -1.
    2000013    1    1    2    0    0  0.99321560174E+03 -0.49647165202E+03  0.67390262885E+03  0.16092253062E+04  0.95000000000E+03 0.  0.
   -2000013    1    1    2    0    0 -0.99321560174E+03  0.49647165202E+03  0.76790222417E+03  0.16507983398E+04  0.95000000000E+03 0.  0.
<mgrwt>
<rscale>  0 0.29238593E+04</rscale>
<asrwt>0</asrwt>
<pdfrwt beam="1">  1        2 0.36167911E+00 0.29238593E+04</pdfrwt>
<pdfrwt beam="2">  1       -2 0.13986298E+00 0.29238593E+04</pdfrwt>
<totfact> 0.13152360E+00</totfact>
</mgrwt>
</event>
<event>
 4    1  0.1295381E-008  0.2693609E+04  0.7816531E-02  0.8337082E-01
          2   -1    0    0  501    0  0.00000000000E+00  0.00000000000E+00  0.16922956027E+04  0.16922956027E+04  0.00000000000E+00 0.  1.
         -2   -1    0    0    0  501 -0.00000000000E+00 -0.00000000000E+00 -0.10718468912E+04  0.10718468912E+04  0.00000000000E+00 0. -1.
    2000013    1    1    2    0    0 -0.51822229456E+03 -0.79135318360E+03  0.17805907990E+03  0.13524049851E+04  0.95000000000E+03 0.  0.
   -2000013    1    1    2    0    0  0.51822229456E+03  0.79135318360E+03  0.44238963160E+03  0.14117375089E+04  0.95000000000E+03 0.  0.
<mgrwt>
<rscale>  0 0.26936086E+04</rscale>
<asrwt>0</asrwt>
<pdfrwt beam="1">  1        2 0.26035317E+00 0.26936086E+04</pdfrwt>
<pdfrwt beam="2">  1       -2 0.16489952E+00 0.26936086E+04</pdfrwt>
<totfact> 0.20164178E+00</totfact>
</mgrwt>
</event>
<event>
 4    1  0.1295381E-008  0.2339231E+04  0.7816531E-02  0.8462612E-01
         -2   -1    0    0    0  501 -0.00000000000E+00  0.00000000000E+00  0.20599587672E+04  0.20599587672E+04  0.00000000000E+00 0.  1.
          2   -1    0    0  501    0  0.00000000000E+00 -0.00000000000E+00 -0.66409102408E+03  0.66409102408E+03  0.00000000000E+00 0. -1.
    2000013    1    1    2    0    0  0.51336712790E+03  0.37265540157E+03  0.40545423350E+03  0.12121513898E+04  0.95000000000E+03 0.  0.
   -2000013    1    1    2    0    0 -0.51336712790E+03 -0.37265540157E+03  0.99041350959E+03  0.15118984014E+04  0.95000000000E+03 0.  0.
<mgrwt>
<rscale>  0 0.23392308E+04</rscale>
<asrwt>0</asrwt>
<pdfrwt beam="2">  1        2 0.10216785E+00 0.23392308E+04</pdfrwt>
<pdfrwt beam="1">  1       -2 0.31691673E+00 0.23392308E+04</pdfrwt>
<totfact> 0.99033058E-01</totfact>
</mgrwt>
</event>
<event>
 4    1  0.1295381E-008  0.2319688E+04  0.7816531E-02  0.8470198E-01
         -2   -1    0    0    0  501 -0.00000000000E+00  0.00000000000E+00  0.51530724621E+03  0.51530724621E+03  0.00000000000E+00 0. -1.
          2   -1    0    0  501    0  0.00000000000E+00 -0.00000000000E+00 -0.26105563160E+04  0.26105563160E+04  0.00000000000E+00 0.  1.
    2000013    1    1    2    0    0  0.65730410056E+03  0.21890562229E+02 -0.91145865007E+03  0.14716605411E+04  0.95000000000E+03 0.  0.
   -2000013    1    1    2    0    0 -0.65730410056E+03 -0.21890562229E+02 -0.11837904197E+04  0.16542030211E+04  0.95000000000E+03 0.  0.
<mgrwt>
<rscale>  0 0.23196884E+04</rscale>
<asrwt>0</asrwt>
<pdfrwt beam="2">  1        2 0.40162405E+00 0.23196884E+04</pdfrwt>
<pdfrwt beam="1">  1       -2 0.79278037E-01 0.23196884E+04</pdfrwt>
<totfact> 0.38311601E+00</totfact>
</mgrwt>
</event>
<event>
 4    1  0.1295381E-008  0.2615028E+04  0.7816531E-02  0.8363115E-01
          2   -1    0    0  501    0  0.00000000000E+00  0.00000000000E+00  0.95621867678E+03  0.95621867678E+03  0.00000000000E+00 0.  1.
         -2   -1    0    0    0  501 -0.00000000000E+00 -0.00000000000E+00 -0.17878675631E+04  0.17878675631E+04  0.00000000000E+00 0. -1.
    2000013    1    1    2    0    0 -0.10245439192E+03 -0.85417167577E+03 -0.14423420739E+03  0.12897323989E+04  0.95000000000E+03 0.  0.
   -2000013    1    1    2    0    0  0.10245439192E+03  0.85417167577E+03 -0.68741467896E+03  0.14543538410E+04  0.95000000000E+03 0.  0.
<mgrwt>
<rscale>  0 0.26150276E+04</rscale>
<asrwt>0</asrwt>
<pdfrwt beam="1">  1        2 0.14711057E+00 0.26150276E+04</pdfrwt>
<pdfrwt beam="2">  1       -2 0.27505655E+00 0.26150276E+04</pdfrwt>
<totfact> 0.10725658E+00</totfact>
</mgrwt>
</event>
<event>
 4    1  0.1295381E-008  0.2681941E+04  0.7816531E-02  0.8340888E-01
         -1   -1    0    0    0  501 -0.00000000000E+00  0.00000000000E+00  0.20104696678E+04  0.20104696678E+04  0.00000000000E+00 0. -1.
          1   -1    0    0  501    0  0.00000000000E+00 -0.00000000000E+00 -0.89441895751E+03  0.89441895751E+03  0.00000000000E+00 0.  1.
    2000013    1    1    2    0    0 -0.21430461302E+03 -0.78293777972E+03  0.10850810911E+04  0.16549377657E+04  0.95000000000E+03 0.  0.
   -2000013    1    1    2    0    0  0.21430461302E+03  0.78293777972E+03  0.30969619144E+02  0.12499508596E+04  0.95000000000E+03 0.  0.
<mgrwt>
<rscale>  0 0.26819412E+04</rscale>
<asrwt>0</asrwt>
<pdfrwt beam="2">  1        1 0.13760292E+00 0.26819412E+04</pdfrwt>
<pdfrwt beam="1">  1       -1 0.30930302E+00 0.26819412E+04</pdfrwt>
<totfact> 0.46211597E-01</totfact>
</mgrwt>
</event>
<event>
 4    1  0.1295381E-008  0.2674569E+04  0.7816531E-02  0.8343304E-01
         -2   -1    0    0    0  501 -0.00000000000E+00  0.00000000000E+00  0.21997861597E+04  0.21997861597E+04  0.00000000000E+00 0. -1.
          2   -1    0    0  501    0  0.00000000000E+00 -0.00000000000E+00 -0.81295610488E+03  0.81295610488E+03  0.00000000000E+00 0.  1.
    2000013    1    1    2    0    0 -0.68134495898E+03 -0.64845563157E+03  0.65598856966E+03  0.14891429289E+04  0.95000000000E+03 0.  0.
   -2000013    1    1    2    0    0  0.68134495898E+03  0.64845563157E+03  0.73084148519E+03  0.15235993357E+04  0.95000000000E+03 0.  0.
<mgrwt>
<rscale>  0 0.26745688E+04</rscale>
<asrwt>0</asrwt>
<pdfrwt beam="2">  1        2 0.12507017E+00 0.26745688E+04</pdfrwt>
<pdfrwt beam="1">  1       -2 0.33842864E+00 0.26745688E+04</pdfrwt>
<totfact> 0.54520846E-01</totfact>
</mgrwt>
</event>
<event>
 4    1  0.1295381E-008  0.2975755E+04  0.7816531E-02  0.8250688E-01
         -2   -1    0    0    0  501 -0.00000000000E+00  0.00000000000E+00  0.55025368396E+03  0.55025368396E+03  0.00000000000E+00 0. -1.
          2   -1    0    0  501    0  0.00000000000E+00 -0.00000000000E+00 -0.40231972931E+04  0.40231972931E+04  0.00000000000E+00 0.  1.
    2000013    1    1    2    0    0  0.80548887645E+03  0.73373607970E+03 -0.11950576925E+04  0.18755916009E+04  0.95000000000E+03 0.  0.
   -2000013    1    1    2    0    0 -0.80548887645E+03 -0.73373607970E+03 -0.22778859166E+04  0.26978593762E+04  0.95000000000E+03 0.  0.
<mgrwt>
<rscale>  0 0.29757548E+04</rscale>
<asrwt>0</asrwt>
<pdfrwt beam="2">  1        2 0.61895345E+00 0.29757548E+04</pdfrwt>
<pdfrwt beam="1">  1       -2 0.84654410E-01 0.29757548E+04</pdfrwt>
<totfact> 0.34155000E-01</totfact>
</mgrwt>
</event>
<event>
 4    1  0.1295381E-008  0.3413158E+04  0.7816531E-02  0.8134684E-01
         -1   -1    0    0    0  501 -0.00000000000E+00  0.00000000000E+00  0.15247052087E+04  0.15247052087E+04  0.00000000000E+00 0. -1.
          1   -1    0    0  501    0  0.00000000000E+00 -0.00000000000E+00 -0.19101477395E+04  0.19101477395E+04  0.00000000000E+00 0.  1.
    2000013    1    1    2    0    0  0.13567000716E+03 -0.10909640844E+04  0.70812395108E+03  0.16163379951E+04  0.95000000000E+03 0.  0.
   -2000013    1    1    2    0    0 -0.13567000716E+03  0.10909640844E+04 -0.10935664819E+04  0.18185149531E+04  0.95000000000E+03 0.  0.
<mgrwt>
<rscale>  0 0.34131582E+04</rscale>
<asrwt>0</asrwt>
<pdfrwt beam="2">  1        1 0.29386888E+00 0.34131582E+04</pdfrwt>
<pdfrwt beam="1">  1       -1 0.23457003E+00 0.34131582E+04</pdfrwt>
<totfact> 0.24812310E-01</totfact>
</mgrwt>
</event>
<event>
 4    1  0.1295381E-008  0.2682931E+04  0.7816531E-02  0.8340565E-01
          2   -1    0    0  501    0  0.00000000000E+00  0.00000000000E+00  0.20502367727E+04  0.20502367727E+04  0.00000000000E+00 0.  1.
         -2   -1    0    0    0  501 -0.00000000000E+00 -0.00000000000E+00 -0.87771765899E+03  0.87771765899E+03  0.00000000000E+00 0. -1.
    2000013    1    1    2    0    0  0.54843050115E+03 -0.21404951342E+03  0.13959298983E+04  0.17882151687E+04  0.95000000000E+03 0.  0.
   -2000013    1    1    2    0    0 -0.54843050115E+03  0.21404951342E+03 -0.22341078460E+03  0.11397392629E+04  0.95000000000E+03 0.  0.
<mgrwt>
<rscale>  0 0.26829305E+04</rscale>
<asrwt>0</asrwt>
<pdfrwt beam="1">  1        2 0.31542104E+00 0.26829305E+04</pdfrwt>
<pdfrwt beam="2">  1       -2 0.13503349E+00 0.26829305E+04</pdfrwt>
<totfact> 0.21697653E+00</totfact>
</mgrwt>
</event>
<event>
 4    1  0.1295381E-008  0.2377193E+04  0.7816531E-02  0.8448092E-01
         -1   -1    0    0    0  501 -0.00000000000E+00  0.00000000000E+00  0.12419630258E+04  0.12419630258E+04  0.00000000000E+00 0. -1.
          1   -1    0    0  501    0  0.00000000000E+00 -0.00000000000E+00 -0.11375231488E+04  0.11375231488E+04  0.00000000000E+00 0.  1.
    2000013    1    1    2    0    0  0.13232075491E+03  0.64882800650E+03  0.32038717815E+03  0.12015134240E+04  0.95000000000E+03 0.  0.
   -2000013    1    1    2    0    0 -0.13232075491E+03 -0.64882800650E+03 -0.21594730116E+03  0.11779727506E+04  0.95000000000E+03 0.  0.
<mgrwt>
<rscale>  0 0.23771930E+04</rscale>
<asrwt>0</asrwt>
<pdfrwt beam="2">  1        1 0.17500356E+00 0.23771930E+04</pdfrwt>
<pdfrwt beam="1">  1       -1 0.19107123E+00 0.23771930E+04</pdfrwt>
<totfact> 0.18530895E+00</totfact>
</mgrwt>
</event>
<event>
 4    1  0.1295381E-008  0.2003809E+04  0.7816531E-02  0.8604842E-01
         -2   -1    0    0    0  501 -0.00000000000E+00  0.00000000000E+00  0.35354489923E+03  0.35354489923E+03  0.00000000000E+00 0. -1.
          2   -1    0    0  501    0  0.00000000000E+00 -0.00000000000E+00 -0.28392778276E+04  0.28392778276E+04  0.00000000000E+00 0.  1.
    2000013    1    1    2    0    0 -0.24370265819E+03 -0.19684091029E+03 -0.11530861481E+04  0.15265140007E+04  0.95000000000E+03 0.  0.
   -2000013    1    1    2    0    0  0.24370265819E+03  0.19684091029E+03 -0.13326467803E+04  0.16663087261E+04  0.95000000000E+03 0.  0.
<mgrwt>
<rscale>  0 0.20038086E+04</rscale>
<asrwt>0</asrwt>
<pdfrwt beam="2">  1        2 0.43681197E+00 0.20038086E+04</pdfrwt>
<pdfrwt beam="1">  1       -2 0.54391524E-01 0.20038086E+04</pdfrwt>
<totfact> 0.64787270E+00</totfact>
</mgrwt>
</event>
<event>
 4    1  0.1295381E-008  0.3225307E+04  0.7816531E-02  0.8182165E-01
         -2   -1    0    0    0  501 -0.00000000000E+00  0.00000000000E+00  0.79283637495E+03  0.79283637495E+03  0.00000000000E+00 0. -1.
          2   -1    0    0  501    0  0.00000000000E+00 -0.00000000000E+00 -0.32801871137E+04  0.32801871137E+04  0.00000000000E+00 0.  1.
    2000013    1    1    2    0    0  0.42042279474E+03 -0.58597169240E+02 -0.27995563687E+04  0.29866711932E+04  0.95000000000E+03 0.  0.
   -2000013    1    1    2    0    0 -0.42042279474E+03  0.58597169240E+02  0.31220562993E+03  0.10863522955E+04  0.95000000000E+03 0.  0.
<mgrwt>
<rscale>  0 0.32253072E+04</rscale>
<asrwt>0</asrwt>
<pdfrwt beam="2">  1        2 0.50464416E+00 0.32253072E+04</pdfrwt>
<pdfrwt beam="1">  1       -2 0.12197483E+00 0.32253072E+04</pdfrwt>
<totfact> 0.49139244E-01</totfact>
</mgrwt>
</event>
<event>
 4    1  0.1295381E-008  0.2945536E+04  0.7816531E-02  0.8259457E-01
         -2   -1    0    0    0  501 -0.00000000000E+00  0.00000000000E+00  0.30466258296E+04  0.30466258296E+04  0.00000000000E+00 0. -1.
          2   -1    0    0  501    0  0.00000000000E+00 -0.00000000000E+00 -0.71194990826E+03  0.71194990826E+03  0.00000000000E+00 0.  1.
    2000013    1    1    2    0    0  0.83093126476E+03  0.34618108379E+02  0.19982874613E+03  0.12783100985E+04  0.95000000000E+03 0.  0.
   -2000013    1    1    2    0    0 -0.83093126476E+03 -0.34618108379E+02  0.21348471752E+04  0.24802656393E+04  0.95000000000E+03 0.  0.
<mgrwt>
<rscale>  0 0.29455356E+04</rscale>
<asrwt>0</asrwt>
<pdfrwt beam="2">  1        2 0.10953076E+00 0.29455356E+04</pdfrwt>
<pdfrwt beam="1">  1       -2 0.46871166E+00 0.29455356E+04</pdfrwt>
<totfact> 0.89957533E-02</totfact>
</mgrwt>
</event>
<event>
 4    1  0.1295381E-008  0.2229577E+04  0.7816531E-02  0.8506217E-01
         -1   -1    0    0    0  501 -0.00000000000E+00  0.00000000000E+00  0.72232759768E+03  0.72232759768E+03  0.00000000000E+00 0. -1.
          1   -1    0    0  501    0  0.00000000000E+00 -0.00000000000E+00 -0.17204844890E+04  0.17204844890E+04  0.00000000000E+00 0.  1.
    2000013    1    1    2    0    0  0.40556324996E+03  0.38455106116E+03 -0.31609567212E+03  0.11466374938E+04  0.95000000000E+03 0.  0.
   -2000013    1    1    2    0    0 -0.40556324996E+03 -0.38455106116E+03 -0.68206121919E+03  0.12961745928E+04  0.95000000000E+03 0.  0.
<mgrwt>
<rscale>  0 0.22295770E+04</rscale>
<asrwt>0</asrwt>
<pdfrwt beam="2">  1        1 0.26468992E+00 0.22295770E+04</pdfrwt>
<pdfrwt beam="1">  1       -1 0.11112732E+00 0.22295770E+04</pdfrwt>
<totfact> 0.31260791E+00</totfact>
</mgrwt>
</event>
<event>
 4    1  0.1295381E-008  0.2634870E+04  0.7816531E-02  0.8356452E-01
          2   -1    0    0  501    0  0.00000000000E+00  0.00000000000E+00  0.74370258255E+03  0.74370258255E+03  0.00000000000E+00 0.  1.
         -2   -1    0    0    0  501 -0.00000000000E+00 -0.00000000000E+00 -0.23337758477E+04  0.23337758477E+04  0.00000000000E+00 0. -1.
    2000013    1    1    2    0    0 -0.76702719965E+01 -0.75113788979E+03 -0.18940925932E+03  0.12258233274E+04  0.95000000000E+03 0.  0.
   -2000013    1    1    2    0    0  0.76702719965E+01  0.75113788979E+03 -0.14006640058E+04  0.18516551028E+04  0.95000000000E+03 0.  0.
<mgrwt>
<rscale>  0 0.26348701E+04</rscale>
<asrwt>0</asrwt>
<pdfrwt beam="1">  1        2 0.11441578E+00 0.26348701E+04</pdfrwt>
<pdfrwt beam="2">  1       -2 0.35904243E+00 0.26348701E+04</pdfrwt>
<totfact> 0.45611385E-01</totfact>
</mgrwt>
</event>
<event>
 4    1  0.1295381E-008  0.2235694E+04  0.7816531E-02  0.8503717E-01
          2   -1    0    0  501    0  0.00000000000E+00  0.00000000000E+00  0.11992871584E+04  0.11992871584E+04  0.00000000000E+00 0.  1.
         -2   -1    0    0    0  501 -0.00000000000E+00 -0.00000000000E+00 -0.10419367921E+04  0.10419367921E+04  0.00000000000E+00 0. -1.
    2000013    1    1    2    0    0  0.23255893419E+03  0.51682656174E+03  0.23997086824E+03  0.11319361159E+04  0.95000000000E+03 0.  0.
   -2000013    1    1    2    0    0 -0.23255893419E+03 -0.51682656174E+03 -0.82620501936E+02  0.11092878347E+04  0.95000000000E+03 0.  0.
<mgrwt>
<rscale>  0 0.22356936E+04</rscale>
<asrwt>0</asrwt>
<pdfrwt beam="1">  1        2 0.18450572E+00 0.22356936E+04</pdfrwt>
<pdfrwt beam="2">  1       -2 0.16029797E+00 0.22356936E+04</pdfrwt>
<totfact> 0.43306912E+00</totfact>
</mgrwt>
</event>
<event>
 4    1  0.1295381E-008  0.2018633E+04  0.7816531E-02  0.8597958E-01
         -2   -1    0    0    0  501 -0.00000000000E+00  0.00000000000E+00  0.67198238469E+03  0.67198238469E+03  0.00000000000E+00 0. -1.
          2   -1    0    0  501    0  0.00000000000E+00 -0.00000000000E+00 -0.15159922569E+04  0.15159922569E+04  0.00000000000E+00 0.  1.
    2000013    1    1    2    0    0  0.33067819624E+03  0.40243652369E+02 -0.50055864274E+03  0.11242893648E+04  0.95000000000E+03 0.  0.
   -2000013    1    1    2    0    0 -0.33067819624E+03 -0.40243652369E+02 -0.34345122949E+03  0.10636852768E+04  0.95000000000E+03 0.  0.
<mgrwt>
<rscale>  0 0.20186333E+04</rscale>
<asrwt>0</asrwt>
<pdfrwt beam="2">  1        2 0.23322958E+00 0.20186333E+04</pdfrwt>
<pdfrwt beam="1">  1       -2 0.10338191E+00 0.20186333E+04</pdfrwt>
<totfact> 0.88007100E+00</totfact>
</mgrwt>
</event>
<event>
 4    1  0.1295381E-008  0.2073359E+04  0.7816531E-02  0.8573071E-01
         -2   -1    0    0    0  501 -0.00000000000E+00  0.00000000000E+00  0.12050515798E+04  0.12050515798E+04  0.00000000000E+00 0. -1.
          2   -1    0    0  501    0  0.00000000000E+00 -0.00000000000E+00 -0.89183249131E+03  0.89183249131E+03  0.00000000000E+00 0.  1.
    2000013    1    1    2    0    0  0.42700198026E+01  0.39830338680E+03  0.38926305849E+02  0.10308632685E+04  0.95000000000E+03 0.  0.
   -2000013    1    1    2    0    0 -0.42700198026E+01 -0.39830338680E+03  0.27429278261E+03  0.10660208026E+04  0.95000000000E+03 0.  0.
<mgrwt>
<rscale>  0 0.20733588E+04</rscale>
<asrwt>0</asrwt>
<pdfrwt beam="2">  1        2 0.13720500E+00 0.20733588E+04</pdfrwt>
<pdfrwt beam="1">  1       -2 0.18539255E+00 0.20733588E+04</pdfrwt>
<totfact> 0.45657478E+00</totfact>
</mgrwt>
</event>
<event>
 4    1  0.1295381E-008  0.2069811E+04  0.7816531E-02  0.8574660E-01
         -2   -1    0    0    0  501 -0.00000000000E+00  0.00000000000E+00  0.61509947353E+03  0.61509947353E+03  0.00000000000E+00 0. -1.
          2   -1    0    0  501    0  0.00000000000E+00 -0.00000000000E+00 -0.17412303068E+04  0.17412303068E+04  0.00000000000E+00 0.  1.
    2000013    1    1    2    0    0  0.12352963066E+03  0.33312242414E+03 -0.32892625097E+03  0.10662657256E+04  0.95000000000E+03 0.  0.
   -2000013    1    1    2    0    0 -0.12352963066E+03 -0.33312242414E+03 -0.79720458229E+03  0.12900640547E+04  0.95000000000E+03 0.  0.
<mgrwt>
<rscale>  0 0.20698114E+04</rscale>
<asrwt>0</asrwt>
<pdfrwt beam="2">  1        2 0.26788158E+00 0.20698114E+04</pdfrwt>
<pdfrwt beam="1">  1       -2 0.94630691E-01 0.20698114E+04</pdfrwt>
<totfact> 0.80827490E+00</totfact>
</mgrwt>
</event>
<event>
 4    1  0.1295381E-008  0.2742082E+04  0.7816531E-02  0.8321479E-01
          2   -1    0    0  501    0  0.00000000000E+00  0.00000000000E+00  0.98195302586E+03  0.98195302586E+03  0.00000000000E+00 0.  1.
         -2   -1    0    0    0  501 -0.00000000000E+00 -0.00000000000E+00 -0.19143006537E+04  0.19143006537E+04  0.00000000000E+00 0. -1.
    2000013    1    1    2    0    0 -0.22620752054E+03  0.88251634778E+03 -0.87147831324E+03  0.15786004551E+04  0.95000000000E+03 0.  0.
   -2000013    1    1    2    0    0  0.22620752054E+03 -0.88251634778E+03 -0.60869314612E+02  0.13176532245E+04  0.95000000000E+03 0.  0.
<mgrwt>
<rscale>  0 0.27420819E+04</rscale>
<asrwt>0</asrwt>
<pdfrwt beam="1">  1        2 0.15106970E+00 0.27420819E+04</pdfrwt>
<pdfrwt beam="2">  1       -2 0.29450779E+00 0.27420819E+04</pdfrwt>
<totfact> 0.77683020E-01</totfact>
</mgrwt>
</event>
<event>
 4    1  0.1295381E-008  0.2703774E+04  0.7816531E-02  0.8333782E-01
          2   -1    0    0  501    0  0.00000000000E+00  0.00000000000E+00  0.17836913690E+04  0.17836913690E+04  0.00000000000E+00 0.  1.
         -2   -1    0    0    0  501 -0.00000000000E+00 -0.00000000000E+00 -0.10246155791E+04  0.10246155791E+04  0.00000000000E+00 0. -1.
    2000013    1    1    2    0    0 -0.61936189820E+03  0.36335761500E+03  0.10441680047E+04  0.15838007259E+04  0.95000000000E+03 0.  0.
   -2000013    1    1    2    0    0  0.61936189820E+03 -0.36335761500E+03 -0.28509221471E+03  0.12245062222E+04  0.95000000000E+03 0.  0.
<mgrwt>
<rscale>  0 0.27037736E+04</rscale>
<asrwt>0</asrwt>
<pdfrwt beam="1">  1        2 0.27441406E+00 0.27037736E+04</pdfrwt>
<pdfrwt beam="2">  1       -2 0.15763317E+00 0.27037736E+04</pdfrwt>
<totfact> 0.20271844E+00</totfact>
</mgrwt>
</event>
<event>
 4    1  0.1295381E-008  0.3415797E+04  0.7816531E-02  0.8134040E-01
         -2   -1    0    0    0  501 -0.00000000000E+00  0.00000000000E+00  0.12075145040E+04  0.12075145040E+04  0.00000000000E+00 0. -1.
          2   -1    0    0  501    0  0.00000000000E+00 -0.00000000000E+00 -0.24156381730E+04  0.24156381730E+04  0.00000000000E+00 0.  1.
    2000013    1    1    2    0    0 -0.12709162688E+04  0.58542537402E+03 -0.35200860924E+03  0.17275303447E+04  0.95000000000E+03 0.  0.
   -2000013    1    1    2    0    0  0.12709162688E+04 -0.58542537402E+03 -0.85611505973E+03  0.18956223322E+04  0.95000000000E+03 0.  0.
<mgrwt>
<rscale>  0 0.34157975E+04</rscale>
<asrwt>0</asrwt>
<pdfrwt beam="2">  1        2 0.37163664E+00 0.34157975E+04</pdfrwt>
<pdfrwt beam="1">  1       -2 0.18577147E+00 0.34157975E+04</pdfrwt>
<totfact> 0.53331286E-01</totfact>
</mgrwt>
</event>
<event>
 4    1  0.1295381E-008  0.2254569E+04  0.7816531E-02  0.8496052E-01
         -2   -1    0    0    0  501 -0.00000000000E+00  0.00000000000E+00  0.11072143785E+04  0.11072143785E+04  0.00000000000E+00 0. -1.
          2   -1    0    0  501    0  0.00000000000E+00 -0.00000000000E+00 -0.11477189069E+04  0.11477189069E+04  0.00000000000E+00 0.  1.
    2000013    1    1    2    0    0 -0.32480550793E+03  0.15322800544E+01 -0.53294585887E+03  0.11366759672E+04  0.95000000000E+03 0.  0.
   -2000013    1    1    2    0    0  0.32480550793E+03 -0.15322800544E+01  0.49244133040E+03  0.11182573182E+04  0.95000000000E+03 0.  0.
<mgrwt>
<rscale>  0 0.22545695E+04</rscale>
<asrwt>0</asrwt>
<pdfrwt beam="2">  1        2 0.17657214E+00 0.22545695E+04</pdfrwt>
<pdfrwt beam="1">  1       -2 0.17034067E+00 0.22545695E+04</pdfrwt>
<totfact> 0.39281077E+00</totfact>
</mgrwt>
</event>
<event>
 4    1  0.1295381E-008  0.3146007E+04  0.7816531E-02  0.8203224E-01
         -2   -1    0    0    0  501 -0.00000000000E+00  0.00000000000E+00  0.14291907725E+04  0.14291907725E+04  0.00000000000E+00 0. -1.
          2   -1    0    0  501    0  0.00000000000E+00 -0.00000000000E+00 -0.17312869041E+04  0.17312869041E+04  0.00000000000E+00 0.  1.
    2000013    1    1    2    0    0  0.40426808095E+03 -0.11855345510E+04 -0.96814418850E+02  0.15750548830E+04  0.95000000000E+03 0.  0.
   -2000013    1    1    2    0    0 -0.40426808095E+03  0.11855345510E+04 -0.20528171272E+03  0.15854227936E+04  0.95000000000E+03 0.  0.
<mgrwt>
<rscale>  0 0.31460065E+04</rscale>
<asrwt>0</asrwt>
<pdfrwt beam="2">  1        2 0.26635183E+00 0.31460065E+04</pdfrwt>
<pdfrwt beam="1">  1       -2 0.21987550E+00 0.31460065E+04</pdfrwt>
<totfact> 0.78910823E-01</totfact>
</mgrwt>
</event>
<event>
 4    1  0.1295381E-008  0.2129831E+04  0.7816531E-02  0.8548215E-01
         -2   -1    0    0    0  501 -0.00000000000E+00  0.00000000000E+00  0.61593440668E+03  0.61593440668E+03  0.00000000000E+00 0.  1.
          2   -1    0    0  501    0  0.00000000000E+00 -0.00000000000E+00 -0.18411784347E+04  0.18411784347E+04  0.00000000000E+00 0. -1.
    2000013    1    1    2    0    0  0.62416510240E+02  0.45049199376E+03 -0.79395787443E+03  0.13189798951E+04  0.95000000000E+03 0.  0.
   -2000013    1    1    2    0    0 -0.62416510240E+02 -0.45049199376E+03 -0.43128615355E+03  0.11381329463E+04  0.95000000000E+03 0.  0.
<mgrwt>
<rscale>  0 0.21298311E+04</rscale>
<asrwt>0</asrwt>
<pdfrwt beam="2">  1        2 0.28325822E+00 0.21298311E+04</pdfrwt>
<pdfrwt beam="1">  1       -2 0.94759140E-01 0.21298311E+04</pdfrwt>
<totfact> 0.70556594E+00</totfact>
</mgrwt>
</event>
<event>
 4    1  0.1295381E-008  0.2121068E+04  0.7816531E-02  0.8552019E-01
         -1   -1    0    0    0  501 -0.00000000000E+00  0.00000000000E+00  0.17903454886E+04  0.17903454886E+04  0.00000000000E+00 0. -1.
          1   -1    0    0  501    0  0.00000000000E+00 -0.00000000000E+00 -0.62822108404E+03  0.62822108404E+03  0.00000000000E+00 0.  1.
    2000013    1    1    2    0    0 -0.14100412117E+03 -0.30143917364E+03  0.96178745382E+03  0.13922222681E+04  0.95000000000E+03 0.  0.
   -2000013    1    1    2    0    0  0.14100412117E+03  0.30143917364E+03  0.20033695076E+03  0.10263443045E+04  0.95000000000E+03 0.  0.
<mgrwt>
<rscale>  0 0.21210684E+04</rscale>
<asrwt>0</asrwt>
<pdfrwt beam="2">  1        1 0.96649398E-01 0.21210684E+04</pdfrwt>
<pdfrwt beam="1">  1       -1 0.27543776E+00 0.21210684E+04</pdfrwt>
<totfact> 0.14009616E+00</totfact>
</mgrwt>
</event>
<event>
 4    1  0.1295381E-008  0.2279491E+04  0.7816531E-02  0.8486052E-01
         -2   -1    0    0    0  501 -0.00000000000E+00  0.00000000000E+00  0.60309325291E+03  0.60309325291E+03  0.00000000000E+00 0. -1.
          2   -1    0    0  501    0  0.00000000000E+00 -0.00000000000E+00 -0.21539278477E+04  0.21539278477E+04  0.00000000000E+00 0.  1.
    2000013    1    1    2    0    0 -0.45621489415E+03  0.37440421552E+03 -0.10409790165E+04  0.15278900022E+04  0.95000000000E+03 0.  0.
   -2000013    1    1    2    0    0  0.45621489415E+03 -0.37440421552E+03 -0.50985557835E+03  0.12291310984E+04  0.95000000000E+03 0.  0.
<mgrwt>
<rscale>  0 0.22794906E+04</rscale>
<asrwt>0</asrwt>
<pdfrwt beam="2">  1        2 0.33137351E+00 0.22794906E+04</pdfrwt>
<pdfrwt beam="1">  1       -2 0.92783578E-01 0.22794906E+04</pdfrwt>
<totfact> 0.49011104E+00</totfact>
</mgrwt>
</event>
<event>
 4    1  0.1295381E-008  0.1972735E+04  0.7816531E-02  0.8619475E-01
          2   -1    0    0  501    0  0.00000000000E+00  0.00000000000E+00  0.11807095690E+04  0.11807095690E+04  0.00000000000E+00 0.  1.
         -2   -1    0    0    0  501 -0.00000000000E+00 -0.00000000000E+00 -0.82401375394E+03  0.82401375394E+03  0.00000000000E+00 0. -1.
    2000013    1    1    2    0    0  0.15890341410E+03 -0.35535163149E+02  0.39128774442E+03  0.10402495574E+04  0.95000000000E+03 0.  0.
   -2000013    1    1    2    0    0 -0.15890341410E+03  0.35535163149E+02 -0.34591929325E+02  0.96447376554E+03  0.95000000000E+03 0.  0.
<mgrwt>
<rscale>  0 0.19727351E+04</rscale>
<asrwt>0</asrwt>
<pdfrwt beam="1">  1        2 0.18164763E+00 0.19727351E+04</pdfrwt>
<pdfrwt beam="2">  1       -2 0.12677135E+00 0.19727351E+04</pdfrwt>
<totfact> 0.83836506E+00</totfact>
</mgrwt>
</event>
<event>
 4    1  0.1295381E-008  0.2494400E+04  0.7816531E-02  0.8404983E-01
         -2   -1    0    0    0  501 -0.00000000000E+00  0.00000000000E+00  0.66688453585E+03  0.66688453585E+03  0.00000000000E+00 0. -1.
          2   -1    0    0  501    0  0.00000000000E+00 -0.00000000000E+00 -0.23324991010E+04  0.23324991010E+04  0.00000000000E+00 0.  1.
    2000013    1    1    2    0    0 -0.61643676116E+02  0.80476215862E+03 -0.88038386819E+03  0.15261119979E+04  0.95000000000E+03 0.  0.
   -2000013    1    1    2    0    0  0.61643676116E+02 -0.80476215862E+03 -0.78523069698E+03  0.14732716390E+04  0.95000000000E+03 0.  0.
<mgrwt>
<rscale>  0 0.24943998E+04</rscale>
<asrwt>0</asrwt>
<pdfrwt beam="2">  1        2 0.35884601E+00 0.24943998E+04</pdfrwt>
<pdfrwt beam="1">  1       -2 0.10259762E+00 0.24943998E+04</pdfrwt>
<totfact> 0.30118364E+00</totfact>
</mgrwt>
</event>
<event>
 4    1  0.1295381E-008  0.3067947E+04  0.7816531E-02  0.8224590E-01
         -1   -1    0    0    0  501 -0.00000000000E+00  0.00000000000E+00  0.92127224141E+03  0.92127224141E+03  0.00000000000E+00 0. -1.
          1   -1    0    0  501    0  0.00000000000E+00 -0.00000000000E+00 -0.25541584940E+04  0.25541584940E+04  0.00000000000E+00 0.  1.
    2000013    1    1    2    0    0 -0.45986696261E+03  0.11077812900E+04 -0.94011418654E+03  0.17958206184E+04  0.95000000000E+03 0.  0.
   -2000013    1    1    2    0    0  0.45986696261E+03 -0.11077812900E+04 -0.69277206610E+03  0.16796101171E+04  0.95000000000E+03 0.  0.
<mgrwt>
<rscale>  0 0.30679474E+04</rscale>
<asrwt>0</asrwt>
<pdfrwt beam="2">  1        1 0.39294745E+00 0.30679474E+04</pdfrwt>
<pdfrwt beam="1">  1       -1 0.14173419E+00 0.30679474E+04</pdfrwt>
<totfact> 0.42635111E-01</totfact>
</mgrwt>
</event>
<event>
 4    1  0.1295381E-008  0.2815315E+04  0.7816531E-02  0.8298529E-01
          2   -1    0    0  501    0  0.00000000000E+00  0.00000000000E+00  0.28629407419E+04  0.28629407419E+04  0.00000000000E+00 0.  1.
         -2   -1    0    0    0  501 -0.00000000000E+00 -0.00000000000E+00 -0.69212051873E+03  0.69212051873E+03  0.00000000000E+00 0. -1.
    2000013    1    1    2    0    0 -0.88335872750E+03  0.21564006179E+03  0.17195317547E+04  0.21647431102E+04  0.95000000000E+03 0.  0.
   -2000013    1    1    2    0    0  0.88335872750E+03 -0.21564006179E+03  0.45128846848E+03  0.13903181505E+04  0.95000000000E+03 0.  0.
<mgrwt>
<rscale>  0 0.28153153E+04</rscale>
<asrwt>0</asrwt>
<pdfrwt beam="1">  1        2 0.44045242E+00 0.28153153E+04</pdfrwt>
<pdfrwt beam="2">  1       -2 0.10648008E+00 0.28153153E+04</pdfrwt>
<totfact> 0.13071773E+00</totfact>
</mgrwt>
</event>
<event>
 4    1  0.1295381E-008  0.2044186E+04  0.7816531E-02  0.8586237E-01
         -1   -1    0    0    0  501 -0.00000000000E+00  0.00000000000E+00  0.14204020933E+04  0.14204020933E+04  0.00000000000E+00 0. -1.
          1   -1    0    0  501    0  0.00000000000E+00 -0.00000000000E+00 -0.73547743971E+03  0.73547743971E+03  0.00000000000E+00 0.  1.
    2000013    1    1    2    0    0 -0.28554228620E+03 -0.22011553394E+03  0.22602870846E+03  0.10409487127E+04  0.95000000000E+03 0.  0.
   -2000013    1    1    2    0    0  0.28554228620E+03  0.22011553394E+03  0.45889594510E+03  0.11149308202E+04  0.95000000000E+03 0.  0.
<mgrwt>
<rscale>  0 0.20441856E+04</rscale>
<asrwt>0</asrwt>
<pdfrwt beam="2">  1        1 0.11315038E+00 0.20441856E+04</pdfrwt>
<pdfrwt beam="1">  1       -1 0.21852340E+00 0.20441856E+04</pdfrwt>
<totfact> 0.26268749E+00</totfact>
</mgrwt>
</event>
<event>
 4    1  0.1295381E-008  0.2620786E+04  0.7816531E-02  0.8361175E-01
          2   -1    0    0  501    0  0.00000000000E+00  0.00000000000E+00  0.92982664528E+03  0.92982664528E+03  0.00000000000E+00 0.  1.
         -2   -1    0    0    0  501 -0.00000000000E+00 -0.00000000000E+00 -0.18467203536E+04  0.18467203536E+04  0.00000000000E+00 0. -1.
    2000013    1    1    2    0    0 -0.82068928948E+03  0.67207773974E+02 -0.66912205991E+02  0.12589777750E+04  0.95000000000E+03 0.  0.
   -2000013    1    1    2    0    0  0.82068928948E+03 -0.67207773974E+02 -0.84998150229E+03  0.15175692238E+04  0.95000000000E+03 0.  0.
<mgrwt>
<rscale>  0 0.26207860E+04</rscale>
<asrwt>0</asrwt>
<pdfrwt beam="1">  1        2 0.14305025E+00 0.26207860E+04</pdfrwt>
<pdfrwt beam="2">  1       -2 0.28411082E+00 0.26207860E+04</pdfrwt>
<totfact> 0.98278853E-01</totfact>
</mgrwt>
</event>
<event>
 4    1  0.1295381E-008  0.2387451E+04  0.7816531E-02  0.8444217E-01
          3   -1    0    0  501    0  0.00000000000E+00  0.00000000000E+00  0.54594657237E+03  0.54594657237E+03  0.00000000000E+00 0.  1.
         -3   -1    0    0    0  501 -0.00000000000E+00 -0.00000000000E+00 -0.26101098894E+04  0.26101098894E+04  0.00000000000E+00 0. -1.
    2000013    1    1    2    0    0  0.39595093533E+03  0.56359375956E+03 -0.74226260338E+03  0.13884771663E+04  0.95000000000E+03 0.  0.
   -2000013    1    1    2    0    0 -0.39595093533E+03 -0.56359375956E+03 -0.13219007137E+04  0.17675792955E+04  0.95000000000E+03 0.  0.
<mgrwt>
<rscale>  0 0.23874510E+04</rscale>
<asrwt>0</asrwt>
<pdfrwt beam="1">  1        3 0.83991780E-01 0.23874510E+04</pdfrwt>
<pdfrwt beam="2">  1       -3 0.40155537E+00 0.23874510E+04</pdfrwt>
<totfact> 0.31784973E-02</totfact>
</mgrwt>
</event>
<event>
 4    1  0.1295381E-008  0.2590794E+04  0.7816531E-02  0.8371335E-01
         -2   -1    0    0    0  501 -0.00000000000E+00  0.00000000000E+00  0.38866794810E+03  0.38866794810E+03  0.00000000000E+00 0. -1.
          2   -1    0    0  501    0  0.00000000000E+00 -0.00000000000E+00 -0.43174472771E+04  0.43174472771E+04  0.00000000000E+00 0.  1.
    2000013    1    1    2    0    0  0.49942769742E+03  0.57299162041E+03 -0.11565050203E+04  0.16786158834E+04  0.95000000000E+03 0.  0.
   -2000013    1    1    2    0    0 -0.49942769742E+03 -0.57299162041E+03 -0.27722743087E+04  0.30274993418E+04  0.95000000000E+03 0.  0.
<mgrwt>
<rscale>  0 0.25907940E+04</rscale>
<asrwt>0</asrwt>
<pdfrwt beam="2">  1        2 0.66422265E+00 0.25907940E+04</pdfrwt>
<pdfrwt beam="1">  1       -2 0.59795070E-01 0.25907940E+04</pdfrwt>
<totfact> 0.42396330E-01</totfact>
</mgrwt>
</event>
<event>
 4    1  0.1295381E-008  0.2833864E+04  0.7816531E-02  0.8292831E-01
         -2   -1    0    0    0  501 -0.00000000000E+00  0.00000000000E+00  0.60285643944E+03  0.60285643944E+03  0.00000000000E+00 0. -1.
          2   -1    0    0  501    0  0.00000000000E+00 -0.00000000000E+00 -0.33303061630E+04  0.33303061630E+04  0.00000000000E+00 0.  1.
    2000013    1    1    2    0    0  0.88318957014E+03 -0.56300381404E+03 -0.14894013459E+04  0.20537315990E+04  0.95000000000E+03 0.  0.
   -2000013    1    1    2    0    0 -0.88318957014E+03  0.56300381404E+03 -0.12380483777E+04  0.18794310035E+04  0.95000000000E+03 0.  0.
<mgrwt>
<rscale>  0 0.28338642E+04</rscale>
<asrwt>0</asrwt>
<pdfrwt beam="2">  1        2 0.51235480E+00 0.28338642E+04</pdfrwt>
<pdfrwt beam="1">  1       -2 0.92747144E-01 0.28338642E+04</pdfrwt>
<totfact> 0.90881302E-01</totfact>
</mgrwt>
</event>
<event>
 4    1  0.1295381E-008  0.2587479E+04  0.7816531E-02  0.8372467E-01
         -2   -1    0    0    0  501 -0.00000000000E+00  0.00000000000E+00  0.36912208826E+03  0.36912208826E+03  0.00000000000E+00 0. -1.
          2   -1    0    0  501    0  0.00000000000E+00 -0.00000000000E+00 -0.45344395606E+04  0.45344395606E+04  0.00000000000E+00 0.  1.
    2000013    1    1    2    0    0 -0.95332217396E+02 -0.87282819007E+03 -0.20474831636E+04  0.24219010273E+04  0.95000000000E+03 0.  0.
   -2000013    1    1    2    0    0  0.95332217396E+02  0.87282819007E+03 -0.21178343088E+04  0.24816606215E+04  0.95000000000E+03 0.  0.
<mgrwt>
<rscale>  0 0.25874789E+04</rscale>
<asrwt>0</asrwt>
<pdfrwt beam="2">  1        2 0.69760606E+00 0.25874789E+04</pdfrwt>
<pdfrwt beam="1">  1       -2 0.56788015E-01 0.25874789E+04</pdfrwt>
<totfact> 0.29442588E-01</totfact>
</mgrwt>
</event>
<event>
 4    1  0.1295381E-008  0.2096031E+04  0.7816531E-02  0.8562994E-01
          2   -1    0    0  501    0  0.00000000000E+00  0.00000000000E+00  0.16333986295E+04  0.16333986295E+04  0.00000000000E+00 0. -1.
         -2   -1    0    0    0  501 -0.00000000000E+00 -0.00000000000E+00 -0.67242426686E+03  0.67242426686E+03  0.00000000000E+00 0.  1.
    2000013    1    1    2    0    0 -0.28097577118E+02 -0.44027892623E+03  0.51862508105E+03  0.11688057929E+04  0.95000000000E+03 0.  0.
   -2000013    1    1    2    0    0  0.28097577118E+02  0.44027892623E+03  0.44234928158E+03  0.11370171035E+04  0.95000000000E+03 0.  0.
<mgrwt>
<rscale>  0 0.20960314E+04</rscale>
<asrwt>0</asrwt>
<pdfrwt beam="1">  1        2 0.25129210E+00 0.20960314E+04</pdfrwt>
<pdfrwt beam="2">  1       -2 0.10344989E+00 0.20960314E+04</pdfrwt>
<totfact> 0.75023415E+00</totfact>
</mgrwt>
</event>
<event>
 4    1  0.1295381E-008  0.2529874E+04  0.7816531E-02  0.8392419E-01
          1   -1    0    0  501    0  0.00000000000E+00  0.00000000000E+00  0.23729333329E+04  0.23729333329E+04  0.00000000000E+00 0.  1.
         -1   -1    0    0    0  501 -0.00000000000E+00 -0.00000000000E+00 -0.67429882321E+03  0.67429882321E+03  0.00000000000E+00 0. -1.
    2000013    1    1    2    0    0  0.46912199944E+03 -0.51165729461E+03  0.14087258693E+04  0.18354501389E+04  0.95000000000E+03 0.  0.
   -2000013    1    1    2    0    0 -0.46912199944E+03  0.51165729461E+03  0.28990864039E+03  0.12117820172E+04  0.95000000000E+03 0.  0.
<mgrwt>
<rscale>  0 0.25298744E+04</rscale>
<asrwt>0</asrwt>
<pdfrwt beam="1">  1        1 0.36506666E+00 0.25298744E+04</pdfrwt>
<pdfrwt beam="2">  1       -1 0.10373828E+00 0.25298744E+04</pdfrwt>
<totfact> 0.12863798E+00</totfact>
</mgrwt>
</event>
<event>
 4    1  0.1295381E-008  0.2257529E+04  0.7816531E-02  0.8494858E-01
          2   -1    0    0  501    0  0.00000000000E+00  0.00000000000E+00  0.19852976364E+04  0.19852976364E+04  0.00000000000E+00 0.  1.
         -2   -1    0    0    0  501 -0.00000000000E+00 -0.00000000000E+00 -0.64177254854E+03  0.64177254854E+03  0.00000000000E+00 0. -1.
    2000013    1    1    2    0    0  0.52050598134E+03 -0.29482591115E+03  0.53525425479E+03  0.12437226024E+04  0.95000000000E+03 0.  0.
   -2000013    1    1    2    0    0 -0.52050598134E+03  0.29482591115E+03  0.80827083310E+03  0.13833475825E+04  0.95000000000E+03 0.  0.
<mgrwt>
<rscale>  0 0.22575292E+04</rscale>
<asrwt>0</asrwt>
<pdfrwt beam="1">  1        2 0.30543040E+00 0.22575292E+04</pdfrwt>
<pdfrwt beam="2">  1       -2 0.98734239E-01 0.22575292E+04</pdfrwt>
<totfact> 0.52723622E+00</totfact>
</mgrwt>
</event>
<event>
 4    1  0.1295381E-008  0.2947808E+04  0.7816531E-02  0.8258794E-01
         -2   -1    0    0    0  501 -0.00000000000E+00  0.00000000000E+00  0.72273626337E+03  0.72273626337E+03  0.00000000000E+00 0. -1.
          2   -1    0    0  501    0  0.00000000000E+00 -0.00000000000E+00 -0.30057886370E+04  0.30057886370E+04  0.00000000000E+00 0.  1.
    2000013    1    1    2    0    0  0.72942829902E+03 -0.82339366888E+03 -0.83209164475E+03  0.16747893248E+04  0.95000000000E+03 0.  0.
   -2000013    1    1    2    0    0 -0.72942829902E+03  0.82339366888E+03 -0.14509607289E+04  0.20537355755E+04  0.95000000000E+03 0.  0.
<mgrwt>
<rscale>  0 0.29478076E+04</rscale>
<asrwt>0</asrwt>
<pdfrwt beam="2">  1        2 0.46242902E+00 0.29478076E+04</pdfrwt>
<pdfrwt beam="1">  1       -2 0.11119019E+00 0.29478076E+04</pdfrwt>
<totfact> 0.94958908E-01</totfact>
</mgrwt>
</event>
<event>
 4    1  0.1295381E-008  0.2164194E+04  0.7816531E-02  0.8533481E-01
         -2   -1    0    0    0  501 -0.00000000000E+00  0.00000000000E+00  0.56667018178E+03  0.56667018178E+03  0.00000000000E+00 0. -1.
          2   -1    0    0  501    0  0.00000000000E+00 -0.00000000000E+00 -0.20663416808E+04  0.20663416808E+04  0.00000000000E+00 0.  1.
    2000013    1    1    2    0    0 -0.24543961790E+03  0.12633842881E+03 -0.21641531041E+03  0.10126882991E+04  0.95000000000E+03 0.  0.
   -2000013    1    1    2    0    0  0.24543961790E+03 -0.12633842881E+03 -0.12832561886E+04  0.16203235634E+04  0.95000000000E+03 0.  0.
<mgrwt>
<rscale>  0 0.21641943E+04</rscale>
<asrwt>0</asrwt>
<pdfrwt beam="2">  1        2 0.31789872E+00 0.21641943E+04</pdfrwt>
<pdfrwt beam="1">  1       -2 0.87180028E-01 0.21641943E+04</pdfrwt>
<totfact> 0.63956397E+00</totfact>
</mgrwt>
</event>
<event>
 4    1  0.1295381E-008  0.3053642E+04  0.7816531E-02  0.8228577E-01
          1   -1    0    0  501    0  0.00000000000E+00  0.00000000000E+00  0.32589297913E+04  0.32589297913E+04  0.00000000000E+00 0. -1.
         -1   -1    0    0    0  501 -0.00000000000E+00 -0.00000000000E+00 -0.71532125794E+03  0.71532125794E+03  0.00000000000E+00 0.  1.
    2000013    1    1    2    0    0  0.10428849257E+04 -0.17447914562E+03  0.19971729549E+04  0.24513775213E+04  0.95000000000E+03 0.  0.
   -2000013    1    1    2    0    0 -0.10428849257E+04  0.17447914562E+03  0.54643557851E+03  0.15228735279E+04  0.95000000000E+03 0.  0.
<mgrwt>
<rscale>  0 0.30536416E+04</rscale>
<asrwt>0</asrwt>
<pdfrwt beam="1">  1        1 0.50137381E+00 0.30536416E+04</pdfrwt>
<pdfrwt beam="2">  1       -1 0.11004943E+00 0.30536416E+04</pdfrwt>
<totfact> 0.24760670E-01</totfact>
</mgrwt>
</event>
<event>
 4    1  0.1295381E-008  0.2321310E+04  0.7816531E-02  0.8469566E-01
          2   -1    0    0  501    0  0.00000000000E+00  0.00000000000E+00  0.21400301690E+04  0.21400301690E+04  0.00000000000E+00 0.  1.
         -2   -1    0    0    0  501 -0.00000000000E+00 -0.00000000000E+00 -0.62948620217E+03  0.62948620217E+03  0.00000000000E+00 0. -1.
    2000013    1    1    2    0    0 -0.10768409904E+03 -0.65254746824E+03  0.85654644365E+03  0.14399950950E+04  0.95000000000E+03 0.  0.
   -2000013    1    1    2    0    0  0.10768409904E+03  0.65254746824E+03  0.65399752319E+03  0.13295212762E+04  0.95000000000E+03 0.  0.
<mgrwt>
<rscale>  0 0.23213095E+04</rscale>
<asrwt>0</asrwt>
<pdfrwt beam="1">  1        2 0.32923541E+00 0.23213095E+04</pdfrwt>
<pdfrwt beam="2">  1       -2 0.96844032E-01 0.23213095E+04</pdfrwt>
<totfact> 0.44990491E+00</totfact>
</mgrwt>
</event>
<event>
 4    1  0.1295381E-008  0.2916215E+04  0.7816531E-02  0.8268069E-01
          2   -1    0    0  501    0  0.00000000000E+00  0.00000000000E+00  0.18490710100E+04  0.18490710100E+04  0.00000000000E+00 0.  1.
         -2   -1    0    0    0  501 -0.00000000000E+00 -0.00000000000E+00 -0.11498083546E+04  0.11498083546E+04  0.00000000000E+00 0. -1.
    2000013    1    1    2    0    0 -0.10780393280E+04 -0.20475025127E+03  0.49317994446E+03  0.15329115812E+04  0.95000000000E+03 0.  0.
   -2000013    1    1    2    0    0  0.10780393280E+04  0.20475025127E+03  0.20608271095E+03  0.14659677834E+04  0.95000000000E+03 0.  0.
<mgrwt>
<rscale>  0 0.29162149E+04</rscale>
<asrwt>0</asrwt>
<pdfrwt beam="1">  1        2 0.28447246E+00 0.29162149E+04</pdfrwt>
<pdfrwt beam="2">  1       -2 0.17689359E+00 0.29162149E+04</pdfrwt>
<totfact> 0.13313194E+00</totfact>
</mgrwt>
</event>
<event>
 4    1  0.1295381E-008  0.2190814E+04  0.7816531E-02  0.8522261E-01
         -2   -1    0    0    0  501 -0.00000000000E+00  0.00000000000E+00  0.28202145788E+03  0.28202145788E+03  0.00000000000E+00 0. -1.
          2   -1    0    0  501    0  0.00000000000E+00 -0.00000000000E+00 -0.42547004161E+04  0.42547004161E+04  0.00000000000E+00 0.  1.
    2000013    1    1    2    0    0 -0.53450808280E+03  0.10219201119E+03 -0.20602733398E+04  0.23331027265E+04  0.95000000000E+03 0.  0.
   -2000013    1    1    2    0    0  0.53450808280E+03 -0.10219201119E+03 -0.19124056185E+04  0.22036191475E+04  0.95000000000E+03 0.  0.
<mgrwt>
<rscale>  0 0.21908143E+04</rscale>
<asrwt>0</asrwt>
<pdfrwt beam="2">  1        2 0.65456930E+00 0.21908143E+04</pdfrwt>
<pdfrwt beam="1">  1       -2 0.43387916E-01 0.21908143E+04</pdfrwt>
<totfact> 0.96848825E-01</totfact>
</mgrwt>
</event>
<event>
 4    1  0.1295381E-008  0.2132705E+04  0.7816531E-02  0.8546972E-01
          2   -1    0    0  501    0  0.00000000000E+00  0.00000000000E+00  0.11343876513E+04  0.11343876513E+04  0.00000000000E+00 0.  1.
         -2   -1    0    0    0  501 -0.00000000000E+00 -0.00000000000E+00 -0.10023978415E+04  0.10023978415E+04  0.00000000000E+00 0. -1.
    2000013    1    1    2    0    0 -0.39536760824E+03  0.87473082752E+02  0.33228649991E+03  0.10848416492E+04  0.95000000000E+03 0.  0.
   -2000013    1    1    2    0    0  0.39536760824E+03 -0.87473082752E+02 -0.20029669012E+03  0.10519438435E+04  0.95000000000E+03 0.  0.
<mgrwt>
<rscale>  0 0.21327051E+04</rscale>
<asrwt>0</asrwt>
<pdfrwt beam="1">  1        2 0.17452118E+00 0.21327051E+04</pdfrwt>
<pdfrwt beam="2">  1       -2 0.15421505E+00 0.21327051E+04</pdfrwt>
<totfact> 0.53077792E+00</totfact>
</mgrwt>
</event>
<event>
 4    1  0.1295381E-008  0.2223818E+04  0.7816531E-02  0.8508580E-01
         -2   -1    0    0    0  501 -0.00000000000E+00  0.00000000000E+00  0.10188496628E+04  0.10188496628E+04  0.00000000000E+00 0. -1.
          2   -1    0    0  501    0  0.00000000000E+00 -0.00000000000E+00 -0.12134676275E+04  0.12134676275E+04  0.00000000000E+00 0.  1.
    2000013    1    1    2    0    0 -0.44182785043E+03  0.77655855800E+02 -0.46284197056E+03  0.11480265550E+04  0.95000000000E+03 0.  0.
   -2000013    1    1    2    0    0  0.44182785043E+03 -0.77655855800E+02  0.26822400590E+03  0.10842907353E+04  0.95000000000E+03 0.  0.
<mgrwt>
<rscale>  0 0.22238175E+04</rscale>
<asrwt>0</asrwt>
<pdfrwt beam="2">  1        2 0.18668733E+00 0.22238175E+04</pdfrwt>
<pdfrwt beam="1">  1       -2 0.15674610E+00 0.22238175E+04</pdfrwt>
<totfact> 0.45180281E+00</totfact>
</mgrwt>
</event>
<event>
 4    1  0.1295381E-008  0.2466156E+04  0.7816531E-02  0.8415143E-01
         -2   -1    0    0    0  501 -0.00000000000E+00  0.00000000000E+00  0.77786137259E+03  0.77786137259E+03  0.00000000000E+00 0.  1.
          2   -1    0    0  501    0  0.00000000000E+00 -0.00000000000E+00 -0.19546940843E+04  0.19546940843E+04  0.00000000000E+00 0. -1.
    2000013    1    1    2    0    0  0.53748429418E+03 -0.57209096538E+03 -0.63547253949E+03  0.13865434676E+04  0.95000000000E+03 0.  0.
   -2000013    1    1    2    0    0 -0.53748429418E+03  0.57209096538E+03 -0.54136017219E+03  0.13460119892E+04  0.95000000000E+03 0.  0.
<mgrwt>
<rscale>  0 0.24661557E+04</rscale>
<asrwt>0</asrwt>
<pdfrwt beam="2">  1        2 0.30072216E+00 0.24661557E+04</pdfrwt>
<pdfrwt beam="1">  1       -2 0.11967098E+00 0.24661557E+04</pdfrwt>
<totfact> 0.33856376E+00</totfact>
</mgrwt>
</event>
<event>
 4    1  0.1295381E-008  0.2789010E+04  0.7816531E-02  0.8306688E-01
          2   -1    0    0  501    0  0.00000000000E+00  0.00000000000E+00  0.82464752964E+03  0.82464752964E+03  0.00000000000E+00 0.  1.
         -2   -1    0    0    0  501 -0.00000000000E+00 -0.00000000000E+00 -0.23581525239E+04  0.23581525239E+04  0.00000000000E+00 0. -1.
    2000013    1    1    2    0    0 -0.89581759751E+03  0.44086395534E+03 -0.10096269128E+04  0.17084193566E+04  0.95000000000E+03 0.  0.
   -2000013    1    1    2    0    0  0.89581759751E+03 -0.44086395534E+03 -0.52387808148E+03  0.14743806969E+04  0.95000000000E+03 0.  0.
<mgrwt>
<rscale>  0 0.27890103E+04</rscale>
<asrwt>0</asrwt>
<pdfrwt beam="1">  1        2 0.12686885E+00 0.27890103E+04</pdfrwt>
<pdfrwt beam="2">  1       -2 0.36279269E+00 0.27890103E+04</pdfrwt>
<totfact> 0.37177575E-01</totfact>
</mgrwt>
</event>
<event>
 4    1  0.1295381E-008  0.4240856E+04  0.7816531E-02  0.7957646E-01
          2   -1    0    0  501    0  0.00000000000E+00  0.00000000000E+00  0.20054782276E+04  0.20054782276E+04  0.00000000000E+00 0.  1.
         -2   -1    0    0    0  501 -0.00000000000E+00 -0.00000000000E+00 -0.22419663300E+04  0.22419663300E+04  0.00000000000E+00 0. -1.
    2000013    1    1    2    0    0  0.18048722271E+04  0.35284361997E+03 -0.57901563242E+03  0.21493769979E+04  0.95000000000E+03 0.  0.
   -2000013    1    1    2    0    0 -0.18048722271E+04 -0.35284361997E+03  0.34252752998E+03  0.20980675597E+04  0.95000000000E+03 0.  0.
<mgrwt>
<rscale>  0 0.42408559E+04</rscale>
<asrwt>0</asrwt>
<pdfrwt beam="1">  1        2 0.30853511E+00 0.42408559E+04</pdfrwt>
<pdfrwt beam="2">  1       -2 0.34491790E+00 0.42408559E+04</pdfrwt>
<totfact> 0.85959488E-02</totfact>
</mgrwt>
</event>
<event>
 4    1  0.1295381E-008  0.2323613E+04  0.7816531E-02  0.8468669E-01
         -2   -1    0    0    0  501 -0.00000000000E+00  0.00000000000E+00  0.79288810296E+03  0.79288810296E+03  0.00000000000E+00 0. -1.
          2   -1    0    0  501    0  0.00000000000E+00 -0.00000000000E+00 -0.17023771640E+04  0.17023771640E+04  0.00000000000E+00 0.  1.
    2000013    1    1    2    0    0 -0.37401358239E+03  0.34196978790E+03  0.13918387466E+02  0.10768115978E+04  0.95000000000E+03 0.  0.
   -2000013    1    1    2    0    0  0.37401358239E+03 -0.34196978790E+03 -0.92340744853E+03  0.14184536692E+04  0.95000000000E+03 0.  0.
<mgrwt>
<rscale>  0 0.23236132E+04</rscale>
<asrwt>0</asrwt>
<pdfrwt beam="2">  1        2 0.26190418E+00 0.23236132E+04</pdfrwt>
<pdfrwt beam="1">  1       -2 0.12198278E+00 0.23236132E+04</pdfrwt>
<totfact> 0.45102291E+00</totfact>
</mgrwt>
</event>
<event>
 4    1  0.1295381E-008  0.2691188E+04  0.7816531E-02  0.8337870E-01
          2   -1    0    0  501    0  0.00000000000E+00  0.00000000000E+00  0.12771045369E+04  0.12771045369E+04  0.00000000000E+00 0.  1.
         -2   -1    0    0    0  501 -0.00000000000E+00 -0.00000000000E+00 -0.14177563137E+04  0.14177563137E+04  0.00000000000E+00 0. -1.
    2000013    1    1    2    0    0 -0.42478025177E+03  0.47857969384E+03  0.63678675524E+03  0.13105243826E+04  0.95000000000E+03 0.  0.
   -2000013    1    1    2    0    0  0.42478025177E+03 -0.47857969384E+03 -0.77743853200E+03  0.13843364680E+04  0.95000000000E+03 0.  0.
<mgrwt>
<rscale>  0 0.26911879E+04</rscale>
<asrwt>0</asrwt>
<pdfrwt beam="1">  1        2 0.19647762E+00 0.26911879E+04</pdfrwt>
<pdfrwt beam="2">  1       -2 0.21811636E+00 0.26911879E+04</pdfrwt>
<totfact> 0.15207249E+00</totfact>
</mgrwt>
</event>
<event>
 4    1  0.1295381E-008  0.2075630E+04  0.7816531E-02  0.8572055E-01
          2   -1    0    0  501    0  0.00000000000E+00  0.00000000000E+00  0.11163620913E+04  0.11163620913E+04  0.00000000000E+00 0.  1.
         -2   -1    0    0    0  501 -0.00000000000E+00 -0.00000000000E+00 -0.96479403765E+03  0.96479403765E+03  0.00000000000E+00 0. -1.
    2000013    1    1    2    0    0 -0.54858405108E+02 -0.39483006789E+03 -0.49686138860E+02  0.10314402259E+04  0.95000000000E+03 0.  0.
   -2000013    1    1    2    0    0  0.54858405108E+02  0.39483006789E+03  0.20125419247E+03  0.10497159030E+04  0.95000000000E+03 0.  0.
<mgrwt>
<rscale>  0 0.20756295E+04</rscale>
<asrwt>0</asrwt>
<pdfrwt beam="1">  1        2 0.17174801E+00 0.20756295E+04</pdfrwt>
<pdfrwt beam="2">  1       -2 0.14842985E+00 0.20756295E+04</pdfrwt>
<totfact> 0.60557119E+00</totfact>
</mgrwt>
</event>
<event>
 4    1  0.1295381E-008  0.2526103E+04  0.7816531E-02  0.8393745E-01
         -2   -1    0    0    0  501 -0.00000000000E+00  0.00000000000E+00  0.51824238987E+03  0.51824238987E+03  0.00000000000E+00 0. -1.
          2   -1    0    0  501    0  0.00000000000E+00 -0.00000000000E+00 -0.30782882730E+04  0.30782882730E+04  0.00000000000E+00 0.  1.
    2000013    1    1    2    0    0 -0.49372314198E+03  0.66665511053E+03 -0.11833769380E+04  0.17294717559E+04  0.95000000000E+03 0.  0.
   -2000013    1    1    2    0    0  0.49372314198E+03 -0.66665511053E+03 -0.13766689452E+04  0.18670589069E+04  0.95000000000E+03 0.  0.
<mgrwt>
<rscale>  0 0.25261033E+04</rscale>
<asrwt>0</asrwt>
<pdfrwt beam="2">  1        2 0.47358280E+00 0.25261033E+04</pdfrwt>
<pdfrwt beam="1">  1       -2 0.79729600E-01 0.25261033E+04</pdfrwt>
<totfact> 0.19263063E+00</totfact>
</mgrwt>
</event>
<event>
 4    1  0.1295381E-008  0.2527132E+04  0.7816531E-02  0.8393383E-01
         -2   -1    0    0    0  501 -0.00000000000E+00  0.00000000000E+00  0.49777276669E+03  0.49777276669E+03  0.00000000000E+00 0. -1.
          2   -1    0    0  501    0  0.00000000000E+00 -0.00000000000E+00 -0.32074865669E+04  0.32074865669E+04  0.00000000000E+00 0.  1.
    2000013    1    1    2    0    0 -0.39683589974E+03  0.70576232627E+03 -0.16426201211E+04  0.20630753876E+04  0.95000000000E+03 0.  0.
   -2000013    1    1    2    0    0  0.39683589974E+03 -0.70576232627E+03 -0.10670936790E+04  0.16421839459E+04  0.95000000000E+03 0.  0.
<mgrwt>
<rscale>  0 0.25271323E+04</rscale>
<asrwt>0</asrwt>
<pdfrwt beam="2">  1        2 0.49345947E+00 0.25271323E+04</pdfrwt>
<pdfrwt beam="1">  1       -2 0.76580426E-01 0.25271323E+04</pdfrwt>
<totfact> 0.17401758E+00</totfact>
</mgrwt>
</event>
<event>
 4    1  0.1295381E-008  0.2729248E+04  0.7816531E-02  0.8325577E-01
          2   -1    0    0  501    0  0.00000000000E+00  0.00000000000E+00  0.19227642069E+04  0.19227642069E+04  0.00000000000E+00 0.  1.
         -2   -1    0    0    0  501 -0.00000000000E+00 -0.00000000000E+00 -0.96850045889E+03  0.96850045889E+03  0.00000000000E+00 0. -1.
    2000013    1    1    2    0    0  0.64572552061E+03  0.73494427549E+03  0.53108125125E+03  0.14634383593E+04  0.95000000000E+03 0.  0.
   -2000013    1    1    2    0    0 -0.64572552061E+03 -0.73494427549E+03  0.42318249679E+03  0.14278263065E+04  0.95000000000E+03 0.  0.
<mgrwt>
<rscale>  0 0.27292475E+04</rscale>
<asrwt>0</asrwt>
<pdfrwt beam="1">  1        2 0.29580988E+00 0.27292475E+04</pdfrwt>
<pdfrwt beam="2">  1       -2 0.14900007E+00 0.27292475E+04</pdfrwt>
<totfact> 0.19688785E+00</totfact>
</mgrwt>
</event>
<event>
 4    1  0.1295381E-008  0.3945125E+04  0.7816531E-02  0.8015709E-01
         -2   -1    0    0    0  501 -0.00000000000E+00  0.00000000000E+00  0.14457514786E+04  0.14457514786E+04  0.00000000000E+00 0. -1.
          2   -1    0    0  501    0  0.00000000000E+00 -0.00000000000E+00 -0.26913363428E+04  0.26913363428E+04  0.00000000000E+00 0.  1.
    2000013    1    1    2    0    0  0.12199302545E+04  0.11402513215E+04 -0.15370032719E+03  0.19273107411E+04  0.95000000000E+03 0.  0.
   -2000013    1    1    2    0    0 -0.12199302545E+04 -0.11402513215E+04 -0.10918845370E+04  0.22097770802E+04  0.95000000000E+03 0.  0.
<mgrwt>
<rscale>  0 0.39451253E+04</rscale>
<asrwt>0</asrwt>
<pdfrwt beam="2">  1        2 0.41405174E+00 0.39451253E+04</pdfrwt>
<pdfrwt beam="1">  1       -2 0.22242330E+00 0.39451253E+04</pdfrwt>
<totfact> 0.20311852E-01</totfact>
</mgrwt>
</event>
<event>
 4    1  0.1295381E-008  0.3375614E+04  0.7816531E-02  0.8143917E-01
          2   -1    0    0  501    0  0.00000000000E+00  0.00000000000E+00  0.20343607775E+04  0.20343607775E+04  0.00000000000E+00 0.  1.
         -2   -1    0    0    0  501 -0.00000000000E+00 -0.00000000000E+00 -0.14002891050E+04  0.14002891050E+04  0.00000000000E+00 0. -1.
    2000013    1    1    2    0    0  0.66292413321E+03  0.11634199390E+04  0.71526133809E+03  0.17908414622E+04  0.95000000000E+03 0.  0.
   -2000013    1    1    2    0    0 -0.66292413321E+03 -0.11634199390E+04 -0.81189665659E+02  0.16438084203E+04  0.95000000000E+03 0.  0.
<mgrwt>
<rscale>  0 0.33756145E+04</rscale>
<asrwt>0</asrwt>
<pdfrwt beam="1">  1        2 0.31297858E+00 0.33756145E+04</pdfrwt>
<pdfrwt beam="2">  1       -2 0.21542909E+00 0.33756145E+04</pdfrwt>
<totfact> 0.56087474E-01</totfact>
</mgrwt>
</event>
<event>
 4    1  0.1295381E-008  0.2484501E+04  0.7816531E-02  0.8408528E-01
          2   -1    0    0  501    0  0.00000000000E+00  0.00000000000E+00  0.10293582180E+04  0.10293582180E+04  0.00000000000E+00 0.  1.
         -2   -1    0    0    0  501 -0.00000000000E+00 -0.00000000000E+00 -0.14991727973E+04  0.14991727973E+04  0.00000000000E+00 0. -1.
    2000013    1    1    2    0    0 -0.54978016526E+03 -0.19876080962E+03  0.32151937331E+03  0.11608784592E+04  0.95000000000E+03 0.  0.
   -2000013    1    1    2    0    0  0.54978016526E+03  0.19876080962E+03 -0.79133395260E+03  0.13676525561E+04  0.95000000000E+03 0.  0.
<mgrwt>
<rscale>  0 0.24845006E+04</rscale>
<asrwt>0</asrwt>
<pdfrwt beam="1">  1        2 0.15836280E+00 0.24845006E+04</pdfrwt>
<pdfrwt beam="2">  1       -2 0.23064197E+00 0.24845006E+04</pdfrwt>
<totfact> 0.18245892E+00</totfact>
</mgrwt>
</event>
<event>
 4    1  0.1295381E-008  0.2284956E+04  0.7816531E-02  0.8483876E-01
          2   -1    0    0  501    0  0.00000000000E+00  0.00000000000E+00  0.21121380744E+04  0.21121380744E+04  0.00000000000E+00 0.  1.
         -2   -1    0    0    0  501 -0.00000000000E+00 -0.00000000000E+00 -0.61797872217E+03  0.61797872217E+03  0.00000000000E+00 0. -1.
    2000013    1    1    2    0    0 -0.50874832151E+03  0.11132854402E+03  0.31374036269E+03  0.11278971205E+04  0.95000000000E+03 0.  0.
   -2000013    1    1    2    0    0  0.50874832151E+03 -0.11132854402E+03  0.11804189895E+04  0.16022196760E+04  0.95000000000E+03 0.  0.
<mgrwt>
<rscale>  0 0.22849564E+04</rscale>
<asrwt>0</asrwt>
<pdfrwt beam="1">  1        2 0.32494432E+00 0.22849564E+04</pdfrwt>
<pdfrwt beam="2">  1       -2 0.95073651E-01 0.22849564E+04</pdfrwt>
<totfact> 0.48845032E+00</totfact>
</mgrwt>
</event>
<event>
 4    1  0.1295381E-008  0.2353881E+04  0.7816531E-02  0.8456974E-01
          2   -1    0    0  501    0  0.00000000000E+00  0.00000000000E+00  0.87545367505E+03  0.87545367505E+03  0.00000000000E+00 0. -1.
         -2   -1    0    0    0  501 -0.00000000000E+00 -0.00000000000E+00 -0.15822531378E+04  0.15822531378E+04  0.00000000000E+00 0.  1.
    2000013    1    1    2    0    0 -0.55216979859E+03  0.41542351236E+03 -0.42884435804E+03  0.12505501447E+04  0.95000000000E+03 0.  0.
   -2000013    1    1    2    0    0  0.55216979859E+03 -0.41542351236E+03 -0.27795510471E+03  0.12071566681E+04  0.95000000000E+03 0.  0.
<mgrwt>
<rscale>  0 0.23538813E+04</rscale>
<asrwt>0</asrwt>
<pdfrwt beam="1">  1        2 0.13468518E+00 0.23538813E+04</pdfrwt>
<pdfrwt beam="2">  1       -2 0.24342356E+00 0.23538813E+04</pdfrwt>
<totfact> 0.19402804E+00</totfact>
</mgrwt>
</event>
<event>
 4    1  0.1295381E-008  0.2709018E+04  0.7816531E-02  0.8332085E-01
         -2   -1    0    0    0  501 -0.00000000000E+00  0.00000000000E+00  0.86429054006E+03  0.86429054006E+03  0.00000000000E+00 0. -1.
          2   -1    0    0  501    0  0.00000000000E+00 -0.00000000000E+00 -0.21227746302E+04  0.21227746302E+04  0.00000000000E+00 0.  1.
    2000013    1    1    2    0    0  0.58249412618E+03 -0.28040794104E+03 -0.14199694470E+04  0.18266749166E+04  0.95000000000E+03 0.  0.
   -2000013    1    1    2    0    0 -0.58249412618E+03  0.28040794104E+03  0.16148535683E+03  0.11603902537E+04  0.95000000000E+03 0.  0.
<mgrwt>
<rscale>  0 0.27090176E+04</rscale>
<asrwt>0</asrwt>
<pdfrwt beam="2">  1        2 0.32658071E+00 0.27090176E+04</pdfrwt>
<pdfrwt beam="1">  1       -2 0.13296778E+00 0.27090176E+04</pdfrwt>
<totfact> 0.20512778E+00</totfact>
</mgrwt>
</event>
<event>
 4    1  0.1295381E-008  0.2810974E+04  0.7816531E-02  0.8299869E-01
          2   -1    0    0  501    0  0.00000000000E+00  0.00000000000E+00  0.31058629980E+04  0.31058629980E+04  0.00000000000E+00 0.  1.
         -2   -1    0    0    0  501 -0.00000000000E+00 -0.00000000000E+00 -0.63602100405E+03  0.63602100405E+03  0.00000000000E+00 0. -1.
    2000013    1    1    2    0    0 -0.78678379106E+03 -0.65402173096E+03  0.10197776692E+04  0.17289359887E+04  0.95000000000E+03 0.  0.
   -2000013    1    1    2    0    0  0.78678379106E+03  0.65402173096E+03  0.14500643248E+04  0.20129480134E+04  0.95000000000E+03 0.  0.
<mgrwt>
<rscale>  0 0.28109743E+04</rscale>
<asrwt>0</asrwt>
<pdfrwt beam="1">  1        2 0.47782507E+00 0.28109743E+04</pdfrwt>
<pdfrwt beam="2">  1       -2 0.97849387E-01 0.28109743E+04</pdfrwt>
<totfact> 0.11273475E+00</totfact>
</mgrwt>
</event>
<event>
 4    1  0.1295381E-008  0.2673405E+04  0.7816531E-02  0.8343686E-01
         -2   -1    0    0    0  501 -0.00000000000E+00  0.00000000000E+00  0.12672952543E+04  0.12672952543E+04  0.00000000000E+00 0. -1.
          2   -1    0    0  501    0  0.00000000000E+00 -0.00000000000E+00 -0.14099105930E+04  0.14099105930E+04  0.00000000000E+00 0.  1.
    2000013    1    1    2    0    0 -0.42680898590E+03  0.62589464771E+03  0.48658677533E+03  0.13088837650E+04  0.95000000000E+03 0.  0.
   -2000013    1    1    2    0    0  0.42680898590E+03 -0.62589464771E+03 -0.62920211405E+03  0.13683220823E+04  0.95000000000E+03 0.  0.
<mgrwt>
<rscale>  0 0.26734046E+04</rscale>
<asrwt>0</asrwt>
<pdfrwt beam="2">  1        2 0.21690932E+00 0.26734046E+04</pdfrwt>
<pdfrwt beam="1">  1       -2 0.19496850E+00 0.26734046E+04</pdfrwt>
<totfact> 0.18032880E+00</totfact>
</mgrwt>
</event>
<event>
 4    1  0.1295381E-008  0.2594671E+04  0.7816531E-02  0.8370014E-01
          2   -1    0    0  501    0  0.00000000000E+00  0.00000000000E+00  0.12003365807E+04  0.12003365807E+04  0.00000000000E+00 0.  1.
         -2   -1    0    0    0  501 -0.00000000000E+00 -0.00000000000E+00 -0.14021726686E+04  0.14021726686E+04  0.00000000000E+00 0. -1.
    2000013    1    1    2    0    0  0.63081810429E+03  0.48899193024E+03 -0.48092211976E+03  0.13307256193E+04  0.95000000000E+03 0.  0.
   -2000013    1    1    2    0    0 -0.63081810429E+03 -0.48899193024E+03  0.27908603181E+03  0.12717836301E+04  0.95000000000E+03 0.  0.
<mgrwt>
<rscale>  0 0.25946708E+04</rscale>
<asrwt>0</asrwt>
<pdfrwt beam="1">  1        2 0.18466717E+00 0.25946708E+04</pdfrwt>
<pdfrwt beam="2">  1       -2 0.21571887E+00 0.25946708E+04</pdfrwt>
<totfact> 0.17629932E+00</totfact>
</mgrwt>
</event>
<event>
 4    1  0.1295381E-008  0.3888720E+04  0.7816531E-02  0.8027379E-01
         -2   -1    0    0    0  501 -0.00000000000E+00  0.00000000000E+00  0.29476222834E+04  0.29476222834E+04  0.00000000000E+00 0. -1.
          2   -1    0    0  501    0  0.00000000000E+00 -0.00000000000E+00 -0.12825714081E+04  0.12825714081E+04  0.00000000000E+00 0.  1.
    2000013    1    1    2    0    0 -0.66186947403E+03 -0.14352589770E+04  0.16195657883E+03  0.18511535499E+04  0.95000000000E+03 0.  0.
   -2000013    1    1    2    0    0  0.66186947403E+03  0.14352589770E+04  0.15030942965E+04  0.23790401417E+04  0.95000000000E+03 0.  0.
<mgrwt>
<rscale>  0 0.38887201E+04</rscale>
<asrwt>0</asrwt>
<pdfrwt beam="2">  1        2 0.19731868E+00 0.38887201E+04</pdfrwt>
<pdfrwt beam="1">  1       -2 0.45348035E+00 0.38887201E+04</pdfrwt>
<totfact> 0.44335742E-02</totfact>
</mgrwt>
</event>
<event>
 4    1  0.1295381E-008  0.2759560E+04  0.7816531E-02  0.8315934E-01
          2   -1    0    0  501    0  0.00000000000E+00  0.00000000000E+00  0.19939817612E+04  0.19939817612E+04  0.00000000000E+00 0.  1.
         -2   -1    0    0    0  501 -0.00000000000E+00 -0.00000000000E+00 -0.95476954937E+03  0.95476954937E+03  0.00000000000E+00 0. -1.
    2000013    1    1    2    0    0 -0.62103976328E+03 -0.19408745759E+03 -0.29273219319E+03  0.11880877348E+04  0.95000000000E+03 0.  0.
   -2000013    1    1    2    0    0  0.62103976328E+03  0.19408745759E+03  0.13319444050E+04  0.17606635757E+04  0.95000000000E+03 0.  0.
<mgrwt>
<rscale>  0 0.27595602E+04</rscale>
<asrwt>0</asrwt>
<pdfrwt beam="1">  1        2 0.30676642E+00 0.27595602E+04</pdfrwt>
<pdfrwt beam="2">  1       -2 0.14688762E+00 0.27595602E+04</pdfrwt>
<totfact> 0.18617750E+00</totfact>
</mgrwt>
</event>
<event>
 4    1  0.1295381E-008  0.2777777E+04  0.7816531E-02  0.8310201E-01
          2   -1    0    0  501    0  0.00000000000E+00  0.00000000000E+00  0.36722310817E+04  0.36722310817E+04  0.00000000000E+00 0.  1.
         -2   -1    0    0    0  501 -0.00000000000E+00 -0.00000000000E+00 -0.52529683837E+03  0.52529683837E+03  0.00000000000E+00 0. -1.
    2000013    1    1    2    0    0 -0.70364734767E+03 -0.20388286904E+03  0.26310539660E+04  0.28916488006E+04  0.95000000000E+03 0.  0.
   -2000013    1    1    2    0    0  0.70364734767E+03  0.20388286904E+03  0.51588027740E+03  0.13058791195E+04  0.95000000000E+03 0.  0.
<mgrwt>
<rscale>  0 0.27777771E+04</rscale>
<asrwt>0</asrwt>
<pdfrwt beam="1">  1        2 0.56495861E+00 0.27777771E+04</pdfrwt>
<pdfrwt beam="2">  1       -2 0.80814901E-01 0.27777771E+04</pdfrwt>
<totfact> 0.72074168E-01</totfact>
</mgrwt>
</event>
<event>
 4    1  0.1295381E-008  0.2339720E+04  0.7816531E-02  0.8462423E-01
         -2   -1    0    0    0  501 -0.00000000000E+00  0.00000000000E+00  0.26666343955E+04  0.26666343955E+04  0.00000000000E+00 0. -1.
          2   -1    0    0  501    0  0.00000000000E+00 -0.00000000000E+00 -0.51322090497E+03  0.51322090497E+03  0.00000000000E+00 0.  1.
    2000013    1    1    2    0    0  0.34884081964E+03  0.56781085813E+03  0.12781683916E+04  0.17263584579E+04  0.95000000000E+03 0.  0.
   -2000013    1    1    2    0    0 -0.34884081964E+03 -0.56781085813E+03  0.87524509901E+03  0.14534968426E+04  0.95000000000E+03 0.  0.
<mgrwt>
<rscale>  0 0.23397201E+04</rscale>
<asrwt>0</asrwt>
<pdfrwt beam="2">  1        2 0.78957064E-01 0.23397201E+04</pdfrwt>
<pdfrwt beam="1">  1       -2 0.41025144E+00 0.23397201E+04</pdfrwt>
<totfact> 0.34344317E-01</totfact>
</mgrwt>
</event>
<event>
 4    1  0.1295381E-008  0.2398337E+04  0.7816531E-02  0.8440126E-01
         -2   -1    0    0    0  501 -0.00000000000E+00  0.00000000000E+00  0.13749597094E+04  0.13749597094E+04  0.00000000000E+00 0. -1.
          2   -1    0    0  501    0  0.00000000000E+00 -0.00000000000E+00 -0.10458526690E+04  0.10458526690E+04  0.00000000000E+00 0.  1.
    2000013    1    1    2    0    0  0.48837509868E+03  0.44537705189E+02 -0.38368597898E+03  0.11358735734E+04  0.95000000000E+03 0.  0.
   -2000013    1    1    2    0    0 -0.48837509868E+03 -0.44537705189E+02  0.71279301934E+03  0.12849388050E+04  0.95000000000E+03 0.  0.
<mgrwt>
<rscale>  0 0.23983372E+04</rscale>
<asrwt>0</asrwt>
<pdfrwt beam="2">  1        2 0.16090041E+00 0.23983372E+04</pdfrwt>
<pdfrwt beam="1">  1       -2 0.21153226E+00 0.23983372E+04</pdfrwt>
<totfact> 0.23703821E+00</totfact>
</mgrwt>
</event>
<event>
 4    1  0.1295381E-008  0.2081837E+04  0.7816531E-02  0.8569287E-01
         -2   -1    0    0    0  501 -0.00000000000E+00  0.00000000000E+00  0.54478069744E+03  0.54478069744E+03  0.00000000000E+00 0. -1.
          2   -1    0    0  501    0  0.00000000000E+00 -0.00000000000E+00 -0.19888947168E+04  0.19888947168E+04  0.00000000000E+00 0.  1.
    2000013    1    1    2    0    0 -0.34032287264E+03  0.24256801868E+03 -0.81905846742E+03  0.13221254382E+04  0.95000000000E+03 0.  0.
   -2000013    1    1    2    0    0  0.34032287264E+03 -0.24256801868E+03 -0.62505555189E+03  0.12115499760E+04  0.95000000000E+03 0.  0.
<mgrwt>
<rscale>  0 0.20818371E+04</rscale>
<asrwt>0</asrwt>
<pdfrwt beam="2">  1        2 0.30598380E+00 0.20818371E+04</pdfrwt>
<pdfrwt beam="1">  1       -2 0.83812416E-01 0.20818371E+04</pdfrwt>
<totfact> 0.77807191E+00</totfact>
</mgrwt>
</event>
<event>
 4    1  0.1295381E-008  0.3053570E+04  0.7816531E-02  0.8228597E-01
         -2   -1    0    0    0  501 -0.00000000000E+00  0.00000000000E+00  0.20233078915E+04  0.20233078915E+04  0.00000000000E+00 0.  1.
          2   -1    0    0  501    0  0.00000000000E+00 -0.00000000000E+00 -0.11521094764E+04  0.11521094764E+04  0.00000000000E+00 0. -1.
    2000013    1    1    2    0    0  0.74110497471E+03 -0.91760310176E+03  0.23465243169E+03  0.15325775020E+04  0.95000000000E+03 0.  0.
   -2000013    1    1    2    0    0 -0.74110497471E+03  0.91760310176E+03  0.63654598348E+03  0.16428398659E+04  0.95000000000E+03 0.  0.
<mgrwt>
<rscale>  0 0.30535698E+04</rscale>
<asrwt>0</asrwt>
<pdfrwt beam="2">  1        2 0.17724761E+00 0.30535698E+04</pdfrwt>
<pdfrwt beam="1">  1       -2 0.31127814E+00 0.30535698E+04</pdfrwt>
<totfact> 0.46747594E-01</totfact>
</mgrwt>
</event>
<event>
 4    1  0.1295381E-008  0.2310573E+04  0.7816531E-02  0.8473764E-01
         -3   -1    0    0    0  501 -0.00000000000E+00  0.00000000000E+00  0.12309030903E+04  0.12309030903E+04  0.00000000000E+00 0.  1.
          3   -1    0    0  501    0  0.00000000000E+00 -0.00000000000E+00 -0.10843150387E+04  0.10843150387E+04  0.00000000000E+00 0. -1.
    2000013    1    1    2    0    0 -0.15385533887E+03 -0.17930488766E+03 -0.54142531265E+03  0.11186881054E+04  0.95000000000E+03 0.  0.
   -2000013    1    1    2    0    0  0.15385533887E+03  0.17930488766E+03  0.68801336423E+03  0.11965300236E+04  0.95000000000E+03 0.  0.
<mgrwt>
<rscale>  0 0.23105729E+04</rscale>
<asrwt>0</asrwt>
<pdfrwt beam="2">  1        3 0.16681770E+00 0.23105729E+04</pdfrwt>
<pdfrwt beam="1">  1       -3 0.18936971E+00 0.23105729E+04</pdfrwt>
<totfact> 0.98936278E-02</totfact>
</mgrwt>
</event>
<event>
 4    1  0.1295381E-008  0.2806049E+04  0.7816531E-02  0.8301393E-01
         -2   -1    0    0    0  501 -0.00000000000E+00  0.00000000000E+00  0.13450331528E+04  0.13450331528E+04  0.00000000000E+00 0. -1.
          2   -1    0    0  501    0  0.00000000000E+00 -0.00000000000E+00 -0.14635160930E+04  0.14635160930E+04  0.00000000000E+00 0.  1.
    2000013    1    1    2    0    0  0.10262944950E+04  0.13486164718E+02 -0.17121339045E+03  0.14089983294E+04  0.95000000000E+03 0.  0.
   -2000013    1    1    2    0    0 -0.10262944950E+04 -0.13486164718E+02  0.52730450344E+02  0.13995509164E+04  0.95000000000E+03 0.  0.
<mgrwt>
<rscale>  0 0.28060489E+04</rscale>
<asrwt>0</asrwt>
<pdfrwt beam="2">  1        2 0.22515632E+00 0.28060489E+04</pdfrwt>
<pdfrwt beam="1">  1       -2 0.20692818E+00 0.28060489E+04</pdfrwt>
<totfact> 0.13878682E+00</totfact>
</mgrwt>
</event>
<event>
 4    1  0.1295381E-008  0.2350707E+04  0.7816531E-02  0.8458192E-01
         -2   -1    0    0    0  501 -0.00000000000E+00  0.00000000000E+00  0.15161257049E+04  0.15161257049E+04  0.00000000000E+00 0. -1.
          2   -1    0    0  501    0  0.00000000000E+00 -0.00000000000E+00 -0.91117508563E+03  0.91117508563E+03  0.00000000000E+00 0.  1.
    2000013    1    1    2    0    0 -0.66981860896E+03 -0.11009544134E+03  0.16325645559E+03  0.11789531990E+04  0.95000000000E+03 0.  0.
   -2000013    1    1    2    0    0  0.66981860896E+03  0.11009544134E+03  0.44169416368E+03  0.12483475916E+04  0.95000000000E+03 0.  0.
<mgrwt>
<rscale>  0 0.23507071E+04</rscale>
<asrwt>0</asrwt>
<pdfrwt beam="2">  1        2 0.14018078E+00 0.23507071E+04</pdfrwt>
<pdfrwt beam="1">  1       -2 0.23325011E+00 0.23507071E+04</pdfrwt>
<totfact> 0.21222747E+00</totfact>
</mgrwt>
</event>
<event>
 4    1  0.1295381E-008  0.2578056E+04  0.7816531E-02  0.8375693E-01
         -2   -1    0    0    0  501 -0.00000000000E+00  0.00000000000E+00  0.60098418961E+03  0.60098418961E+03  0.00000000000E+00 0. -1.
          2   -1    0    0  501    0  0.00000000000E+00 -0.00000000000E+00 -0.27647877267E+04  0.27647877267E+04  0.00000000000E+00 0.  1.
    2000013    1    1    2    0    0  0.51822242198E+03  0.42366781396E+03 -0.35378044358E+03  0.12147878405E+04  0.95000000000E+03 0.  0.
   -2000013    1    1    2    0    0 -0.51822242198E+03 -0.42366781396E+03 -0.18100230935E+04  0.21509840758E+04  0.95000000000E+03 0.  0.
<mgrwt>
<rscale>  0 0.25780564E+04</rscale>
<asrwt>0</asrwt>
<pdfrwt beam="2">  1        2 0.42535196E+00 0.25780564E+04</pdfrwt>
<pdfrwt beam="1">  1       -2 0.92459107E-01 0.25780564E+04</pdfrwt>
<totfact> 0.21361752E+00</totfact>
</mgrwt>
</event>
<event>
 4    1  0.1295381E-008  0.4104281E+04  0.7816531E-02  0.7983834E-01
          2   -1    0    0  501    0  0.00000000000E+00  0.00000000000E+00  0.18297795657E+04  0.18297795657E+04  0.00000000000E+00 0.  1.
         -2   -1    0    0    0  501 -0.00000000000E+00 -0.00000000000E+00 -0.23015230890E+04  0.23015230890E+04  0.00000000000E+00 0. -1.
    2000013    1    1    2    0    0  0.12072227895E+04 -0.81121850532E+03  0.86371115303E+03  0.19400925965E+04  0.95000000000E+03 0.  0.
   -2000013    1    1    2    0    0 -0.12072227895E+04  0.81121850532E+03 -0.13354546764E+04  0.21912100583E+04  0.95000000000E+03 0.  0.
<mgrwt>
<rscale>  0 0.41042807E+04</rscale>
<asrwt>0</asrwt>
<pdfrwt beam="1">  1        2 0.28150455E+00 0.41042807E+04</pdfrwt>
<pdfrwt beam="2">  1       -2 0.35408047E+00 0.41042807E+04</pdfrwt>
<totfact> 0.95250181E-02</totfact>
</mgrwt>
</event>
<event>
 4    1  0.1295381E-008  0.3497959E+04  0.7816531E-02  0.8114274E-01
          2   -1    0    0  501    0  0.00000000000E+00  0.00000000000E+00  0.25483181557E+04  0.25483181557E+04  0.00000000000E+00 0.  1.
         -2   -1    0    0    0  501 -0.00000000000E+00 -0.00000000000E+00 -0.12003716278E+04  0.12003716278E+04  0.00000000000E+00 0. -1.
    2000013    1    1    2    0    0  0.66277304227E+03  0.94520468645E+03 -0.29868934575E+03  0.15245967762E+04  0.95000000000E+03 0.  0.
   -2000013    1    1    2    0    0 -0.66277304227E+03 -0.94520468645E+03  0.16466358736E+04  0.22240930073E+04  0.95000000000E+03 0.  0.
<mgrwt>
<rscale>  0 0.34979587E+04</rscale>
<asrwt>0</asrwt>
<pdfrwt beam="1">  1        2 0.39204895E+00 0.34979587E+04</pdfrwt>
<pdfrwt beam="2">  1       -2 0.18467256E+00 0.34979587E+04</pdfrwt>
<totfact> 0.45155255E-01</totfact>
</mgrwt>
</event>
<event>
 4    1  0.1295381E-008  0.3069860E+04  0.7816531E-02  0.8224058E-01
          1   -1    0    0  501    0  0.00000000000E+00  0.00000000000E+00  0.16824104614E+04  0.16824104614E+04  0.00000000000E+00 0.  1.
         -1   -1    0    0    0  501 -0.00000000000E+00 -0.00000000000E+00 -0.14003779347E+04  0.14003779347E+04  0.00000000000E+00 0. -1.
    2000013    1    1    2    0    0 -0.53977764918E+03 -0.50561706430E+03  0.10971298381E+04  0.16288653744E+04  0.95000000000E+03 0.  0.
   -2000013    1    1    2    0    0  0.53977764918E+03  0.50561706430E+03 -0.81509731134E+03  0.14539230218E+04  0.95000000000E+03 0.  0.
<mgrwt>
<rscale>  0 0.30698602E+04</rscale>
<asrwt>0</asrwt>
<pdfrwt beam="1">  1        1 0.25883238E+00 0.30698602E+04</pdfrwt>
<pdfrwt beam="2">  1       -1 0.21544276E+00 0.30698602E+04</pdfrwt>
<totfact> 0.48956013E-01</totfact>
</mgrwt>
</event>
<event>
 4    1  0.1295381E-008  0.2042766E+04  0.7816531E-02  0.8586883E-01
         -2   -1    0    0    0  501 -0.00000000000E+00  0.00000000000E+00  0.10964676685E+04  0.10964676685E+04  0.00000000000E+00 0. -1.
          2   -1    0    0  501    0  0.00000000000E+00 -0.00000000000E+00 -0.95144016498E+03  0.95144016498E+03  0.00000000000E+00 0.  1.
    2000013    1    1    2    0    0  0.37018395875E+03  0.34092343437E+02  0.12288889295E+03  0.10275213532E+04  0.95000000000E+03 0.  0.
   -2000013    1    1    2    0    0 -0.37018395875E+03 -0.34092343437E+02  0.22138610596E+02  0.10203864803E+04  0.95000000000E+03 0.  0.
<mgrwt>
<rscale>  0 0.20427661E+04</rscale>
<asrwt>0</asrwt>
<pdfrwt beam="2">  1        2 0.14637541E+00 0.20427661E+04</pdfrwt>
<pdfrwt beam="1">  1       -2 0.16868733E+00 0.20427661E+04</pdfrwt>
<totfact> 0.54609993E+00</totfact>
</mgrwt>
</event>
<event>
 4    1  0.1295381E-008  0.1932980E+04  0.7816531E-02  0.8638612E-01
          2   -1    0    0  501    0  0.00000000000E+00  0.00000000000E+00  0.15194084025E+04  0.15194084025E+04  0.00000000000E+00 0.  1.
         -2   -1    0    0    0  501 -0.00000000000E+00 -0.00000000000E+00 -0.61478041402E+03  0.61478041402E+03  0.00000000000E+00 0. -1.
    2000013    1    1    2    0    0 -0.72122323910E+02 -0.10742352321E+03  0.31771840982E+03  0.10100427867E+04  0.95000000000E+03 0.  0.
   -2000013    1    1    2    0    0  0.72122323910E+02  0.10742352321E+03  0.58690957867E+03  0.11241460299E+04  0.95000000000E+03 0.  0.
<mgrwt>
<rscale>  0 0.19329796E+04</rscale>
<asrwt>0</asrwt>
<pdfrwt beam="1">  1        2 0.23375514E+00 0.19329796E+04</pdfrwt>
<pdfrwt beam="2">  1       -2 0.94581602E-01 0.19329796E+04</pdfrwt>
<totfact> 0.10888194E+01</totfact>
</mgrwt>
</event>
<event>
 4    1  0.1295381E-008  0.2526504E+04  0.7816531E-02  0.8393604E-01
          2   -1    0    0  501    0  0.00000000000E+00  0.00000000000E+00  0.21335325799E+04  0.21335325799E+04  0.00000000000E+00 0.  1.
         -2   -1    0    0    0  501 -0.00000000000E+00 -0.00000000000E+00 -0.74796396429E+03  0.74796396429E+03  0.00000000000E+00 0. -1.
    2000013    1    1    2    0    0 -0.24640906242E+03 -0.67591305179E+03  0.21468226526E+03  0.12108527386E+04  0.95000000000E+03 0.  0.
   -2000013    1    1    2    0    0  0.24640906242E+03  0.67591305179E+03  0.11708863504E+04  0.16706438056E+04  0.95000000000E+03 0.  0.
<mgrwt>
<rscale>  0 0.25265039E+04</rscale>
<asrwt>0</asrwt>
<pdfrwt beam="1">  1        2 0.32823578E+00 0.25265039E+04</pdfrwt>
<pdfrwt beam="2">  1       -2 0.11507138E+00 0.25265039E+04</pdfrwt>
<totfact> 0.29482371E+00</totfact>
</mgrwt>
</event>
<event>
 4    1  0.1295381E-008  0.2178512E+04  0.7816531E-02  0.8527425E-01
         -2   -1    0    0    0  501 -0.00000000000E+00  0.00000000000E+00  0.66161217948E+03  0.66161217948E+03  0.00000000000E+00 0. -1.
          2   -1    0    0  501    0  0.00000000000E+00 -0.00000000000E+00 -0.17933149256E+04  0.17933149256E+04  0.00000000000E+00 0.  1.
    2000013    1    1    2    0    0  0.99625032881E+02 -0.44561113376E+03 -0.87545615606E+03  0.13701890055E+04  0.95000000000E+03 0.  0.
   -2000013    1    1    2    0    0 -0.99625032881E+02  0.44561113376E+03 -0.25624659006E+03  0.10847380996E+04  0.95000000000E+03 0.  0.
<mgrwt>
<rscale>  0 0.21785123E+04</rscale>
<asrwt>0</asrwt>
<pdfrwt beam="2">  1        2 0.27589460E+00 0.21785123E+04</pdfrwt>
<pdfrwt beam="1">  1       -2 0.10178649E+00 0.21785123E+04</pdfrwt>
<totfact> 0.63105589E+00</totfact>
</mgrwt>
</event>
<event>
 4    1  0.1295381E-008  0.2918214E+04  0.7816531E-02  0.8267479E-01
         -2   -1    0    0    0  501 -0.00000000000E+00  0.00000000000E+00  0.10727319047E+04  0.10727319047E+04  0.00000000000E+00 0. -1.
          2   -1    0    0  501    0  0.00000000000E+00 -0.00000000000E+00 -0.19846462902E+04  0.19846462902E+04  0.00000000000E+00 0.  1.
    2000013    1    1    2    0    0  0.10472018267E+04  0.24577425702E+03 -0.17984268857E+03  0.14463333101E+04  0.95000000000E+03 0.  0.
   -2000013    1    1    2    0    0 -0.10472018267E+04 -0.24577425702E+03 -0.73207169690E+03  0.16110448848E+04  0.95000000000E+03 0.  0.
<mgrwt>
<rscale>  0 0.29182141E+04</rscale>
<asrwt>0</asrwt>
<pdfrwt beam="2">  1        2 0.30533019E+00 0.29182141E+04</pdfrwt>
<pdfrwt beam="1">  1       -2 0.16503568E+00 0.29182141E+04</pdfrwt>
<totfact> 0.13588068E+00</totfact>
</mgrwt>
</event>
<event>
 4    1  0.1295381E-008  0.2136295E+04  0.7816531E-02  0.8545422E-01
          2   -1    0    0  501    0  0.00000000000E+00  0.00000000000E+00  0.18577363306E+04  0.18577363306E+04  0.00000000000E+00 0.  1.
         -2   -1    0    0    0  501 -0.00000000000E+00 -0.00000000000E+00 -0.61415532975E+03  0.61415532975E+03  0.00000000000E+00 0. -1.
    2000013    1    1    2    0    0  0.14473539755E+03  0.16405538694E+03  0.11666118152E+03  0.98182092897E+03  0.95000000000E+03 0.  0.
   -2000013    1    1    2    0    0 -0.14473539755E+03 -0.16405538694E+03  0.11269198193E+04  0.14900707314E+04  0.95000000000E+03 0.  0.
<mgrwt>
<rscale>  0 0.21362946E+04</rscale>
<asrwt>0</asrwt>
<pdfrwt beam="1">  1        2 0.28580559E+00 0.21362946E+04</pdfrwt>
<pdfrwt beam="2">  1       -2 0.94485436E-01 0.21362946E+04</pdfrwt>
<totfact> 0.69510579E+00</totfact>
</mgrwt>
</event>
<event>
 4    1  0.1295381E-008  0.3043076E+04  0.7816531E-02  0.8231536E-01
          2   -1    0    0  501    0  0.00000000000E+00  0.00000000000E+00  0.21754519725E+04  0.21754519725E+04  0.00000000000E+00 0.  1.
         -2   -1    0    0    0  501 -0.00000000000E+00 -0.00000000000E+00 -0.10641821989E+04  0.10641821989E+04  0.00000000000E+00 0. -1.
    2000013    1    1    2    0    0  0.70539199497E+03  0.63785684265E+03 -0.20324682509E+03  0.13595030306E+04  0.95000000000E+03 0.  0.
   -2000013    1    1    2    0    0 -0.70539199497E+03 -0.63785684265E+03  0.13145165987E+04  0.18801311408E+04  0.95000000000E+03 0.  0.
<mgrwt>
<rscale>  0 0.30430756E+04</rscale>
<asrwt>0</asrwt>
<pdfrwt beam="1">  1        2 0.33468492E+00 0.30430756E+04</pdfrwt>
<pdfrwt beam="2">  1       -2 0.16372034E+00 0.30430756E+04</pdfrwt>
<totfact> 0.10755153E+00</totfact>
</mgrwt>
</event>
<event>
 4    1  0.1295381E-008  0.2537592E+04  0.7816531E-02  0.8389714E-01
          2   -1    0    0  501    0  0.00000000000E+00  0.00000000000E+00  0.19268783113E+04  0.19268783113E+04  0.00000000000E+00 0.  1.
         -2   -1    0    0    0  501 -0.00000000000E+00 -0.00000000000E+00 -0.83546690397E+03  0.83546690397E+03  0.00000000000E+00 0. -1.
    2000013    1    1    2    0    0  0.24448937175E+03 -0.62233089863E+03  0.11010599871E+04  0.16005948568E+04  0.95000000000E+03 0.  0.
   -2000013    1    1    2    0    0 -0.24448937175E+03  0.62233089863E+03 -0.96485798192E+01  0.11617503585E+04  0.95000000000E+03 0.  0.
<mgrwt>
<rscale>  0 0.25375918E+04</rscale>
<asrwt>0</asrwt>
<pdfrwt beam="1">  1        2 0.29644282E+00 0.25375918E+04</pdfrwt>
<pdfrwt beam="2">  1       -2 0.12853337E+00 0.25375918E+04</pdfrwt>
<totfact> 0.29158337E+00</totfact>
</mgrwt>
</event>
<event>
 4    1  0.1295381E-008  0.2806600E+04  0.7816531E-02  0.8301222E-01
         -2   -1    0    0    0  501 -0.00000000000E+00  0.00000000000E+00  0.10842367991E+04  0.10842367991E+04  0.00000000000E+00 0. -1.
          2   -1    0    0  501    0  0.00000000000E+00 -0.00000000000E+00 -0.18162558098E+04  0.18162558098E+04  0.00000000000E+00 0.  1.
    2000013    1    1    2    0    0  0.79118380504E+03  0.33659235511E+03  0.22539822797E+03  0.13009883120E+04  0.95000000000E+03 0.  0.
   -2000013    1    1    2    0    0 -0.79118380504E+03 -0.33659235511E+03 -0.95741723867E+03  0.15995042969E+04  0.95000000000E+03 0.  0.
<mgrwt>
<rscale>  0 0.28066004E+04</rscale>
<asrwt>0</asrwt>
<pdfrwt beam="2">  1        2 0.27942397E+00 0.28066004E+04</pdfrwt>
<pdfrwt beam="1">  1       -2 0.16680566E+00 0.28066004E+04</pdfrwt>
<totfact> 0.16515024E+00</totfact>
</mgrwt>
</event>
<event>
 4    1  0.1295381E-008  0.2757433E+04  0.7816531E-02  0.8316607E-01
         -2   -1    0    0    0  501 -0.00000000000E+00  0.00000000000E+00  0.10303196636E+04  0.10303196636E+04  0.00000000000E+00 0. -1.
          2   -1    0    0  501    0  0.00000000000E+00 -0.00000000000E+00 -0.18449221486E+04  0.18449221486E+04  0.00000000000E+00 0.  1.
    2000013    1    1    2    0    0  0.52241350374E+03  0.82467067210E+03 -0.62938427062E+03  0.15005406181E+04  0.95000000000E+03 0.  0.
   -2000013    1    1    2    0    0 -0.52241350374E+03 -0.82467067210E+03 -0.18521821437E+03  0.13747011942E+04  0.95000000000E+03 0.  0.
<mgrwt>
<rscale>  0 0.27574333E+04</rscale>
<asrwt>0</asrwt>
<pdfrwt beam="2">  1        2 0.28383418E+00 0.27574333E+04</pdfrwt>
<pdfrwt beam="1">  1       -2 0.15851072E+00 0.27574333E+04</pdfrwt>
<totfact> 0.18384229E+00</totfact>
</mgrwt>
</event>
<event>
 4    1  0.1295381E-008  0.2487594E+04  0.7816531E-02  0.8407419E-01
         -2   -1    0    0    0  501 -0.00000000000E+00  0.00000000000E+00  0.13474605950E+04  0.13474605950E+04  0.00000000000E+00 0. -1.
          2   -1    0    0  501    0  0.00000000000E+00 -0.00000000000E+00 -0.11481083380E+04  0.11481083380E+04  0.00000000000E+00 0.  1.
    2000013    1    1    2    0    0  0.61285597168E+03  0.10136663983E+03  0.60989597424E+03  0.12885420975E+04  0.95000000000E+03 0.  0.
   -2000013    1    1    2    0    0 -0.61285597168E+03 -0.10136663983E+03 -0.41054371723E+03  0.12070268354E+04  0.95000000000E+03 0.  0.
<mgrwt>
<rscale>  0 0.24875938E+04</rscale>
<asrwt>0</asrwt>
<pdfrwt beam="2">  1        2 0.17663205E+00 0.24875938E+04</pdfrwt>
<pdfrwt beam="1">  1       -2 0.20730163E+00 0.24875938E+04</pdfrwt>
<totfact> 0.21660260E+00</totfact>
</mgrwt>
</event>
<event>
 4    1  0.1295381E-008  0.4817907E+04  0.7816531E-02  0.7857228E-01
         -2   -1    0    0    0  501 -0.00000000000E+00  0.00000000000E+00  0.18620842272E+04  0.18620842272E+04  0.00000000000E+00 0. -1.
          2   -1    0    0  501    0  0.00000000000E+00 -0.00000000000E+00 -0.31164309627E+04  0.31164309627E+04  0.00000000000E+00 0.  1.
    2000013    1    1    2    0    0 -0.12980689542E+04  0.11877039252E+04 -0.20154371882E+04  0.28390334066E+04  0.95000000000E+03 0.  0.
   -2000013    1    1    2    0    0  0.12980689542E+04 -0.11877039252E+04  0.76109045275E+03  0.21394817833E+04  0.95000000000E+03 0.  0.
<mgrwt>
<rscale>  0 0.48179070E+04</rscale>
<asrwt>0</asrwt>
<pdfrwt beam="2">  1        2 0.47945091E+00 0.48179070E+04</pdfrwt>
<pdfrwt beam="1">  1       -2 0.28647450E+00 0.48179070E+04</pdfrwt>
<totfact> 0.41682258E-02</totfact>
</mgrwt>
</event>
<event>
 4    1  0.1295381E-008  0.2371090E+04  0.7816531E-02  0.8450407E-01
         -2   -1    0    0    0  501 -0.00000000000E+00  0.00000000000E+00  0.12961150373E+04  0.12961150373E+04  0.00000000000E+00 0. -1.
          2   -1    0    0  501    0  0.00000000000E+00 -0.00000000000E+00 -0.10844072904E+04  0.10844072904E+04  0.00000000000E+00 0.  1.
    2000013    1    1    2    0    0  0.69854189122E+03  0.30171697271E+02 -0.13554087116E+02  0.11796418178E+04  0.95000000000E+03 0.  0.
   -2000013    1    1    2    0    0 -0.69854189122E+03 -0.30171697271E+02  0.22526183402E+03  0.12008805099E+04  0.95000000000E+03 0.  0.
<mgrwt>
<rscale>  0 0.23710897E+04</rscale>
<asrwt>0</asrwt>
<pdfrwt beam="2">  1        2 0.16683189E+00 0.23710897E+04</pdfrwt>
<pdfrwt beam="1">  1       -2 0.19940231E+00 0.23710897E+04</pdfrwt>
<totfact> 0.26944345E+00</totfact>
</mgrwt>
</event>
<event>
 4    1  0.1295381E-008  0.2060250E+04  0.7816531E-02  0.8578959E-01
         -2   -1    0    0    0  501 -0.00000000000E+00  0.00000000000E+00  0.82200701676E+03  0.82200701676E+03  0.00000000000E+00 0.  1.
          2   -1    0    0  501    0  0.00000000000E+00 -0.00000000000E+00 -0.12909344047E+04  0.12909344047E+04  0.00000000000E+00 0. -1.
    2000013    1    1    2    0    0 -0.27384813099E+02  0.29124444239E+03  0.42790692544E+02  0.99493934317E+03  0.95000000000E+03 0.  0.
   -2000013    1    1    2    0    0  0.27384813099E+02 -0.29124444239E+03 -0.51171808052E+03  0.11180020783E+04  0.95000000000E+03 0.  0.
<mgrwt>
<rscale>  0 0.20602496E+04</rscale>
<asrwt>0</asrwt>
<pdfrwt beam="2">  1        2 0.19860529E+00 0.20602496E+04</pdfrwt>
<pdfrwt beam="1">  1       -2 0.12646262E+00 0.20602496E+04</pdfrwt>
<totfact> 0.72056072E+00</totfact>
</mgrwt>
</event>
<event>
 4    1  0.1295381E-008  0.2462464E+04  0.7816531E-02  0.8416481E-01
         -2   -1    0    0    0  501 -0.00000000000E+00  0.00000000000E+00  0.12077061185E+04  0.12077061185E+04  0.00000000000E+00 0. -1.
          2   -1    0    0  501    0  0.00000000000E+00 -0.00000000000E+00 -0.12552165039E+04  0.12552165039E+04  0.00000000000E+00 0.  1.
    2000013    1    1    2    0    0 -0.22345281426E+03  0.74223039931E+03 -0.13600587044E+03  0.12336266545E+04  0.95000000000E+03 0.  0.
   -2000013    1    1    2    0    0  0.22345281426E+03 -0.74223039931E+03  0.88495485097E+02  0.12292959679E+04  0.95000000000E+03 0.  0.
<mgrwt>
<rscale>  0 0.24624643E+04</rscale>
<asrwt>0</asrwt>
<pdfrwt beam="2">  1        2 0.19311023E+00 0.24624643E+04</pdfrwt>
<pdfrwt beam="1">  1       -2 0.18580094E+00 0.24624643E+04</pdfrwt>
<totfact> 0.25998643E+00</totfact>
</mgrwt>
</event>
<event>
 4    1  0.1295381E-008  0.2599497E+04  0.7816531E-02  0.8368372E-01
          2   -1    0    0  501    0  0.00000000000E+00  0.00000000000E+00  0.19377966283E+04  0.19377966283E+04  0.00000000000E+00 0.  1.
         -2   -1    0    0    0  501 -0.00000000000E+00 -0.00000000000E+00 -0.87178696627E+03  0.87178696627E+03  0.00000000000E+00 0. -1.
    2000013    1    1    2    0    0  0.75915843598E+03  0.18669151840E+03  0.80000651764E+02  0.12329133620E+04  0.95000000000E+03 0.  0.
   -2000013    1    1    2    0    0 -0.75915843598E+03 -0.18669151840E+03  0.98600901031E+03  0.15766702326E+04  0.95000000000E+03 0.  0.
<mgrwt>
<rscale>  0 0.25994968E+04</rscale>
<asrwt>0</asrwt>
<pdfrwt beam="1">  1        2 0.29812256E+00 0.25994968E+04</pdfrwt>
<pdfrwt beam="2">  1       -2 0.13412107E+00 0.25994968E+04</pdfrwt>
<totfact> 0.25676362E+00</totfact>
</mgrwt>
</event>
<event>
 4    1  0.1295381E-008  0.1919014E+04  0.7816531E-02  0.8645449E-01
          2   -1    0    0  501    0  0.00000000000E+00  0.00000000000E+00  0.13029114570E+04  0.13029114570E+04  0.00000000000E+00 0.  1.
         -2   -1    0    0    0  501 -0.00000000000E+00 -0.00000000000E+00 -0.70661255505E+03  0.70661255505E+03  0.00000000000E+00 0. -1.
    2000013    1    1    2    0    0 -0.64348832089E+02  0.95302215305E+02  0.22462155216E+03  0.98294360272E+03  0.95000000000E+03 0.  0.
   -2000013    1    1    2    0    0  0.64348832089E+02 -0.95302215305E+02  0.37167734976E+03  0.10265804093E+04  0.95000000000E+03 0.  0.
<mgrwt>
<rscale>  0 0.19190139E+04</rscale>
<asrwt>0</asrwt>
<pdfrwt beam="1">  1        2 0.20044792E+00 0.19190139E+04</pdfrwt>
<pdfrwt beam="2">  1       -2 0.10870962E+00 0.19190139E+04</pdfrwt>
<totfact> 0.10412343E+01</totfact>
</mgrwt>
</event>
<event>
 4    1  0.1295381E-008  0.3408928E+04  0.7816531E-02  0.8135718E-01
          2   -1    0    0  501    0  0.00000000000E+00  0.00000000000E+00  0.21238122981E+04  0.21238122981E+04  0.00000000000E+00 0.  1.
         -2   -1    0    0    0  501 -0.00000000000E+00 -0.00000000000E+00 -0.13679166444E+04  0.13679166444E+04  0.00000000000E+00 0. -1.
    2000013    1    1    2    0    0 -0.79766995768E+03  0.80983025140E+03  0.12413913994E+04  0.19327842621E+04  0.95000000000E+03 0.  0.
   -2000013    1    1    2    0    0  0.79766995768E+03 -0.80983025140E+03 -0.48549574571E+03  0.15589446804E+04  0.95000000000E+03 0.  0.
<mgrwt>
<rscale>  0 0.34089284E+04</rscale>
<asrwt>0</asrwt>
<pdfrwt beam="1">  1        2 0.32674035E+00 0.34089284E+04</pdfrwt>
<pdfrwt beam="2">  1       -2 0.21044871E+00 0.34089284E+04</pdfrwt>
<totfact> 0.53661434E-01</totfact>
</mgrwt>
</event>
<event>
 4    1  0.1295381E-008  0.2793880E+04  0.7816531E-02  0.8305171E-01
          2   -1    0    0  501    0  0.00000000000E+00  0.00000000000E+00  0.20463562807E+04  0.20463562807E+04  0.00000000000E+00 0.  1.
         -2   -1    0    0    0  501 -0.00000000000E+00 -0.00000000000E+00 -0.95361759369E+03  0.95361759369E+03  0.00000000000E+00 0. -1.
    2000013    1    1    2    0    0 -0.46227112531E+03 -0.91316539387E+03  0.50654256991E+03  0.14854800588E+04  0.95000000000E+03 0.  0.
   -2000013    1    1    2    0    0  0.46227112531E+03  0.91316539387E+03  0.58619611709E+03  0.15144938156E+04  0.95000000000E+03 0.  0.
<mgrwt>
<rscale>  0 0.27938800E+04</rscale>
<asrwt>0</asrwt>
<pdfrwt beam="1">  1        2 0.31482404E+00 0.27938800E+04</pdfrwt>
<pdfrwt beam="2">  1       -2 0.14671040E+00 0.27938800E+04</pdfrwt>
<totfact> 0.17414232E+00</totfact>
</mgrwt>
</event>
<event>
 4    1  0.1295381E-008  0.2014962E+04  0.7816531E-02  0.8599657E-01
         -2   -1    0    0    0  501 -0.00000000000E+00  0.00000000000E+00  0.11802388012E+04  0.11802388012E+04  0.00000000000E+00 0. -1.
          2   -1    0    0  501    0  0.00000000000E+00 -0.00000000000E+00 -0.86001048152E+03  0.86001048152E+03  0.00000000000E+00 0.  1.
    2000013    1    1    2    0    0 -0.10236893641E+02 -0.20653200711E+03 -0.10731687223E+03  0.97814987349E+03  0.95000000000E+03 0.  0.
   -2000013    1    1    2    0    0  0.10236893641E+02  0.20653200711E+03  0.42754519189E+03  0.10620994092E+04  0.95000000000E+03 0.  0.
<mgrwt>
<rscale>  0 0.20149618E+04</rscale>
<asrwt>0</asrwt>
<pdfrwt beam="2">  1        2 0.13230930E+00 0.20149618E+04</pdfrwt>
<pdfrwt beam="1">  1       -2 0.18157520E+00 0.20149618E+04</pdfrwt>
<totfact> 0.51232940E+00</totfact>
</mgrwt>
</event>
<event>
 4    1  0.1295381E-008  0.3790102E+04  0.7816531E-02  0.8048282E-01
          2   -1    0    0  501    0  0.00000000000E+00  0.00000000000E+00  0.27789649450E+04  0.27789649450E+04  0.00000000000E+00 0.  1.
         -2   -1    0    0    0  501 -0.00000000000E+00 -0.00000000000E+00 -0.12922863377E+04  0.12922863377E+04  0.00000000000E+00 0. -1.
    2000013    1    1    2    0    0  0.42515427383E+03 -0.15797684955E+04  0.62423714370E+03  0.19921336972E+04  0.95000000000E+03 0.  0.
   -2000013    1    1    2    0    0 -0.42515427383E+03  0.15797684955E+04  0.86244146360E+03  0.20791175854E+04  0.95000000000E+03 0.  0.
<mgrwt>
<rscale>  0 0.37901021E+04</rscale>
<asrwt>0</asrwt>
<pdfrwt beam="1">  1        2 0.42753307E+00 0.37901021E+04</pdfrwt>
<pdfrwt beam="2">  1       -2 0.19881328E+00 0.37901021E+04</pdfrwt>
<totfact> 0.25866328E-01</totfact>
</mgrwt>
</event>
<event>
 4    1  0.1295381E-008  0.2491628E+04  0.7816531E-02  0.8405974E-01
         -2   -1    0    0    0  501 -0.00000000000E+00  0.00000000000E+00  0.38444718493E+03  0.38444718493E+03  0.00000000000E+00 0. -1.
          2   -1    0    0  501    0  0.00000000000E+00 -0.00000000000E+00 -0.40371004635E+04  0.40371004635E+04  0.00000000000E+00 0.  1.
    2000013    1    1    2    0    0  0.70004900887E+03 -0.23743490288E+03 -0.12565071605E+04  0.17400443076E+04  0.95000000000E+03 0.  0.
   -2000013    1    1    2    0    0 -0.70004900887E+03  0.23743490288E+03 -0.23961461180E+04  0.26815033408E+04  0.95000000000E+03 0.  0.
<mgrwt>
<rscale>  0 0.24916275E+04</rscale>
<asrwt>0</asrwt>
<pdfrwt beam="2">  1        2 0.62109241E+00 0.24916275E+04</pdfrwt>
<pdfrwt beam="1">  1       -2 0.59145718E-01 0.24916275E+04</pdfrwt>
<totfact> 0.76315839E-01</totfact>
</mgrwt>
</event>
<event>
 4    1  0.1295381E-008  0.3417855E+04  0.7816531E-02  0.8133538E-01
          2   -1    0    0  501    0  0.00000000000E+00  0.00000000000E+00  0.20060198625E+04  0.20060198625E+04  0.00000000000E+00 0.  1.
         -2   -1    0    0    0  501 -0.00000000000E+00 -0.00000000000E+00 -0.14558350450E+04  0.14558350450E+04  0.00000000000E+00 0. -1.
    2000013    1    1    2    0    0  0.82498509145E+03  0.11551677866E+04  0.22035036802E+03  0.17222274243E+04  0.95000000000E+03 0.  0.
   -2000013    1    1    2    0    0 -0.82498509145E+03 -0.11551677866E+04  0.32983444956E+03  0.17396274832E+04  0.95000000000E+03 0.  0.
<mgrwt>
<rscale>  0 0.34178555E+04</rscale>
<asrwt>0</asrwt>
<pdfrwt beam="1">  1        2 0.30861844E+00 0.34178555E+04</pdfrwt>
<pdfrwt beam="2">  1       -2 0.22397462E+00 0.34178555E+04</pdfrwt>
<totfact> 0.51162562E-01</totfact>
</mgrwt>
</event>
<event>
 4    1  0.1295381E-008  0.2349582E+04  0.7816531E-02  0.8458624E-01
          2   -1    0    0  501    0  0.00000000000E+00  0.00000000000E+00  0.11122831878E+04  0.11122831878E+04  0.00000000000E+00 0.  1.
         -2   -1    0    0    0  501 -0.00000000000E+00 -0.00000000000E+00 -0.12408117723E+04  0.12408117723E+04  0.00000000000E+00 0. -1.
    2000013    1    1    2    0    0 -0.55679451179E+03  0.24649147628E+03  0.26311263391E+03  0.11586657993E+04  0.95000000000E+03 0.  0.
   -2000013    1    1    2    0    0  0.55679451179E+03 -0.24649147628E+03 -0.39164121847E+03  0.11944291608E+04  0.95000000000E+03 0.  0.
<mgrwt>
<rscale>  0 0.23495822E+04</rscale>
<asrwt>0</asrwt>
<pdfrwt beam="1">  1        2 0.17112049E+00 0.23495822E+04</pdfrwt>
<pdfrwt beam="2">  1       -2 0.19089412E+00 0.23495822E+04</pdfrwt>
<totfact> 0.29550378E+00</totfact>
</mgrwt>
</event>
<event>
 4    1  0.1295381E-008  0.2001707E+04  0.7816531E-02  0.8605823E-01
         -2   -1    0    0    0  501 -0.00000000000E+00  0.00000000000E+00  0.26061601505E+03  0.26061601505E+03  0.00000000000E+00 0. -1.
          2   -1    0    0  501    0  0.00000000000E+00 -0.00000000000E+00 -0.38436135038E+04  0.38436135038E+04  0.00000000000E+00 0.  1.
    2000013    1    1    2    0    0 -0.71482165593E+02  0.30670448076E+03 -0.18027096191E+04  0.20619018670E+04  0.95000000000E+03 0.  0.
   -2000013    1    1    2    0    0  0.71482165593E+02 -0.30670448076E+03 -0.17802878697E+04  0.20423276519E+04  0.95000000000E+03 0.  0.
<mgrwt>
<rscale>  0 0.20017065E+04</rscale>
<asrwt>0</asrwt>
<pdfrwt beam="2">  1        2 0.59132514E+00 0.20017065E+04</pdfrwt>
<pdfrwt beam="1">  1       -2 0.40094772E-01 0.20017065E+04</pdfrwt>
<totfact> 0.25088412E+00</totfact>
</mgrwt>
</event>
<event>
 4    1  0.1295381E-008  0.3148488E+04  0.7816531E-02  0.8202555E-01
          2   -1    0    0  501    0  0.00000000000E+00  0.00000000000E+00  0.15623393833E+04  0.15623393833E+04  0.00000000000E+00 0.  1.
         -2   -1    0    0    0  501 -0.00000000000E+00 -0.00000000000E+00 -0.15862389605E+04  0.15862389605E+04  0.00000000000E+00 0. -1.
    2000013    1    1    2    0    0  0.47296861771E+03  0.90718814527E+03  0.71543211891E+03  0.15687679118E+04  0.95000000000E+03 0.  0.
   -2000013    1    1    2    0    0 -0.47296861771E+03 -0.90718814527E+03 -0.73933169609E+03  0.15798104320E+04  0.95000000000E+03 0.  0.
<mgrwt>
<rscale>  0 0.31484876E+04</rscale>
<asrwt>0</asrwt>
<pdfrwt beam="1">  1        2 0.24035990E+00 0.31484876E+04</pdfrwt>
<pdfrwt beam="2">  1       -2 0.24403676E+00 0.31484876E+04</pdfrwt>
<totfact> 0.69244010E-01</totfact>
</mgrwt>
</event>
<event>
 4    1  0.1295381E-008  0.3643652E+04  0.7816531E-02  0.8080565E-01
         -2   -1    0    0    0  501 -0.00000000000E+00  0.00000000000E+00  0.11634544077E+04  0.11634544077E+04  0.00000000000E+00 0. -1.
          2   -1    0    0  501    0  0.00000000000E+00 -0.00000000000E+00 -0.28527542725E+04  0.28527542725E+04  0.00000000000E+00 0.  1.
    2000013    1    1    2    0    0  0.12279732615E+04 -0.93479975377E+03 -0.10502144147E+04  0.20945689837E+04  0.95000000000E+03 0.  0.
   -2000013    1    1    2    0    0 -0.12279732615E+04  0.93479975377E+03 -0.63908545016E+03  0.19216396965E+04  0.95000000000E+03 0.  0.
<mgrwt>
<rscale>  0 0.36436518E+04</rscale>
<asrwt>0</asrwt>
<pdfrwt beam="2">  1        2 0.43888526E+00 0.36436518E+04</pdfrwt>
<pdfrwt beam="1">  1       -2 0.17899299E+00 0.36436518E+04</pdfrwt>
<totfact> 0.32125139E-01</totfact>
</mgrwt>
</event>
<event>
 4    1  0.1295381E-008  0.2136956E+04  0.7816531E-02  0.8545137E-01
          2   -1    0    0  501    0  0.00000000000E+00  0.00000000000E+00  0.16042904438E+04  0.16042904438E+04  0.00000000000E+00 0.  1.
         -2   -1    0    0    0  501 -0.00000000000E+00 -0.00000000000E+00 -0.71161978704E+03  0.71161978704E+03  0.00000000000E+00 0. -1.
    2000013    1    1    2    0    0  0.44273268996E+02 -0.42588088470E+03  0.70236064183E+03  0.12566404106E+04  0.95000000000E+03 0.  0.
   -2000013    1    1    2    0    0 -0.44273268996E+02  0.42588088470E+03  0.19031001490E+03  0.10592698202E+04  0.95000000000E+03 0.  0.
<mgrwt>
<rscale>  0 0.21369556E+04</rscale>
<asrwt>0</asrwt>
<pdfrwt beam="1">  1        2 0.24681391E+00 0.21369556E+04</pdfrwt>
<pdfrwt beam="2">  1       -2 0.10947997E+00 0.21369556E+04</pdfrwt>
<totfact> 0.67727889E+00</totfact>
</mgrwt>
</event>
<event>
 4    1  0.1295381E-008  0.2951116E+04  0.7816531E-02  0.8257830E-01
          2   -1    0    0  501    0  0.00000000000E+00  0.00000000000E+00  0.28929246014E+04  0.28929246014E+04  0.00000000000E+00 0.  1.
         -2   -1    0    0    0  501 -0.00000000000E+00 -0.00000000000E+00 -0.75261926802E+03  0.75261926802E+03  0.00000000000E+00 0. -1.
    2000013    1    1    2    0    0  0.80971915121E+02 -0.96308879304E+03  0.17911701727E+04  0.22460826035E+04  0.95000000000E+03 0.  0.
   -2000013    1    1    2    0    0 -0.80971915121E+02  0.96308879304E+03  0.34913516069E+03  0.13994612659E+04  0.95000000000E+03 0.  0.
<mgrwt>
<rscale>  0 0.29511156E+04</rscale>
<asrwt>0</asrwt>
<pdfrwt beam="1">  1        2 0.44506532E+00 0.29511156E+04</pdfrwt>
<pdfrwt beam="2">  1       -2 0.11578758E+00 0.29511156E+04</pdfrwt>
<totfact> 0.10108852E+00</totfact>
</mgrwt>
</event>
<event>
 4    1  0.1295381E-008  0.2367021E+04  0.7816531E-02  0.8451955E-01
          2   -1    0    0  501    0  0.00000000000E+00  0.00000000000E+00  0.20479658995E+04  0.20479658995E+04  0.00000000000E+00 0.  1.
         -2   -1    0    0    0  501 -0.00000000000E+00 -0.00000000000E+00 -0.68394555191E+03  0.68394555191E+03  0.00000000000E+00 0. -1.
    2000013    1    1    2    0    0  0.60884277208E+03 -0.35458184822E+03  0.73069530139E+03  0.13902637993E+04  0.95000000000E+03 0.  0.
   -2000013    1    1    2    0    0 -0.60884277208E+03  0.35458184822E+03  0.63332504619E+03  0.13416476521E+04  0.95000000000E+03 0.  0.
<mgrwt>
<rscale>  0 0.23670211E+04</rscale>
<asrwt>0</asrwt>
<pdfrwt beam="1">  1        2 0.31507167E+00 0.23670211E+04</pdfrwt>
<pdfrwt beam="2">  1       -2 0.10522239E+00 0.23670211E+04</pdfrwt>
<totfact> 0.41426061E+00</totfact>
</mgrwt>
</event>
<event>
 4    1  0.1295381E-008  0.3558202E+04  0.7816531E-02  0.8100134E-01
          2   -1    0    0  501    0  0.00000000000E+00  0.00000000000E+00  0.25009098595E+04  0.25009098595E+04  0.00000000000E+00 0.  1.
         -2   -1    0    0    0  501 -0.00000000000E+00 -0.00000000000E+00 -0.12656194163E+04  0.12656194163E+04  0.00000000000E+00 0. -1.
    2000013    1    1    2    0    0 -0.83760779174E+03  0.11610878538E+04  0.11061722541E+04  0.20434844929E+04  0.95000000000E+03 0.  0.
   -2000013    1    1    2    0    0  0.83760779174E+03 -0.11610878538E+04  0.12911818910E+03  0.17230447829E+04  0.95000000000E+03 0.  0.
<mgrwt>
<rscale>  0 0.35582018E+04</rscale>
<asrwt>0</asrwt>
<pdfrwt beam="1">  1        2 0.38475536E+00 0.35582018E+04</pdfrwt>
<pdfrwt beam="2">  1       -2 0.19471068E+00 0.35582018E+04</pdfrwt>
<totfact> 0.40986072E-01</totfact>
</mgrwt>
</event>
<event>
 4    1  0.1295381E-008  0.2955088E+04  0.7816531E-02  0.8256673E-01
          2   -1    0    0  501    0  0.00000000000E+00  0.00000000000E+00  0.14765470500E+04  0.14765470500E+04  0.00000000000E+00 0.  1.
         -2   -1    0    0    0  501 -0.00000000000E+00 -0.00000000000E+00 -0.14785414040E+04  0.14785414040E+04  0.00000000000E+00 0. -1.
    2000013    1    1    2    0    0  0.54123079982E+03  0.90639940310E+03 -0.40860650878E+03  0.14778193177E+04  0.95000000000E+03 0.  0.
   -2000013    1    1    2    0    0 -0.54123079982E+03 -0.90639940310E+03  0.40661215480E+03  0.14772691363E+04  0.95000000000E+03 0.  0.
<mgrwt>
<rscale>  0 0.29550878E+04</rscale>
<asrwt>0</asrwt>
<pdfrwt beam="1">  1        2 0.22716108E+00 0.29550878E+04</pdfrwt>
<pdfrwt beam="2">  1       -2 0.22746791E+00 0.29550878E+04</pdfrwt>
<totfact> 0.99725474E-01</totfact>
</mgrwt>
</event>
<event>
 4    1  0.1295381E-008  0.2843770E+04  0.7816531E-02  0.8289807E-01
          2   -1    0    0  501    0  0.00000000000E+00  0.00000000000E+00  0.23742379731E+04  0.23742379731E+04  0.00000000000E+00 0.  1.
         -2   -1    0    0    0  501 -0.00000000000E+00 -0.00000000000E+00 -0.85153919994E+03  0.85153919994E+03  0.00000000000E+00 0. -1.
    2000013    1    1    2    0    0  0.32518611358E+03  0.94086382935E+03  0.35506561966E+03  0.14211060299E+04  0.95000000000E+03 0.  0.
   -2000013    1    1    2    0    0 -0.32518611358E+03 -0.94086382935E+03  0.11676331535E+04  0.18046711432E+04  0.95000000000E+03 0.  0.
<mgrwt>
<rscale>  0 0.28437698E+04</rscale>
<asrwt>0</asrwt>
<pdfrwt beam="1">  1        2 0.36526738E+00 0.28437698E+04</pdfrwt>
<pdfrwt beam="2">  1       -2 0.13100603E+00 0.28437698E+04</pdfrwt>
<totfact> 0.15185171E+00</totfact>
</mgrwt>
</event>
<event>
 4    1  0.1295381E-008  0.2480758E+04  0.7816531E-02  0.8409873E-01
          2   -1    0    0  501    0  0.00000000000E+00  0.00000000000E+00  0.11188296968E+04  0.11188296968E+04  0.00000000000E+00 0.  1.
         -2   -1    0    0    0  501 -0.00000000000E+00 -0.00000000000E+00 -0.13751330452E+04  0.13751330452E+04  0.00000000000E+00 0. -1.
    2000013    1    1    2    0    0  0.55248516553E+03  0.22786162243E+03 -0.65905256067E+03  0.13015417991E+04  0.95000000000E+03 0.  0.
   -2000013    1    1    2    0    0 -0.55248516553E+03 -0.22786162243E+03  0.40274921228E+03  0.11924209429E+04  0.95000000000E+03 0.  0.
<mgrwt>
<rscale>  0 0.24807577E+04</rscale>
<asrwt>0</asrwt>
<pdfrwt beam="1">  1        2 0.17212765E+00 0.24807577E+04</pdfrwt>
<pdfrwt beam="2">  1       -2 0.21155893E+00 0.24807577E+04</pdfrwt>
<totfact> 0.21200050E+00</totfact>
</mgrwt>
</event>
<event>
 4    1  0.1295381E-008  0.2255370E+04  0.7816531E-02  0.8495729E-01
         -4   -1    0    0    0  501 -0.00000000000E+00  0.00000000000E+00  0.10891818520E+04  0.10891818520E+04  0.00000000000E+00 0. -1.
          4   -1    0    0  501    0  0.00000000000E+00 -0.00000000000E+00 -0.11675496603E+04  0.11675496603E+04  0.00000000000E+00 0.  1.
    2000013    1    1    2    0    0  0.55947391889E+03 -0.14642768567E+03 -0.22563413928E+03  0.11348404724E+04  0.95000000000E+03 0.  0.
   -2000013    1    1    2    0    0 -0.55947391889E+03  0.14642768567E+03  0.14726633105E+03  0.11218910399E+04  0.95000000000E+03 0.  0.
<mgrwt>
<rscale>  0 0.22553704E+04</rscale>
<asrwt>0</asrwt>
<pdfrwt beam="2">  1        4 0.17962302E+00 0.22553704E+04</pdfrwt>
<pdfrwt beam="1">  1       -4 0.16756644E+00 0.22553704E+04</pdfrwt>
<totfact> 0.72403377E-02</totfact>
</mgrwt>
</event>
<event>
 4    1  0.1295381E-008  0.2984342E+04  0.7816531E-02  0.8248216E-01
         -2   -1    0    0    0  501 -0.00000000000E+00  0.00000000000E+00  0.17935308521E+04  0.17935308521E+04  0.00000000000E+00 0. -1.
          2   -1    0    0  501    0  0.00000000000E+00 -0.00000000000E+00 -0.12414473331E+04  0.12414473331E+04  0.00000000000E+00 0.  1.
    2000013    1    1    2    0    0 -0.75288884714E+03  0.83255056999E+03  0.18582212675E+02  0.14706554207E+04  0.95000000000E+03 0.  0.
   -2000013    1    1    2    0    0  0.75288884714E+03 -0.83255056999E+03  0.53350130634E+03  0.15643227645E+04  0.95000000000E+03 0.  0.
<mgrwt>
<rscale>  0 0.29843419E+04</rscale>
<asrwt>0</asrwt>
<pdfrwt beam="2">  1        2 0.19099190E+00 0.29843419E+04</pdfrwt>
<pdfrwt beam="1">  1       -2 0.27592782E+00 0.29843419E+04</pdfrwt>
<totfact> 0.68392983E-01</totfact>
</mgrwt>
</event>
<event>
 4    1  0.1295381E-008  0.1969327E+04  0.7816531E-02  0.8621097E-01
         -2   -1    0    0    0  501 -0.00000000000E+00  0.00000000000E+00  0.91789889132E+03  0.91789889132E+03  0.00000000000E+00 0.  1.
          2   -1    0    0  501    0  0.00000000000E+00 -0.00000000000E+00 -0.10562843718E+04  0.10562843718E+04  0.00000000000E+00 0. -1.
    2000013    1    1    2    0    0 -0.19820580123E+03  0.14927930524E+03 -0.14348624167E+03  0.99229942667E+03  0.95000000000E+03 0.  0.
   -2000013    1    1    2    0    0  0.19820580123E+03 -0.14927930524E+03  0.51007611468E+01  0.98188383650E+03  0.95000000000E+03 0.  0.
<mgrwt>
<rscale>  0 0.19693270E+04</rscale>
<asrwt>0</asrwt>
<pdfrwt beam="2">  1        2 0.16250529E+00 0.19693270E+04</pdfrwt>
<pdfrwt beam="1">  1       -2 0.14121521E+00 0.19693270E+04</pdfrwt>
<totfact> 0.75866235E+00</totfact>
</mgrwt>
</event>
<event>
 4    1  0.1295381E-008  0.3454273E+04  0.7816531E-02  0.8124713E-01
          1   -1    0    0  501    0  0.00000000000E+00  0.00000000000E+00  0.21801028775E+04  0.21801028775E+04  0.00000000000E+00 0.  1.
         -1   -1    0    0    0  501 -0.00000000000E+00 -0.00000000000E+00 -0.13682841388E+04  0.13682841388E+04  0.00000000000E+00 0. -1.
    2000013    1    1    2    0    0  0.12618781452E+04 -0.69712092359E+03  0.35787914893E+03  0.17632049004E+04  0.95000000000E+03 0.  0.
   -2000013    1    1    2    0    0 -0.12618781452E+04  0.69712092359E+03  0.45393958978E+03  0.17851821158E+04  0.95000000000E+03 0.  0.
<mgrwt>
<rscale>  0 0.34542728E+04</rscale>
<asrwt>0</asrwt>
<pdfrwt beam="1">  1        1 0.33540044E+00 0.34542728E+04</pdfrwt>
<pdfrwt beam="2">  1       -1 0.21050525E+00 0.34542728E+04</pdfrwt>
<totfact> 0.23479702E-01</totfact>
</mgrwt>
</event>
<event>
 4    1  0.1295381E-008  0.2749323E+04  0.7816531E-02  0.8319176E-01
         -2   -1    0    0    0  501 -0.00000000000E+00  0.00000000000E+00  0.12824319380E+04  0.12824319380E+04  0.00000000000E+00 0. -1.
          2   -1    0    0  501    0  0.00000000000E+00 -0.00000000000E+00 -0.14735242914E+04  0.14735242914E+04  0.00000000000E+00 0.  1.
    2000013    1    1    2    0    0 -0.70868061847E+03 -0.50397213185E+03  0.38621552357E+03  0.13445737463E+04  0.95000000000E+03 0.  0.
   -2000013    1    1    2    0    0  0.70868061847E+03  0.50397213185E+03 -0.57730787703E+03  0.14113824831E+04  0.95000000000E+03 0.  0.
<mgrwt>
<rscale>  0 0.27493233E+04</rscale>
<asrwt>0</asrwt>
<pdfrwt beam="2">  1        2 0.22669604E+00 0.27493233E+04</pdfrwt>
<pdfrwt beam="1">  1       -2 0.19729722E+00 0.27493233E+04</pdfrwt>
<totfact> 0.15910937E+00</totfact>
</mgrwt>
</event>
<event>
 4    1  0.1295381E-008  0.2468264E+04  0.7816531E-02  0.8414380E-01
         -2   -1    0    0    0  501 -0.00000000000E+00  0.00000000000E+00  0.84320445261E+03  0.84320445261E+03  0.00000000000E+00 0. -1.
          2   -1    0    0  501    0  0.00000000000E+00 -0.00000000000E+00 -0.18063013960E+04  0.18063013960E+04  0.00000000000E+00 0.  1.
    2000013    1    1    2    0    0  0.50789530679E+03  0.23207722944E+03  0.11491875927E+03  0.11079367330E+04  0.95000000000E+03 0.  0.
   -2000013    1    1    2    0    0 -0.50789530679E+03 -0.23207722944E+03 -0.10780157027E+04  0.15415691157E+04  0.95000000000E+03 0.  0.
<mgrwt>
<rscale>  0 0.24682637E+04</rscale>
<asrwt>0</asrwt>
<pdfrwt beam="2">  1        2 0.27789252E+00 0.24682637E+04</pdfrwt>
<pdfrwt beam="1">  1       -2 0.12972376E+00 0.24682637E+04</pdfrwt>
<totfact> 0.33424709E+00</totfact>
</mgrwt>
</event>
<event>
 4    1  0.1295381E-008  0.2582103E+04  0.7816531E-02  0.8374306E-01
          2   -1    0    0  501    0  0.00000000000E+00  0.00000000000E+00  0.10336379943E+04  0.10336379943E+04  0.00000000000E+00 0.  1.
         -2   -1    0    0    0  501 -0.00000000000E+00 -0.00000000000E+00 -0.16125705177E+04  0.16125705177E+04  0.00000000000E+00 0. -1.
    2000013    1    1    2    0    0 -0.71084576014E+03  0.45250674289E+03 -0.50767161551E+02  0.12708821156E+04  0.95000000000E+03 0.  0.
   -2000013    1    1    2    0    0  0.71084576014E+03 -0.45250674289E+03 -0.52816536192E+03  0.13753263964E+04  0.95000000000E+03 0.  0.
<mgrwt>
<rscale>  0 0.25821031E+04</rscale>
<asrwt>0</asrwt>
<pdfrwt beam="1">  1        2 0.15902123E+00 0.25821031E+04</pdfrwt>
<pdfrwt beam="2">  1       -2 0.24808777E+00 0.25821031E+04</pdfrwt>
<totfact> 0.14020764E+00</totfact>
</mgrwt>
</event>
<event>
 4    1  0.1295381E-008  0.2511022E+04  0.7816531E-02  0.8399069E-01
         -2   -1    0    0    0  501 -0.00000000000E+00  0.00000000000E+00  0.54745703594E+03  0.54745703594E+03  0.00000000000E+00 0. -1.
          2   -1    0    0  501    0  0.00000000000E+00 -0.00000000000E+00 -0.28793264276E+04  0.28793264276E+04  0.00000000000E+00 0.  1.
    2000013    1    1    2    0    0 -0.77779097613E+03 -0.13441932980E+03 -0.85840773532E+03  0.15041247285E+04  0.95000000000E+03 0.  0.
   -2000013    1    1    2    0    0  0.77779097613E+03  0.13441932980E+03 -0.14734616563E+04  0.19226587350E+04  0.95000000000E+03 0.  0.
<mgrwt>
<rscale>  0 0.25110217E+04</rscale>
<asrwt>0</asrwt>
<pdfrwt beam="2">  1        2 0.44297331E+00 0.25110217E+04</pdfrwt>
<pdfrwt beam="1">  1       -2 0.84224158E-01 0.25110217E+04</pdfrwt>
<totfact> 0.22679881E+00</totfact>
</mgrwt>
</event>
<event>
 4    1  0.1295381E-008  0.2288875E+04  0.7816531E-02  0.8482320E-01
         -2   -1    0    0    0  501 -0.00000000000E+00  0.00000000000E+00  0.63181774451E+03  0.63181774451E+03  0.00000000000E+00 0. -1.
          2   -1    0    0  501    0  0.00000000000E+00 -0.00000000000E+00 -0.20729668733E+04  0.20729668733E+04  0.00000000000E+00 0.  1.
    2000013    1    1    2    0    0 -0.15500769188E+03  0.61557681515E+03 -0.64330981049E+03  0.13112245087E+04  0.95000000000E+03 0.  0.
   -2000013    1    1    2    0    0  0.15500769188E+03 -0.61557681515E+03 -0.79783931828E+03  0.13935601091E+04  0.95000000000E+03 0.  0.
<mgrwt>
<rscale>  0 0.22888751E+04</rscale>
<asrwt>0</asrwt>
<pdfrwt beam="2">  1        2 0.31891798E+00 0.22888751E+04</pdfrwt>
<pdfrwt beam="1">  1       -2 0.97202730E-01 0.22888751E+04</pdfrwt>
<totfact> 0.48755365E+00</totfact>
</mgrwt>
</event>
<event>
 4    1  0.1295381E-008  0.2807525E+04  0.7816531E-02  0.8300936E-01
          2   -1    0    0  501    0  0.00000000000E+00  0.00000000000E+00  0.32626782547E+04  0.32626782547E+04  0.00000000000E+00 0.  1.
         -2   -1    0    0    0  501 -0.00000000000E+00 -0.00000000000E+00 -0.60396668718E+03  0.60396668718E+03  0.00000000000E+00 0. -1.
    2000013    1    1    2    0    0 -0.41983843853E+03  0.72838779676E+03  0.21571189974E+04  0.25024938494E+04  0.95000000000E+03 0.  0.
   -2000013    1    1    2    0    0  0.41983843853E+03 -0.72838779676E+03  0.50159257012E+03  0.13641510926E+04  0.95000000000E+03 0.  0.
<mgrwt>
<rscale>  0 0.28075249E+04</rscale>
<asrwt>0</asrwt>
<pdfrwt beam="1">  1        2 0.50195049E+00 0.28075249E+04</pdfrwt>
<pdfrwt beam="2">  1       -2 0.92917954E-01 0.28075249E+04</pdfrwt>
<totfact> 0.10062055E+00</totfact>
</mgrwt>
</event>
<event>
 4    1  0.1295381E-008  0.2424537E+04  0.7816531E-02  0.8430374E-01
          1   -1    0    0  501    0  0.00000000000E+00  0.00000000000E+00  0.17184946625E+04  0.17184946625E+04  0.00000000000E+00 0. -1.
         -1   -1    0    0    0  501 -0.00000000000E+00 -0.00000000000E+00 -0.85516411164E+03  0.85516411164E+03  0.00000000000E+00 0.  1.
    2000013    1    1    2    0    0  0.15365682760E+03  0.52893340746E+03 -0.11345047290E+03  0.11039710051E+04  0.95000000000E+03 0.  0.
   -2000013    1    1    2    0    0 -0.15365682760E+03 -0.52893340746E+03  0.97678102372E+03  0.14696877690E+04  0.95000000000E+03 0.  0.
<mgrwt>
<rscale>  0 0.24245370E+04</rscale>
<asrwt>0</asrwt>
<pdfrwt beam="1">  1        1 0.26438379E+00 0.24245370E+04</pdfrwt>
<pdfrwt beam="2">  1       -1 0.13156371E+00 0.24245370E+04</pdfrwt>
<totfact> 0.20366638E+00</totfact>
</mgrwt>
</event>
<event>
 4    1  0.1295381E-008  0.2971278E+04  0.7816531E-02  0.8251980E-01
          2   -1    0    0  501    0  0.00000000000E+00  0.00000000000E+00  0.18212157768E+04  0.18212157768E+04  0.00000000000E+00 0.  1.
         -2   -1    0    0    0  501 -0.00000000000E+00 -0.00000000000E+00 -0.12118956077E+04  0.12118956077E+04  0.00000000000E+00 0. -1.
    2000013    1    1    2    0    0  0.45484126945E+03  0.69821338990E+03 -0.49277567231E+03  0.13563592376E+04  0.95000000000E+03 0.  0.
   -2000013    1    1    2    0    0 -0.45484126945E+03 -0.69821338990E+03  0.11020958415E+04  0.16767521469E+04  0.95000000000E+03 0.  0.
<mgrwt>
<rscale>  0 0.29712781E+04</rscale>
<asrwt>0</asrwt>
<pdfrwt beam="1">  1        2 0.28018704E+00 0.29712781E+04</pdfrwt>
<pdfrwt beam="2">  1       -2 0.18644548E+00 0.29712781E+04</pdfrwt>
<totfact> 0.11804706E+00</totfact>
</mgrwt>
</event>
<event>
 4    1  0.1295381E-008  0.3132586E+04  0.7816531E-02  0.8206851E-01
          1   -1    0    0  501    0  0.00000000000E+00  0.00000000000E+00  0.23598523111E+04  0.23598523111E+04  0.00000000000E+00 0.  1.
         -1   -1    0    0    0  501 -0.00000000000E+00 -0.00000000000E+00 -0.10395879366E+04  0.10395879366E+04  0.00000000000E+00 0. -1.
    2000013    1    1    2    0    0  0.61973086485E+03 -0.98181337986E+03  0.17149674219E+03  0.15099453600E+04  0.95000000000E+03 0.  0.
   -2000013    1    1    2    0    0 -0.61973086485E+03  0.98181337986E+03  0.11487676323E+04  0.18894948877E+04  0.95000000000E+03 0.  0.
<mgrwt>
<rscale>  0 0.31325861E+04</rscale>
<asrwt>0</asrwt>
<pdfrwt beam="1">  1        1 0.36305420E+00 0.31325861E+04</pdfrwt>
<pdfrwt beam="2">  1       -1 0.15993661E+00 0.31325861E+04</pdfrwt>
<totfact> 0.41673013E-01</totfact>
</mgrwt>
</event>
<event>
 4    1  0.1295381E-008  0.3264263E+04  0.7816531E-02  0.8172049E-01
          2   -1    0    0  501    0  0.00000000000E+00  0.00000000000E+00  0.10491181786E+04  0.10491181786E+04  0.00000000000E+00 0.  1.
         -2   -1    0    0    0  501 -0.00000000000E+00 -0.00000000000E+00 -0.25391355284E+04  0.25391355284E+04  0.00000000000E+00 0. -1.
    2000013    1    1    2    0    0  0.70940450562E+03 -0.11029945872E+04 -0.52106978358E+03  0.17011365411E+04  0.95000000000E+03 0.  0.
   -2000013    1    1    2    0    0 -0.70940450562E+03  0.11029945872E+04 -0.96894756620E+03  0.18871171660E+04  0.95000000000E+03 0.  0.
<mgrwt>
<rscale>  0 0.32642630E+04</rscale>
<asrwt>0</asrwt>
<pdfrwt beam="1">  1        2 0.16140280E+00 0.32642630E+04</pdfrwt>
<pdfrwt beam="2">  1       -2 0.39063623E+00 0.32642630E+04</pdfrwt>
<totfact> 0.16759239E-01</totfact>
</mgrwt>
</event>
<event>
 4    1  0.1295381E-008  0.2114996E+04  0.7816531E-02  0.8554666E-01
         -2   -1    0    0    0  501 -0.00000000000E+00  0.00000000000E+00  0.52144569508E+03  0.52144569508E+03  0.00000000000E+00 0. -1.
          2   -1    0    0  501    0  0.00000000000E+00 -0.00000000000E+00 -0.21446193623E+04  0.21446193623E+04  0.00000000000E+00 0.  1.
    2000013    1    1    2    0    0 -0.42357891869E+03 -0.12110395050E+03 -0.62582192558E+03  0.12199337481E+04  0.95000000000E+03 0.  0.
   -2000013    1    1    2    0    0  0.42357891869E+03  0.12110395050E+03 -0.99735174167E+03  0.14461313093E+04  0.95000000000E+03 0.  0.
<mgrwt>
<rscale>  0 0.21149965E+04</rscale>
<asrwt>0</asrwt>
<pdfrwt beam="2">  1        2 0.32994144E+00 0.21149965E+04</pdfrwt>
<pdfrwt beam="1">  1       -2 0.80222414E-01 0.21149965E+04</pdfrwt>
<totfact> 0.70132961E+00</totfact>
</mgrwt>
</event>
<event>
 4    1  0.1295381E-008  0.2078396E+04  0.7816531E-02  0.8570820E-01
         -2   -1    0    0    0  501 -0.00000000000E+00  0.00000000000E+00  0.11647508578E+04  0.11647508578E+04  0.00000000000E+00 0. -1.
          2   -1    0    0  501    0  0.00000000000E+00 -0.00000000000E+00 -0.92717880444E+03  0.92717880444E+03  0.00000000000E+00 0.  1.
    2000013    1    1    2    0    0 -0.22187996900E+03 -0.31084388616E+03  0.29764421453E+03  0.10662770375E+04  0.95000000000E+03 0.  0.
   -2000013    1    1    2    0    0  0.22187996900E+03  0.31084388616E+03 -0.60072161135E+02  0.10256526248E+04  0.95000000000E+03 0.  0.
<mgrwt>
<rscale>  0 0.20783958E+04</rscale>
<asrwt>0</asrwt>
<pdfrwt beam="2">  1        2 0.14264289E+00 0.20783958E+04</pdfrwt>
<pdfrwt beam="1">  1       -2 0.17919244E+00 0.20783958E+04</pdfrwt>
<totfact> 0.47655391E+00</totfact>
</mgrwt>
</event>
<event>
 4    1  0.1295381E-008  0.2154185E+04  0.7816531E-02  0.8537743E-01
          2   -1    0    0  501    0  0.00000000000E+00  0.00000000000E+00  0.10486188330E+04  0.10486188330E+04  0.00000000000E+00 0.  1.
         -2   -1    0    0    0  501 -0.00000000000E+00 -0.00000000000E+00 -0.11063388522E+04  0.11063388522E+04  0.00000000000E+00 0. -1.
    2000013    1    1    2    0    0 -0.42529718033E+03 -0.13781988683E+03 -0.26927050937E+03  0.10839181796E+04  0.95000000000E+03 0.  0.
   -2000013    1    1    2    0    0  0.42529718033E+03  0.13781988683E+03  0.21155049017E+03  0.10710395057E+04  0.95000000000E+03 0.  0.
<mgrwt>
<rscale>  0 0.21541845E+04</rscale>
<asrwt>0</asrwt>
<pdfrwt beam="1">  1        2 0.16132597E+00 0.21541845E+04</pdfrwt>
<pdfrwt beam="2">  1       -2 0.17020598E+00 0.21541845E+04</pdfrwt>
<totfact> 0.45705635E+00</totfact>
</mgrwt>
</event>
<event>
 4    1  0.1295381E-008  0.4034659E+04  0.7816531E-02  0.7997591E-01
          2   -1    0    0  501    0  0.00000000000E+00  0.00000000000E+00  0.22979094893E+04  0.22979094893E+04  0.00000000000E+00 0.  1.
         -2   -1    0    0    0  501 -0.00000000000E+00 -0.00000000000E+00 -0.17710091486E+04  0.17710091486E+04  0.00000000000E+00 0. -1.
    2000013    1    1    2    0    0  0.60981639920E+02 -0.16209827888E+04  0.10016594283E+04  0.21300529506E+04  0.95000000000E+03 0.  0.
   -2000013    1    1    2    0    0 -0.60981639920E+02  0.16209827888E+04 -0.47475908754E+03  0.19388656873E+04  0.95000000000E+03 0.  0.
<mgrwt>
<rscale>  0 0.40346592E+04</rscale>
<asrwt>0</asrwt>
<pdfrwt beam="1">  1        2 0.35352454E+00 0.40346592E+04</pdfrwt>
<pdfrwt beam="2">  1       -2 0.27246294E+00 0.40346592E+04</pdfrwt>
<totfact> 0.16744062E-01</totfact>
</mgrwt>
</event>
<event>
 4    1  0.1295381E-008  0.3458869E+04  0.7816531E-02  0.8123607E-01
         -2   -1    0    0    0  501 -0.00000000000E+00  0.00000000000E+00  0.17297120489E+04  0.17297120489E+04  0.00000000000E+00 0. -1.
          2   -1    0    0  501    0  0.00000000000E+00 -0.00000000000E+00 -0.17291574438E+04  0.17291574438E+04  0.00000000000E+00 0.  1.
    2000013    1    1    2    0    0  0.59181721032E+03  0.13172133497E+04 -0.55810540047E+02  0.17294257531E+04  0.95000000000E+03 0.  0.
   -2000013    1    1    2    0    0 -0.59181721032E+03 -0.13172133497E+04  0.56365145222E+02  0.17294437396E+04  0.95000000000E+03 0.  0.
<mgrwt>
<rscale>  0 0.34588694E+04</rscale>
<asrwt>0</asrwt>
<pdfrwt beam="2">  1        2 0.26602422E+00 0.34588694E+04</pdfrwt>
<pdfrwt beam="1">  1       -2 0.26610955E+00 0.34588694E+04</pdfrwt>
<totfact> 0.39876405E-01</totfact>
</mgrwt>
</event>
<event>
 4    1  0.1295381E-008  0.2067102E+04  0.7816531E-02  0.8575875E-01
         -1   -1    0    0    0  501 -0.00000000000E+00  0.00000000000E+00  0.55951719801E+03  0.55951719801E+03  0.00000000000E+00 0.  1.
          1   -1    0    0  501    0  0.00000000000E+00 -0.00000000000E+00 -0.19091960713E+04  0.19091960713E+04  0.00000000000E+00 0. -1.
    2000013    1    1    2    0    0  0.17668528466E+03  0.35318857513E+03 -0.79287569265E+03  0.12988886494E+04  0.95000000000E+03 0.  0.
   -2000013    1    1    2    0    0 -0.17668528466E+03 -0.35318857513E+03 -0.55680318059E+03  0.11698246199E+04  0.95000000000E+03 0.  0.
<mgrwt>
<rscale>  0 0.20671024E+04</rscale>
<asrwt>0</asrwt>
<pdfrwt beam="2">  1        1 0.29372247E+00 0.20671024E+04</pdfrwt>
<pdfrwt beam="1">  1       -1 0.86079570E-01 0.20671024E+04</pdfrwt>
<totfact> 0.42186346E+00</totfact>
</mgrwt>
</event>
<event>
 4    1  0.1295381E-008  0.2430693E+04  0.7816531E-02  0.8428101E-01
         -2   -1    0    0    0  501 -0.00000000000E+00  0.00000000000E+00  0.65407690621E+03  0.65407690621E+03  0.00000000000E+00 0. -1.
          2   -1    0    0  501    0  0.00000000000E+00 -0.00000000000E+00 -0.22582466941E+04  0.22582466941E+04  0.00000000000E+00 0.  1.
    2000013    1    1    2    0    0  0.65129607564E+03  0.27160829039E+03 -0.11337123495E+04  0.16388292568E+04  0.95000000000E+03 0.  0.
   -2000013    1    1    2    0    0 -0.65129607564E+03 -0.27160829039E+03 -0.47045743833E+03  0.12734943435E+04  0.95000000000E+03 0.  0.
<mgrwt>
<rscale>  0 0.24306929E+04</rscale>
<asrwt>0</asrwt>
<pdfrwt beam="2">  1        2 0.34742257E+00 0.24306929E+04</pdfrwt>
<pdfrwt beam="1">  1       -2 0.10062722E+00 0.24306929E+04</pdfrwt>
<totfact> 0.34942207E+00</totfact>
</mgrwt>
</event>
<event>
 4    1  0.1295381E-008  0.2403522E+04  0.7816531E-02  0.8438186E-01
          2   -1    0    0  501    0  0.00000000000E+00  0.00000000000E+00  0.22523217843E+04  0.22523217843E+04  0.00000000000E+00 0.  1.
         -2   -1    0    0    0  501 -0.00000000000E+00 -0.00000000000E+00 -0.64121815002E+03  0.64121815002E+03  0.00000000000E+00 0. -1.
    2000013    1    1    2    0    0  0.59443489688E+03 -0.27620187439E+03  0.40249765186E+03  0.12223521104E+04  0.95000000000E+03 0.  0.
   -2000013    1    1    2    0    0 -0.59443489688E+03  0.27620187439E+03  0.12086059824E+04  0.16711878239E+04  0.95000000000E+03 0.  0.
<mgrwt>
<rscale>  0 0.24035221E+04</rscale>
<asrwt>0</asrwt>
<pdfrwt beam="1">  1        2 0.34651104E+00 0.24035221E+04</pdfrwt>
<pdfrwt beam="2">  1       -2 0.98648947E-01 0.24035221E+04</pdfrwt>
<totfact> 0.36991131E+00</totfact>
</mgrwt>
</event>
<event>
 4    1  0.1295381E-008  0.3805818E+04  0.7816531E-02  0.8044907E-01
         -2   -1    0    0    0  501 -0.00000000000E+00  0.00000000000E+00  0.12009330718E+04  0.12009330718E+04  0.00000000000E+00 0.  1.
          2   -1    0    0  501    0  0.00000000000E+00 -0.00000000000E+00 -0.30152079731E+04  0.30152079731E+04  0.00000000000E+00 0. -1.
    2000013    1    1    2    0    0 -0.15195782217E+04 -0.61790140684E+02 -0.16126918655E+04  0.24116822026E+04  0.95000000000E+03 0.  0.
   -2000013    1    1    2    0    0  0.15195782217E+04  0.61790140684E+02 -0.20158303581E+03  0.18044588423E+04  0.95000000000E+03 0.  0.
<mgrwt>
<rscale>  0 0.38058182E+04</rscale>
<asrwt>0</asrwt>
<pdfrwt beam="2">  1        2 0.46387815E+00 0.38058182E+04</pdfrwt>
<pdfrwt beam="1">  1       -2 0.18475894E+00 0.38058182E+04</pdfrwt>
<totfact> 0.22942934E-01</totfact>
</mgrwt>
</event>
<event>
 4    1  0.1295381E-008  0.2911349E+04  0.7816531E-02  0.8269509E-01
         -2   -1    0    0    0  501 -0.00000000000E+00  0.00000000000E+00  0.12997992929E+04  0.12997992929E+04  0.00000000000E+00 0. -1.
          2   -1    0    0  501    0  0.00000000000E+00 -0.00000000000E+00 -0.16302426232E+04  0.16302426232E+04  0.00000000000E+00 0.  1.
    2000013    1    1    2    0    0 -0.70872770333E+03 -0.49280164771E+03 -0.85617166067E+03  0.15429446957E+04  0.95000000000E+03 0.  0.
   -2000013    1    1    2    0    0  0.70872770333E+03  0.49280164771E+03  0.52572833038E+03  0.13870972204E+04  0.95000000000E+03 0.  0.
<mgrwt>
<rscale>  0 0.29113490E+04</rscale>
<asrwt>0</asrwt>
<pdfrwt beam="2">  1        2 0.25080656E+00 0.29113490E+04</pdfrwt>
<pdfrwt beam="1">  1       -2 0.19996912E+00 0.29113490E+04</pdfrwt>
<totfact> 0.12307698E+00</totfact>
</mgrwt>
</event>
<event>
 4    1  0.1295381E-008  0.3225233E+04  0.7816531E-02  0.8182185E-01
         -2   -1    0    0    0  501 -0.00000000000E+00  0.00000000000E+00  0.13231449147E+04  0.13231449147E+04  0.00000000000E+00 0. -1.
          2   -1    0    0  501    0  0.00000000000E+00 -0.00000000000E+00 -0.19654177201E+04  0.19654177201E+04  0.00000000000E+00 0.  1.
    2000013    1    1    2    0    0  0.74014695941E+03  0.84620997035E+03  0.35069716188E+03  0.15130688467E+04  0.95000000000E+03 0.  0.
   -2000013    1    1    2    0    0 -0.74014695941E+03 -0.84620997035E+03 -0.99296996729E+03  0.17754937880E+04  0.95000000000E+03 0.  0.
<mgrwt>
<rscale>  0 0.32252333E+04</rscale>
<asrwt>0</asrwt>
<pdfrwt beam="2">  1        2 0.30237196E+00 0.32252333E+04</pdfrwt>
<pdfrwt beam="1">  1       -2 0.20356076E+00 0.32252333E+04</pdfrwt>
<totfact> 0.73979815E-01</totfact>
</mgrwt>
</event>
<event>
 4    1  0.1295381E-008  0.2235693E+04  0.7816531E-02  0.8503717E-01
          1   -1    0    0  501    0  0.00000000000E+00  0.00000000000E+00  0.21327773573E+04  0.21327773573E+04  0.00000000000E+00 0.  1.
         -1   -1    0    0    0  501 -0.00000000000E+00 -0.00000000000E+00 -0.58589375220E+03  0.58589375220E+03  0.00000000000E+00 0. -1.
    2000013    1    1    2    0    0  0.52187984588E+03 -0.13561524095E+03  0.48482761348E+03  0.11951183548E+04  0.95000000000E+03 0.  0.
   -2000013    1    1    2    0    0 -0.52187984588E+03  0.13561524095E+03  0.10620559916E+04  0.15235527547E+04  0.95000000000E+03 0.  0.
<mgrwt>
<rscale>  0 0.22356931E+04</rscale>
<asrwt>0</asrwt>
<pdfrwt beam="1">  1        1 0.32811959E+00 0.22356931E+04</pdfrwt>
<pdfrwt beam="2">  1       -1 0.90137501E-01 0.22356931E+04</pdfrwt>
<totfact> 0.26484521E+00</totfact>
</mgrwt>
</event>
<event>
 4    1  0.1295381E-008  0.2004454E+04  0.7816531E-02  0.8604541E-01
          2   -1    0    0  501    0  0.00000000000E+00  0.00000000000E+00  0.15939914598E+04  0.15939914598E+04  0.00000000000E+00 0.  1.
         -2   -1    0    0    0  501 -0.00000000000E+00 -0.00000000000E+00 -0.63015313109E+03  0.63015313109E+03  0.00000000000E+00 0. -1.
    2000013    1    1    2    0    0  0.15632500551E+03 -0.45534503769E+02  0.17713647362E+03  0.97999399420E+03  0.95000000000E+03 0.  0.
   -2000013    1    1    2    0    0 -0.15632500551E+03  0.45534503769E+02  0.78670185505E+03  0.12441505966E+04  0.95000000000E+03 0.  0.
<mgrwt>
<rscale>  0 0.20044538E+04</rscale>
<asrwt>0</asrwt>
<pdfrwt beam="1">  1        2 0.24522945E+00 0.20044538E+04</pdfrwt>
<pdfrwt beam="2">  1       -2 0.96946636E-01 0.20044538E+04</pdfrwt>
<totfact> 0.92766996E+00</totfact>
</mgrwt>
</event>
<event>
 4    1  0.1295381E-008  0.2305295E+04  0.7816531E-02  0.8475836E-01
         -2   -1    0    0    0  501 -0.00000000000E+00  0.00000000000E+00  0.88306587096E+03  0.88306587096E+03  0.00000000000E+00 0. -1.
          2   -1    0    0  501    0  0.00000000000E+00 -0.00000000000E+00 -0.15045267025E+04  0.15045267025E+04  0.00000000000E+00 0.  1.
    2000013    1    1    2    0    0  0.34463876043E+03 -0.52879538827E+03 -0.13836892166E+03  0.11489327205E+04  0.95000000000E+03 0.  0.
   -2000013    1    1    2    0    0 -0.34463876043E+03  0.52879538827E+03 -0.48309190987E+03  0.12386598529E+04  0.95000000000E+03 0.  0.
<mgrwt>
<rscale>  0 0.23052949E+04</rscale>
<asrwt>0</asrwt>
<pdfrwt beam="2">  1        2 0.23146564E+00 0.23052949E+04</pdfrwt>
<pdfrwt beam="1">  1       -2 0.13585629E+00 0.23052949E+04</pdfrwt>
<totfact> 0.44399562E+00</totfact>
</mgrwt>
</event>
<event>
 4    1  0.1295381E-008  0.2198075E+04  0.7816531E-02  0.8519230E-01
         -2   -1    0    0    0  501 -0.00000000000E+00  0.00000000000E+00  0.48302424674E+03  0.48302424674E+03  0.00000000000E+00 0. -1.
          2   -1    0    0  501    0  0.00000000000E+00 -0.00000000000E+00 -0.25006688977E+04  0.25006688977E+04  0.00000000000E+00 0.  1.
    2000013    1    1    2    0    0 -0.22900693332E+03  0.16367575733E+03 -0.36330235162E+03  0.10553305301E+04  0.95000000000E+03 0.  0.
   -2000013    1    1    2    0    0  0.22900693332E+03 -0.16367575733E+03 -0.16543422993E+04  0.19283626143E+04  0.95000000000E+03 0.  0.
<mgrwt>
<rscale>  0 0.21980753E+04</rscale>
<asrwt>0</asrwt>
<pdfrwt beam="2">  1        2 0.38471829E+00 0.21980753E+04</pdfrwt>
<pdfrwt beam="1">  1       -2 0.74311424E-01 0.21980753E+04</pdfrwt>
<totfact> 0.51825685E+00</totfact>
</mgrwt>
</event>
<event>
 4    1  0.1295381E-008  0.2772492E+04  0.7816531E-02  0.8311860E-01
         -2   -1    0    0    0  501 -0.00000000000E+00  0.00000000000E+00  0.12004394461E+04  0.12004394461E+04  0.00000000000E+00 0. -1.
          2   -1    0    0  501    0  0.00000000000E+00 -0.00000000000E+00 -0.16008125462E+04  0.16008125462E+04  0.00000000000E+00 0.  1.
    2000013    1    1    2    0    0 -0.90061419161E+03  0.23671800164E+03  0.19377762739E+03  0.13443180812E+04  0.95000000000E+03 0.  0.
   -2000013    1    1    2    0    0  0.90061419161E+03 -0.23671800164E+03 -0.59415072753E+03  0.14569339112E+04  0.95000000000E+03 0.  0.
<mgrwt>
<rscale>  0 0.27724924E+04</rscale>
<asrwt>0</asrwt>
<pdfrwt beam="2">  1        2 0.24627885E+00 0.27724924E+04</pdfrwt>
<pdfrwt beam="1">  1       -2 0.18468299E+00 0.27724924E+04</pdfrwt>
<totfact> 0.16362159E+00</totfact>
</mgrwt>
</event>
<event>
 4    1  0.1295381E-008  0.2347192E+04  0.7816531E-02  0.8459543E-01
          2   -1    0    0  501    0  0.00000000000E+00  0.00000000000E+00  0.13026185764E+04  0.13026185764E+04  0.00000000000E+00 0.  1.
         -2   -1    0    0    0  501 -0.00000000000E+00 -0.00000000000E+00 -0.10573528486E+04  0.10573528486E+04  0.00000000000E+00 0. -1.
    2000013    1    1    2    0    0  0.10908906136E+03 -0.68038441519E+03  0.12466540621E+03  0.11801969493E+04  0.95000000000E+03 0.  0.
   -2000013    1    1    2    0    0 -0.10908906136E+03  0.68038441519E+03  0.12060032155E+03  0.11797744756E+04  0.95000000000E+03 0.  0.
<mgrwt>
<rscale>  0 0.23471919E+04</rscale>
<asrwt>0</asrwt>
<pdfrwt beam="1">  1        2 0.20040286E+00 0.23471919E+04</pdfrwt>
<pdfrwt beam="2">  1       -2 0.16266967E+00 0.23471919E+04</pdfrwt>
<totfact> 0.35821336E+00</totfact>
</mgrwt>
</event>
<event>
 4    1  0.1295381E-008  0.2078830E+04  0.7816531E-02  0.8570627E-01
         -4   -1    0    0    0  501 -0.00000000000E+00  0.00000000000E+00  0.13907348538E+04  0.13907348538E+04  0.00000000000E+00 0. -1.
          4   -1    0    0  501    0  0.00000000000E+00 -0.00000000000E+00 -0.77684351724E+03  0.77684351724E+03  0.00000000000E+00 0.  1.
    2000013    1    1    2    0    0  0.23011103683E+03  0.35345558087E+03  0.30818750896E+03  0.10841408938E+04  0.95000000000E+03 0.  0.
   -2000013    1    1    2    0    0 -0.23011103683E+03 -0.35345558087E+03  0.30570382762E+03  0.10834374773E+04  0.95000000000E+03 0.  0.
<mgrwt>
<rscale>  0 0.20788298E+04</rscale>
<asrwt>0</asrwt>
<pdfrwt beam="2">  1        4 0.11951439E+00 0.20788298E+04</pdfrwt>
<pdfrwt beam="1">  1       -4 0.21395921E+00 0.20788298E+04</pdfrwt>
<totfact> 0.10531080E-01</totfact>
</mgrwt>
</event>
<event>
 4    1  0.1295381E-008  0.2910872E+04  0.7816531E-02  0.8269650E-01
          2   -1    0    0  501    0  0.00000000000E+00  0.00000000000E+00  0.73403155201E+03  0.73403155201E+03  0.00000000000E+00 0.  1.
         -2   -1    0    0    0  501 -0.00000000000E+00 -0.00000000000E+00 -0.28858340549E+04  0.28858340549E+04  0.00000000000E+00 0. -1.
    2000013    1    1    2    0    0  0.57963992378E+03 -0.76209030255E+03 -0.17559283117E+04  0.22141698910E+04  0.95000000000E+03 0.  0.
   -2000013    1    1    2    0    0 -0.57963992378E+03  0.76209030255E+03 -0.39587419122E+03  0.14056957159E+04  0.95000000000E+03 0.  0.
<mgrwt>
<rscale>  0 0.29108715E+04</rscale>
<asrwt>0</asrwt>
<pdfrwt beam="1">  1        2 0.11292793E+00 0.29108715E+04</pdfrwt>
<pdfrwt beam="2">  1       -2 0.44397447E+00 0.29108715E+04</pdfrwt>
<totfact> 0.12633188E-01</totfact>
</mgrwt>
</event>
<event>
 4    1  0.1295381E-008  0.3474718E+04  0.7816531E-02  0.8119808E-01
         -2   -1    0    0    0  501 -0.00000000000E+00  0.00000000000E+00  0.13296756100E+04  0.13296756100E+04  0.00000000000E+00 0. -1.
          2   -1    0    0  501    0  0.00000000000E+00 -0.00000000000E+00 -0.22700393737E+04  0.22700393737E+04  0.00000000000E+00 0.  1.
    2000013    1    1    2    0    0  0.59787666811E+03 -0.13247212534E+04 -0.53210743575E+03  0.18160344800E+04  0.95000000000E+03 0.  0.
   -2000013    1    1    2    0    0 -0.59787666811E+03  0.13247212534E+04 -0.40825632797E+03  0.17836805036E+04  0.95000000000E+03 0.  0.
<mgrwt>
<rscale>  0 0.34747178E+04</rscale>
<asrwt>0</asrwt>
<pdfrwt beam="2">  1        2 0.34923682E+00 0.34747178E+04</pdfrwt>
<pdfrwt beam="1">  1       -2 0.20456548E+00 0.34747178E+04</pdfrwt>
<totfact> 0.48200045E-01</totfact>
</mgrwt>
</event>
<event>
 4    1  0.1295381E-008  0.3853808E+04  0.7816531E-02  0.8034705E-01
         -2   -1    0    0    0  501 -0.00000000000E+00  0.00000000000E+00  0.15880004476E+04  0.15880004476E+04  0.00000000000E+00 0. -1.
          2   -1    0    0  501    0  0.00000000000E+00 -0.00000000000E+00 -0.23381349193E+04  0.23381349193E+04  0.00000000000E+00 0.  1.
    2000013    1    1    2    0    0  0.13936181751E+04 -0.91602401434E+03 -0.20101684233E+03  0.19298133028E+04  0.95000000000E+03 0.  0.
   -2000013    1    1    2    0    0 -0.13936181751E+04  0.91602401434E+03 -0.54911762945E+03  0.19963220641E+04  0.95000000000E+03 0.  0.
<mgrwt>
<rscale>  0 0.38538081E+04</rscale>
<asrwt>0</asrwt>
<pdfrwt beam="2">  1        2 0.35971306E+00 0.38538081E+04</pdfrwt>
<pdfrwt beam="1">  1       -2 0.24430776E+00 0.38538081E+04</pdfrwt>
<totfact> 0.23986827E-01</totfact>
</mgrwt>
</event>
<event>
 4    1  0.1295381E-008  0.2038153E+04  0.7816531E-02  0.8588988E-01
         -1   -1    0    0    0  501 -0.00000000000E+00  0.00000000000E+00  0.11253082756E+04  0.11253082756E+04  0.00000000000E+00 0.  1.
          1   -1    0    0  501    0  0.00000000000E+00 -0.00000000000E+00 -0.92287328348E+03  0.92287328348E+03  0.00000000000E+00 0. -1.
    2000013    1    1    2    0    0  0.16449303465E+03  0.24159105812E+03 -0.12481755302E+03  0.10017502779E+04  0.95000000000E+03 0.  0.
   -2000013    1    1    2    0    0 -0.16449303465E+03 -0.24159105812E+03  0.32725254511E+03  0.10464312811E+04  0.95000000000E+03 0.  0.
<mgrwt>
<rscale>  0 0.20381530E+04</rscale>
<asrwt>0</asrwt>
<pdfrwt beam="2">  1        1 0.14198051E+00 0.20381530E+04</pdfrwt>
<pdfrwt beam="1">  1       -1 0.17312435E+00 0.20381530E+04</pdfrwt>
<totfact> 0.37620511E+00</totfact>
</mgrwt>
</event>
<event>
 4    1  0.1295381E-008  0.2317915E+04  0.7816531E-02  0.8470891E-01
         -2   -1    0    0    0  501 -0.00000000000E+00  0.00000000000E+00  0.21878014089E+04  0.21878014089E+04  0.00000000000E+00 0. -1.
          2   -1    0    0  501    0  0.00000000000E+00 -0.00000000000E+00 -0.61394184671E+03  0.61394184671E+03  0.00000000000E+00 0.  1.
    2000013    1    1    2    0    0 -0.46470594348E+03  0.10334854341E+03  0.13461575067E+04  0.17150138682E+04  0.95000000000E+03 0.  0.
   -2000013    1    1    2    0    0  0.46470594348E+03 -0.10334854341E+03  0.22770205547E+03  0.10867293874E+04  0.95000000000E+03 0.  0.
<mgrwt>
<rscale>  0 0.23179153E+04</rscale>
<asrwt>0</asrwt>
<pdfrwt beam="2">  1        2 0.94452593E-01 0.23179153E+04</pdfrwt>
<pdfrwt beam="1">  1       -2 0.33658483E+00 0.23179153E+04</pdfrwt>
<totfact> 0.82536728E-01</totfact>
</mgrwt>
</event>
<event>
 4    1  0.1295381E-008  0.2725702E+04  0.7816531E-02  0.8326713E-01
         -2   -1    0    0    0  501 -0.00000000000E+00  0.00000000000E+00  0.56697230290E+03  0.56697230290E+03  0.00000000000E+00 0. -1.
          2   -1    0    0  501    0  0.00000000000E+00 -0.00000000000E+00 -0.32759327725E+04  0.32759327725E+04  0.00000000000E+00 0.  1.
    2000013    1    1    2    0    0  0.63787044875E+03  0.48278109852E+03 -0.56330569572E+03  0.13637337003E+04  0.95000000000E+03 0.  0.
   -2000013    1    1    2    0    0 -0.63787044875E+03 -0.48278109852E+03 -0.21456547739E+04  0.24791713751E+04  0.95000000000E+03 0.  0.
<mgrwt>
<rscale>  0 0.27257022E+04</rscale>
<asrwt>0</asrwt>
<pdfrwt beam="2">  1        2 0.50398966E+00 0.27257022E+04</pdfrwt>
<pdfrwt beam="1">  1       -2 0.87226508E-01 0.27257022E+04</pdfrwt>
<totfact> 0.11489461E+00</totfact>
</mgrwt>
</event>
<event>
 4    1  0.1295381E-008  0.2745907E+04  0.7816531E-02  0.8320262E-01
          2   -1    0    0  501    0  0.00000000000E+00  0.00000000000E+00  0.11251687221E+04  0.11251687221E+04  0.00000000000E+00 0.  1.
         -2   -1    0    0    0  501 -0.00000000000E+00 -0.00000000000E+00 -0.16753049291E+04  0.16753049291E+04  0.00000000000E+00 0. -1.
    2000013    1    1    2    0    0 -0.39093396560E+03 -0.77614136682E+03 -0.76127649295E+03  0.14957495397E+04  0.95000000000E+03 0.  0.
   -2000013    1    1    2    0    0  0.39093396560E+03  0.77614136682E+03  0.21114028600E+03  0.13047241115E+04  0.95000000000E+03 0.  0.
<mgrwt>
<rscale>  0 0.27459066E+04</rscale>
<asrwt>0</asrwt>
<pdfrwt beam="1">  1        2 0.17310288E+00 0.27459066E+04</pdfrwt>
<pdfrwt beam="2">  1       -2 0.25773922E+00 0.27459066E+04</pdfrwt>
<totfact> 0.10583306E+00</totfact>
</mgrwt>
</event>
<event>
 4    1  0.1295381E-008  0.2528967E+04  0.7816531E-02  0.8392738E-01
          2   -1    0    0  501    0  0.00000000000E+00  0.00000000000E+00  0.26064513435E+04  0.26064513435E+04  0.00000000000E+00 0.  1.
         -2   -1    0    0    0  501 -0.00000000000E+00 -0.00000000000E+00 -0.61344640920E+03  0.61344640920E+03  0.00000000000E+00 0. -1.
    2000013    1    1    2    0    0  0.61603453951E+03  0.20332223394E+03  0.32812377334E+03  0.11962456668E+04  0.95000000000E+03 0.  0.
   -2000013    1    1    2    0    0 -0.61603453951E+03 -0.20332223394E+03  0.16648811610E+04  0.20236520859E+04  0.95000000000E+03 0.  0.
<mgrwt>
<rscale>  0 0.25289668E+04</rscale>
<asrwt>0</asrwt>
<pdfrwt beam="1">  1        2 0.40099251E+00 0.25289668E+04</pdfrwt>
<pdfrwt beam="2">  1       -2 0.94376372E-01 0.25289668E+04</pdfrwt>
<totfact> 0.25400446E+00</totfact>
</mgrwt>
</event>
<event>
 4    1  0.1295381E-008  0.2522087E+04  0.7816531E-02  0.8395159E-01
          2   -1    0    0  501    0  0.00000000000E+00  0.00000000000E+00  0.15797929097E+04  0.15797929097E+04  0.00000000000E+00 0.  1.
         -2   -1    0    0    0  501 -0.00000000000E+00 -0.00000000000E+00 -0.10066073446E+04  0.10066073446E+04  0.00000000000E+00 0. -1.
    2000013    1    1    2    0    0  0.78491335360E+03  0.23450955717E+03  0.15427770021E+03  0.12638770960E+04  0.95000000000E+03 0.  0.
   -2000013    1    1    2    0    0 -0.78491335360E+03 -0.23450955717E+03  0.41890786489E+03  0.13225231583E+04  0.95000000000E+03 0.  0.
<mgrwt>
<rscale>  0 0.25220873E+04</rscale>
<asrwt>0</asrwt>
<pdfrwt beam="1">  1        2 0.24304506E+00 0.25220873E+04</pdfrwt>
<pdfrwt beam="2">  1       -2 0.15486267E+00 0.25220873E+04</pdfrwt>
<totfact> 0.28046371E+00</totfact>
</mgrwt>
</event>
<event>
 4    1  0.1295381E-008  0.2452685E+04  0.7816531E-02  0.8420038E-01
          2   -1    0    0  501    0  0.00000000000E+00  0.00000000000E+00  0.69412710668E+03  0.69412710668E+03  0.00000000000E+00 0.  1.
         -2   -1    0    0    0  501 -0.00000000000E+00 -0.00000000000E+00 -0.21666290509E+04  0.21666290509E+04  0.00000000000E+00 0. -1.
    2000013    1    1    2    0    0 -0.24989709727E+03  0.73359051081E+03 -0.70300701806E+03  0.14132665935E+04  0.95000000000E+03 0.  0.
   -2000013    1    1    2    0    0  0.24989709727E+03 -0.73359051081E+03 -0.76949492612E+03  0.14474895641E+04  0.95000000000E+03 0.  0.
<mgrwt>
<rscale>  0 0.24526850E+04</rscale>
<asrwt>0</asrwt>
<pdfrwt beam="1">  1        2 0.10678879E+00 0.24526850E+04</pdfrwt>
<pdfrwt beam="2">  1       -2 0.33332755E+00 0.24526850E+04</pdfrwt>
<totfact> 0.73423636E-01</totfact>
</mgrwt>
</event>
<event>
 4    1  0.1295381E-008  0.3406394E+04  0.7816531E-02  0.8136339E-01
         -2   -1    0    0    0  501 -0.00000000000E+00  0.00000000000E+00  0.17851656022E+04  0.17851656022E+04  0.00000000000E+00 0. -1.
          2   -1    0    0  501    0  0.00000000000E+00 -0.00000000000E+00 -0.16249918354E+04  0.16249918354E+04  0.00000000000E+00 0.  1.
    2000013    1    1    2    0    0 -0.85207506686E+03 -0.11252035178E+04  0.15932389225E+03  0.17088004502E+04  0.95000000000E+03 0.  0.
   -2000013    1    1    2    0    0  0.85207506686E+03  0.11252035178E+04  0.84987455101E+00  0.17013569873E+04  0.95000000000E+03 0.  0.
<mgrwt>
<rscale>  0 0.34063937E+04</rscale>
<asrwt>0</asrwt>
<pdfrwt beam="2">  1        2 0.24999874E+00 0.34063937E+04</pdfrwt>
<pdfrwt beam="1">  1       -2 0.27464086E+00 0.34063937E+04</pdfrwt>
<totfact> 0.40598040E-01</totfact>
</mgrwt>
</event>
<event>
 4    1  0.1295381E-008  0.2600813E+04  0.7816531E-02  0.8367925E-01
          1   -1    0    0  501    0  0.00000000000E+00  0.00000000000E+00  0.15422938174E+04  0.15422938174E+04  0.00000000000E+00 0.  1.
         -1   -1    0    0    0  501 -0.00000000000E+00 -0.00000000000E+00 -0.10964560893E+04  0.10964560893E+04  0.00000000000E+00 0. -1.
    2000013    1    1    2    0    0 -0.16758840740E+01  0.80671449726E+03  0.59950180662E+03  0.13830016286E+04  0.95000000000E+03 0.  0.
   -2000013    1    1    2    0    0  0.16758840740E+01 -0.80671449726E+03 -0.15366407853E+03  0.12557482780E+04  0.95000000000E+03 0.  0.
<mgrwt>
<rscale>  0 0.26008133E+04</rscale>
<asrwt>0</asrwt>
<pdfrwt beam="1">  1        1 0.23727597E+00 0.26008133E+04</pdfrwt>
<pdfrwt beam="2">  1       -1 0.16868555E+00 0.26008133E+04</pdfrwt>
<totfact> 0.13551358E+00</totfact>
</mgrwt>
</event>
<event>
 4    1  0.1295381E-008  0.2482187E+04  0.7816531E-02  0.8409359E-01
          2   -1    0    0  501    0  0.00000000000E+00  0.00000000000E+00  0.19202907728E+04  0.19202907728E+04  0.00000000000E+00 0.  1.
         -2   -1    0    0    0  501 -0.00000000000E+00 -0.00000000000E+00 -0.80212522479E+03  0.80212522479E+03  0.00000000000E+00 0. -1.
    2000013    1    1    2    0    0  0.62147911568E+03 -0.20929700635E+03  0.10590177990E+04  0.15665440392E+04  0.95000000000E+03 0.  0.
   -2000013    1    1    2    0    0 -0.62147911568E+03  0.20929700635E+03  0.59147749053E+02  0.11558719584E+04  0.95000000000E+03 0.  0.
<mgrwt>
<rscale>  0 0.24821875E+04</rscale>
<asrwt>0</asrwt>
<pdfrwt beam="1">  1        2 0.29542935E+00 0.24821875E+04</pdfrwt>
<pdfrwt beam="2">  1       -2 0.12340388E+00 0.24821875E+04</pdfrwt>
<totfact> 0.32726831E+00</totfact>
</mgrwt>
</event>
<event>
 4    1  0.1295381E-008  0.3025790E+04  0.7816531E-02  0.8236404E-01
         -2   -1    0    0    0  501 -0.00000000000E+00  0.00000000000E+00  0.21404618147E+04  0.21404618147E+04  0.00000000000E+00 0. -1.
          2   -1    0    0  501    0  0.00000000000E+00 -0.00000000000E+00 -0.10693260804E+04  0.10693260804E+04  0.00000000000E+00 0.  1.
    2000013    1    1    2    0    0 -0.11420222185E+03  0.11476453245E+04  0.28404249780E+03  0.15209576190E+04  0.95000000000E+03 0.  0.
   -2000013    1    1    2    0    0  0.11420222185E+03 -0.11476453245E+04  0.78709323658E+03  0.16888302761E+04  0.95000000000E+03 0.  0.
<mgrwt>
<rscale>  0 0.30257902E+04</rscale>
<asrwt>0</asrwt>
<pdfrwt beam="2">  1        2 0.16451170E+00 0.30257902E+04</pdfrwt>
<pdfrwt beam="1">  1       -2 0.32930182E+00 0.30257902E+04</pdfrwt>
<totfact> 0.40763479E-01</totfact>
</mgrwt>
</event>
<event>
 4    1  0.1295381E-008  0.2569861E+04  0.7816531E-02  0.8378511E-01
          2   -1    0    0  501    0  0.00000000000E+00  0.00000000000E+00  0.11035630598E+04  0.11035630598E+04  0.00000000000E+00 0.  1.
         -2   -1    0    0    0  501 -0.00000000000E+00 -0.00000000000E+00 -0.14961055010E+04  0.14961055010E+04  0.00000000000E+00 0. -1.
    2000013    1    1    2    0    0  0.46923301861E+03  0.61561678736E+03 -0.58725527627E+03  0.13588717431E+04  0.95000000000E+03 0.  0.
   -2000013    1    1    2    0    0 -0.46923301861E+03 -0.61561678736E+03  0.19471283515E+03  0.12407968177E+04  0.95000000000E+03 0.  0.
<mgrwt>
<rscale>  0 0.25698613E+04</rscale>
<asrwt>0</asrwt>
<pdfrwt beam="1">  1        2 0.16977893E+00 0.25698613E+04</pdfrwt>
<pdfrwt beam="2">  1       -2 0.23017008E+00 0.25698613E+04</pdfrwt>
<totfact> 0.16392424E+00</totfact>
</mgrwt>
</event>
<event>
 4    1  0.1295381E-008  0.2414855E+04  0.7816531E-02  0.8433963E-01
         -2   -1    0    0    0  501 -0.00000000000E+00  0.00000000000E+00  0.58432370145E+03  0.58432370145E+03  0.00000000000E+00 0. -1.
          2   -1    0    0  501    0  0.00000000000E+00 -0.00000000000E+00 -0.24949892346E+04  0.24949892346E+04  0.00000000000E+00 0.  1.
    2000013    1    1    2    0    0 -0.64064346856E+03  0.37924158730E+03 -0.91240891950E+03  0.15130228920E+04  0.95000000000E+03 0.  0.
   -2000013    1    1    2    0    0  0.64064346856E+03 -0.37924158730E+03 -0.99825661364E+03  0.15662900440E+04  0.95000000000E+03 0.  0.
<mgrwt>
<rscale>  0 0.24148551E+04</rscale>
<asrwt>0</asrwt>
<pdfrwt beam="2">  1        2 0.38384450E+00 0.24148551E+04</pdfrwt>
<pdfrwt beam="1">  1       -2 0.89895952E-01 0.24148551E+04</pdfrwt>
<totfact> 0.33348065E+00</totfact>
</mgrwt>
</event>
<event>
 4    1  0.1295381E-008  0.2941319E+04  0.7816531E-02  0.8260689E-01
         -2   -1    0    0    0  501 -0.00000000000E+00  0.00000000000E+00  0.13049086395E+04  0.13049086395E+04  0.00000000000E+00 0. -1.
          2   -1    0    0  501    0  0.00000000000E+00 -0.00000000000E+00 -0.16574643116E+04  0.16574643116E+04  0.00000000000E+00 0.  1.
    2000013    1    1    2    0    0  0.77199228953E+03 -0.61729210626E+03 -0.71236396262E+03  0.15449867491E+04  0.95000000000E+03 0.  0.
   -2000013    1    1    2    0    0 -0.77199228953E+03  0.61729210626E+03  0.35980829053E+03  0.14173862019E+04  0.95000000000E+03 0.  0.
<mgrwt>
<rscale>  0 0.29413191E+04</rscale>
<asrwt>0</asrwt>
<pdfrwt beam="2">  1        2 0.25499451E+00 0.29413191E+04</pdfrwt>
<pdfrwt beam="1">  1       -2 0.20075517E+00 0.29413191E+04</pdfrwt>
<totfact> 0.11715214E+00</totfact>
</mgrwt>
</event>
<event>
 4    1  0.1295381E-008  0.2445460E+04  0.7816531E-02  0.8422677E-01
         -2   -1    0    0    0  501 -0.00000000000E+00  0.00000000000E+00  0.12483486006E+04  0.12483486006E+04  0.00000000000E+00 0. -1.
          2   -1    0    0  501    0  0.00000000000E+00 -0.00000000000E+00 -0.11976375049E+04  0.11976375049E+04  0.00000000000E+00 0.  1.
    2000013    1    1    2    0    0  0.29684321477E+02  0.25917062515E+03  0.74974776405E+03  0.12380114222E+04  0.95000000000E+03 0.  0.
   -2000013    1    1    2    0    0 -0.29684321477E+02 -0.25917062515E+03 -0.69903666831E+03  0.12079746833E+04  0.95000000000E+03 0.  0.
<mgrwt>
<rscale>  0 0.24454604E+04</rscale>
<asrwt>0</asrwt>
<pdfrwt beam="2">  1        2 0.18425192E+00 0.24454604E+04</pdfrwt>
<pdfrwt beam="1">  1       -2 0.19205363E+00 0.24454604E+04</pdfrwt>
<totfact> 0.25564066E+00</totfact>
</mgrwt>
</event>
<event>
 4    1  0.1295381E-008  0.2171457E+04  0.7816531E-02  0.8530403E-01
          1   -1    0    0  501    0  0.00000000000E+00  0.00000000000E+00  0.37946854319E+04  0.37946854319E+04  0.00000000000E+00 0.  1.
         -1   -1    0    0    0  501 -0.00000000000E+00 -0.00000000000E+00 -0.31064663749E+03  0.31064663749E+03  0.00000000000E+00 0. -1.
    2000013    1    1    2    0    0 -0.19163775305E+03 -0.46536142592E+03  0.14551728726E+04  0.18092303265E+04  0.95000000000E+03 0.  0.
   -2000013    1    1    2    0    0  0.19163775305E+03  0.46536142592E+03  0.20288659218E+04  0.22961017429E+04  0.95000000000E+03 0.  0.
<mgrwt>
<rscale>  0 0.21714569E+04</rscale>
<asrwt>0</asrwt>
<pdfrwt beam="1">  1        1 0.58379773E+00 0.21714569E+04</pdfrwt>
<pdfrwt beam="2">  1       -1 0.47791793E-01 0.21714569E+04</pdfrwt>
<totfact> 0.57820219E-01</totfact>
</mgrwt>
</event>
<event>
 4    1  0.1295381E-008  0.2591558E+04  0.7816531E-02  0.8371075E-01
         -2   -1    0    0    0  501 -0.00000000000E+00  0.00000000000E+00  0.10289242420E+04  0.10289242420E+04  0.00000000000E+00 0. -1.
          2   -1    0    0  501    0  0.00000000000E+00 -0.00000000000E+00 -0.16318429331E+04  0.16318429331E+04  0.00000000000E+00 0.  1.
    2000013    1    1    2    0    0 -0.79572541116E+03  0.12470198934E+03 -0.66851668971E+03  0.14135572435E+04  0.95000000000E+03 0.  0.
   -2000013    1    1    2    0    0  0.79572541116E+03 -0.12470198934E+03  0.65597998536E+02  0.12472099316E+04  0.95000000000E+03 0.  0.
<mgrwt>
<rscale>  0 0.25915576E+04</rscale>
<asrwt>0</asrwt>
<pdfrwt beam="2">  1        2 0.25105276E+00 0.25915576E+04</pdfrwt>
<pdfrwt beam="1">  1       -2 0.15829604E+00 0.25915576E+04</pdfrwt>
<totfact> 0.24575758E+00</totfact>
</mgrwt>
</event>
<event>
 4    1  0.1295381E-008  0.2481240E+04  0.7816531E-02  0.8409699E-01
          2   -1    0    0  501    0  0.00000000000E+00  0.00000000000E+00  0.10645711221E+04  0.10645711221E+04  0.00000000000E+00 0.  1.
         -2   -1    0    0    0  501 -0.00000000000E+00 -0.00000000000E+00 -0.14457824458E+04  0.14457824458E+04  0.00000000000E+00 0. -1.
    2000013    1    1    2    0    0  0.74895620749E+03  0.22009924236E+03 -0.23564944939E+02  0.12298107106E+04  0.95000000000E+03 0.  0.
   -2000013    1    1    2    0    0 -0.74895620749E+03 -0.22009924236E+03 -0.35764637875E+03  0.12805428573E+04  0.95000000000E+03 0.  0.
<mgrwt>
<rscale>  0 0.24812402E+04</rscale>
<asrwt>0</asrwt>
<pdfrwt beam="1">  1        2 0.16378017E+00 0.24812402E+04</pdfrwt>
<pdfrwt beam="2">  1       -2 0.22242807E+00 0.24812402E+04</pdfrwt>
<totfact> 0.19529166E+00</totfact>
</mgrwt>
</event>
<event>
 4    1  0.1295381E-008  0.2708550E+04  0.7816531E-02  0.8332236E-01
         -2   -1    0    0    0  501 -0.00000000000E+00  0.00000000000E+00  0.11439195414E+04  0.11439195414E+04  0.00000000000E+00 0. -1.
          2   -1    0    0  501    0  0.00000000000E+00 -0.00000000000E+00 -0.16033122436E+04  0.16033122436E+04  0.00000000000E+00 0.  1.
    2000013    1    1    2    0    0 -0.30466867986E+03 -0.89208924519E+03 -0.43981176516E+03  0.14087514382E+04  0.95000000000E+03 0.  0.
   -2000013    1    1    2    0    0  0.30466867986E+03  0.89208924519E+03 -0.19580937041E+02  0.13384803469E+04  0.95000000000E+03 0.  0.
<mgrwt>
<rscale>  0 0.27085496E+04</rscale>
<asrwt>0</asrwt>
<pdfrwt beam="2">  1        2 0.24666342E+00 0.27085496E+04</pdfrwt>
<pdfrwt beam="1">  1       -2 0.17598762E+00 0.27085496E+04</pdfrwt>
<totfact> 0.18827575E+00</totfact>
</mgrwt>
</event>
<event>
 4    1  0.1295381E-008  0.2157298E+04  0.7816531E-02  0.8536415E-01
          1   -1    0    0  501    0  0.00000000000E+00  0.00000000000E+00  0.91480041074E+03  0.91480041074E+03  0.00000000000E+00 0.  1.
         -1   -1    0    0    0  501 -0.00000000000E+00 -0.00000000000E+00 -0.12718447987E+04  0.12718447987E+04  0.00000000000E+00 0. -1.
    2000013    1    1    2    0    0 -0.38616392852E+03 -0.14626196547E+03 -0.48339451175E+03  0.11431034057E+04  0.95000000000E+03 0.  0.
   -2000013    1    1    2    0    0  0.38616392852E+03  0.14626196547E+03  0.12635012381E+03  0.10435418037E+04  0.95000000000E+03 0.  0.
<mgrwt>
<rscale>  0 0.21572984E+04</rscale>
<asrwt>0</asrwt>
<pdfrwt beam="1">  1        1 0.14073853E+00 0.21572984E+04</pdfrwt>
<pdfrwt beam="2">  1       -1 0.19566843E+00 0.21572984E+04</pdfrwt>
<totfact> 0.26116466E+00</totfact>
</mgrwt>
</event>
<event>
 4    1  0.1295381E-008  0.2482753E+04  0.7816531E-02  0.8409156E-01
          2   -1    0    0  501    0  0.00000000000E+00  0.00000000000E+00  0.24916586087E+04  0.24916586087E+04  0.00000000000E+00 0.  1.
         -2   -1    0    0    0  501 -0.00000000000E+00 -0.00000000000E+00 -0.61846987572E+03  0.61846987572E+03  0.00000000000E+00 0. -1.
    2000013    1    1    2    0    0  0.68546433027E+03  0.12083591506E+03  0.44491719434E+03  0.12589336663E+04  0.95000000000E+03 0.  0.
   -2000013    1    1    2    0    0 -0.68546433027E+03 -0.12083591506E+03  0.14282715387E+04  0.18511948181E+04  0.95000000000E+03 0.  0.
<mgrwt>
<rscale>  0 0.24827531E+04</rscale>
<asrwt>0</asrwt>
<pdfrwt beam="1">  1        2 0.38333209E+00 0.24827531E+04</pdfrwt>
<pdfrwt beam="2">  1       -2 0.95149213E-01 0.24827531E+04</pdfrwt>
<totfact> 0.29189783E+00</totfact>
</mgrwt>
</event>
<event>
 4    1  0.1295381E-008  0.2038521E+04  0.7816531E-02  0.8588820E-01
          2   -1    0    0  501    0  0.00000000000E+00  0.00000000000E+00  0.16709261405E+04  0.16709261405E+04  0.00000000000E+00 0.  1.
         -2   -1    0    0    0  501 -0.00000000000E+00 -0.00000000000E+00 -0.62174634653E+03  0.62174634653E+03  0.00000000000E+00 0. -1.
    2000013    1    1    2    0    0  0.13450242988E+03 -0.26052122011E+03  0.77715382179E+03  0.12619153191E+04  0.95000000000E+03 0.  0.
   -2000013    1    1    2    0    0 -0.13450242988E+03  0.26052122011E+03  0.27202597220E+03  0.10307571680E+04  0.95000000000E+03 0.  0.
<mgrwt>
<rscale>  0 0.20385213E+04</rscale>
<asrwt>0</asrwt>
<pdfrwt beam="1">  1        2 0.25706556E+00 0.20385213E+04</pdfrwt>
<pdfrwt beam="2">  1       -2 0.95653285E-01 0.20385213E+04</pdfrwt>
<totfact> 0.86473688E+00</totfact>
</mgrwt>
</event>
<event>
 4    1  0.1295381E-008  0.2238758E+04  0.7816531E-02  0.8502467E-01
         -1   -1    0    0    0  501 -0.00000000000E+00  0.00000000000E+00  0.12543731564E+04  0.12543731564E+04  0.00000000000E+00 0.  1.
          1   -1    0    0  501    0  0.00000000000E+00 -0.00000000000E+00 -0.99891287501E+03  0.99891287501E+03  0.00000000000E+00 0. -1.
    2000013    1    1    2    0    0 -0.38778670206E+03  0.12315294663E+03  0.56059579617E+03  0.11757180024E+04  0.95000000000E+03 0.  0.
   -2000013    1    1    2    0    0  0.38778670206E+03 -0.12315294663E+03 -0.30513551482E+03  0.10775680289E+04  0.95000000000E+03 0.  0.
<mgrwt>
<rscale>  0 0.22387581E+04</rscale>
<asrwt>0</asrwt>
<pdfrwt beam="2">  1        1 0.15367890E+00 0.22387581E+04</pdfrwt>
<pdfrwt beam="1">  1       -1 0.19298049E+00 0.22387581E+04</pdfrwt>
<totfact> 0.23198344E+00</totfact>
</mgrwt>
</event>
<event>
 4    1  0.1295381E-008  0.2132713E+04  0.7816531E-02  0.8546969E-01
         -2   -1    0    0    0  501 -0.00000000000E+00  0.00000000000E+00  0.86428080770E+03  0.86428080770E+03  0.00000000000E+00 0. -1.
          2   -1    0    0  501    0  0.00000000000E+00 -0.00000000000E+00 -0.13156786325E+04  0.13156786325E+04  0.00000000000E+00 0.  1.
    2000013    1    1    2    0    0 -0.19498478072E+03  0.43804843537E+03 -0.15554690299E+03  0.10754535487E+04  0.95000000000E+03 0.  0.
   -2000013    1    1    2    0    0  0.19498478072E+03 -0.43804843537E+03 -0.29585092185E+03  0.11045058915E+04  0.95000000000E+03 0.  0.
<mgrwt>
<rscale>  0 0.21327126E+04</rscale>
<asrwt>0</asrwt>
<pdfrwt beam="2">  1        2 0.20241210E+00 0.21327126E+04</pdfrwt>
<pdfrwt beam="1">  1       -2 0.13296628E+00 0.21327126E+04</pdfrwt>
<totfact> 0.61023126E+00</totfact>
</mgrwt>
</event>
<event>
 4    1  0.1295381E-008  0.2669713E+04  0.7816531E-02  0.8344899E-01
         -2   -1    0    0    0  501 -0.00000000000E+00  0.00000000000E+00  0.10204622742E+04  0.10204622742E+04  0.00000000000E+00 0. -1.
          2   -1    0    0  501    0  0.00000000000E+00 -0.00000000000E+00 -0.17461122079E+04  0.17461122079E+04  0.00000000000E+00 0.  1.
    2000013    1    1    2    0    0  0.91048122089E+03 -0.21828021009E+03 -0.41686416029E+03  0.13974612810E+04  0.95000000000E+03 0.  0.
   -2000013    1    1    2    0    0 -0.91048122089E+03  0.21828021009E+03 -0.30878577333E+03  0.13691132011E+04  0.95000000000E+03 0.  0.
<mgrwt>
<rscale>  0 0.26697128E+04</rscale>
<asrwt>0</asrwt>
<pdfrwt beam="2">  1        2 0.26863265E+00 0.26697128E+04</pdfrwt>
<pdfrwt beam="1">  1       -2 0.15699420E+00 0.26697128E+04</pdfrwt>
<totfact> 0.21565856E+00</totfact>
</mgrwt>
</event>
<event>
 4    1  0.1295381E-008  0.2425280E+04  0.7816531E-02  0.8430099E-01
         -2   -1    0    0    0  501 -0.00000000000E+00  0.00000000000E+00  0.55185327574E+03  0.55185327574E+03  0.00000000000E+00 0. -1.
          2   -1    0    0  501    0  0.00000000000E+00 -0.00000000000E+00 -0.26646488866E+04  0.26646488866E+04  0.00000000000E+00 0.  1.
    2000013    1    1    2    0    0 -0.48063833034E+03 -0.57993016182E+03 -0.10905473743E+04  0.16306826094E+04  0.95000000000E+03 0.  0.
   -2000013    1    1    2    0    0  0.48063833034E+03  0.57993016182E+03 -0.10222482366E+04  0.15858195529E+04  0.95000000000E+03 0.  0.
<mgrwt>
<rscale>  0 0.24252795E+04</rscale>
<asrwt>0</asrwt>
<pdfrwt beam="2">  1        2 0.40994598E+00 0.24252795E+04</pdfrwt>
<pdfrwt beam="1">  1       -2 0.84900505E-01 0.24252795E+04</pdfrwt>
<totfact> 0.30215933E+00</totfact>
</mgrwt>
</event>
<event>
 4    1  0.1295381E-008  0.2179613E+04  0.7816531E-02  0.8526962E-01
         -2   -1    0    0    0  501 -0.00000000000E+00  0.00000000000E+00  0.57925619846E+03  0.57925619846E+03  0.00000000000E+00 0. -1.
          2   -1    0    0  501    0  0.00000000000E+00 -0.00000000000E+00 -0.20503506650E+04  0.20503506650E+04  0.00000000000E+00 0.  1.
    2000013    1    1    2    0    0 -0.23047605771E+03  0.42534122195E+03 -0.10083875864E+04  0.14674399111E+04  0.95000000000E+03 0.  0.
   -2000013    1    1    2    0    0  0.23047605771E+03 -0.42534122195E+03 -0.46270688015E+03  0.11621669524E+04  0.95000000000E+03 0.  0.
<mgrwt>
<rscale>  0 0.21796131E+04</rscale>
<asrwt>0</asrwt>
<pdfrwt beam="2">  1        2 0.31543857E+00 0.21796131E+04</pdfrwt>
<pdfrwt beam="1">  1       -2 0.89116335E-01 0.21796131E+04</pdfrwt>
<totfact> 0.61991315E+00</totfact>
</mgrwt>
</event>
<event>
 4    1  0.1295381E-008  0.2171847E+04  0.7816531E-02  0.8530238E-01
          1   -1    0    0  501    0  0.00000000000E+00  0.00000000000E+00  0.10322118608E+04  0.10322118608E+04  0.00000000000E+00 0.  1.
         -1   -1    0    0    0  501 -0.00000000000E+00 -0.00000000000E+00 -0.11424303689E+04  0.11424303689E+04  0.00000000000E+00 0. -1.
    2000013    1    1    2    0    0  0.34282029684E+03 -0.39666769173E+03 -0.11935749973E+02  0.10851329300E+04  0.95000000000E+03 0.  0.
   -2000013    1    1    2    0    0 -0.34282029684E+03  0.39666769173E+03 -0.98282758185E+02  0.10895092997E+04  0.95000000000E+03 0.  0.
<mgrwt>
<rscale>  0 0.21718473E+04</rscale>
<asrwt>0</asrwt>
<pdfrwt beam="1">  1        1 0.15880183E+00 0.21718473E+04</pdfrwt>
<pdfrwt beam="2">  1       -1 0.17575852E+00 0.21718473E+04</pdfrwt>
<totfact> 0.29154388E+00</totfact>
</mgrwt>
</event>
<event>
 4    1  0.1295381E-008  0.2516239E+04  0.7816531E-02  0.8397223E-01
         -2   -1    0    0    0  501 -0.00000000000E+00  0.00000000000E+00  0.59945507205E+03  0.59945507205E+03  0.00000000000E+00 0. -1.
          2   -1    0    0  501    0  0.00000000000E+00 -0.00000000000E+00 -0.26405054465E+04  0.26405054465E+04  0.00000000000E+00 0.  1.
    2000013    1    1    2    0    0 -0.81228001116E+03 -0.11497158325E+03 -0.11308938752E+04  0.16895082830E+04  0.95000000000E+03 0.  0.
   -2000013    1    1    2    0    0  0.81228001116E+03  0.11497158325E+03 -0.91015649926E+03  0.15504522355E+04  0.95000000000E+03 0.  0.
<mgrwt>
<rscale>  0 0.25162388E+04</rscale>
<asrwt>0</asrwt>
<pdfrwt beam="2">  1        2 0.40623162E+00 0.25162388E+04</pdfrwt>
<pdfrwt beam="1">  1       -2 0.92223854E-01 0.25162388E+04</pdfrwt>
<totfact> 0.25619111E+00</totfact>
</mgrwt>
</event>
<event>
 4    1  0.1295381E-008  0.3072426E+04  0.7816531E-02  0.8223346E-01
         -2   -1    0    0    0  501 -0.00000000000E+00  0.00000000000E+00  0.23929607938E+04  0.23929607938E+04  0.00000000000E+00 0. -1.
          2   -1    0    0  501    0  0.00000000000E+00 -0.00000000000E+00 -0.98620518875E+03  0.98620518875E+03  0.00000000000E+00 0.  1.
    2000013    1    1    2    0    0 -0.30209352250E+03  0.98911914878E+03  0.13883147086E+04  0.19747240103E+04  0.95000000000E+03 0.  0.
   -2000013    1    1    2    0    0  0.30209352250E+03 -0.98911914878E+03  0.18440896509E+02  0.14044419723E+04  0.95000000000E+03 0.  0.
<mgrwt>
<rscale>  0 0.30724260E+04</rscale>
<asrwt>0</asrwt>
<pdfrwt beam="2">  1        2 0.15172388E+00 0.30724260E+04</pdfrwt>
<pdfrwt beam="1">  1       -2 0.36814781E+00 0.30724260E+04</pdfrwt>
<totfact> 0.26091150E-01</totfact>
</mgrwt>
</event>
<event>
 4    1  0.1295381E-008  0.2215720E+04  0.7816531E-02  0.8511913E-01
          1   -1    0    0  501    0  0.00000000000E+00  0.00000000000E+00  0.13694989814E+04  0.13694989814E+04  0.00000000000E+00 0.  1.
         -1   -1    0    0    0  501 -0.00000000000E+00 -0.00000000000E+00 -0.89620654922E+03  0.89620654922E+03  0.00000000000E+00 0. -1.
    2000013    1    1    2    0    0  0.20011252529E+03 -0.39439506461E+03 -0.13099406978E+03  0.10560548926E+04  0.95000000000E+03 0.  0.
   -2000013    1    1    2    0    0 -0.20011252529E+03  0.39439506461E+03  0.60428650201E+03  0.12096506381E+04  0.95000000000E+03 0.  0.
<mgrwt>
<rscale>  0 0.22157202E+04</rscale>
<asrwt>0</asrwt>
<pdfrwt beam="1">  1        1 0.21069215E+00 0.22157202E+04</pdfrwt>
<pdfrwt beam="2">  1       -1 0.13787793E+00 0.22157202E+04</pdfrwt>
<totfact> 0.32063661E+00</totfact>
</mgrwt>
</event>
<event>
 4    1  0.1295381E-008  0.2842110E+04  0.7816531E-02  0.8290313E-01
          1   -1    0    0  501    0  0.00000000000E+00  0.00000000000E+00  0.11383541814E+04  0.11383541814E+04  0.00000000000E+00 0. -1.
         -1   -1    0    0    0  501 -0.00000000000E+00 -0.00000000000E+00 -0.17739627208E+04  0.17739627208E+04  0.00000000000E+00 0.  1.
    2000013    1    1    2    0    0 -0.82945292682E+03  0.64930618108E+03 -0.23021046923E+03  0.14370412432E+04  0.95000000000E+03 0.  0.
   -2000013    1    1    2    0    0  0.82945292682E+03 -0.64930618108E+03 -0.40539807022E+03  0.14752756590E+04  0.95000000000E+03 0.  0.
<mgrwt>
<rscale>  0 0.28421104E+04</rscale>
<asrwt>0</asrwt>
<pdfrwt beam="1">  1        1 0.17513141E+00 0.28421104E+04</pdfrwt>
<pdfrwt beam="2">  1       -1 0.27291734E+00 0.28421104E+04</pdfrwt>
<totfact> 0.50632305E-01</totfact>
</mgrwt>
</event>
<event>
 4    1  0.1295381E-008  0.3605703E+04  0.7816531E-02  0.8089187E-01
          2   -1    0    0  501    0  0.00000000000E+00  0.00000000000E+00  0.34325558267E+04  0.34325558267E+04  0.00000000000E+00 0.  1.
         -2   -1    0    0    0  501 -0.00000000000E+00 -0.00000000000E+00 -0.94689616857E+03  0.94689616857E+03  0.00000000000E+00 0. -1.
    2000013    1    1    2    0    0  0.49790642211E+03  0.14241281601E+04  0.15681091146E+04  0.23743458082E+04  0.95000000000E+03 0.  0.
   -2000013    1    1    2    0    0 -0.49790642211E+03 -0.14241281601E+04  0.91755054352E+03  0.20051061871E+04  0.95000000000E+03 0.  0.
<mgrwt>
<rscale>  0 0.36057032E+04</rscale>
<asrwt>0</asrwt>
<pdfrwt beam="1">  1        2 0.52808551E+00 0.36057032E+04</pdfrwt>
<pdfrwt beam="2">  1       -2 0.14567633E+00 0.36057032E+04</pdfrwt>
<totfact> 0.23843789E-01</totfact>
</mgrwt>
</event>
<event>
 4    1  0.1295381E-008  0.2530362E+04  0.7816531E-02  0.8392248E-01
         -2   -1    0    0    0  501 -0.00000000000E+00  0.00000000000E+00  0.13779068981E+04  0.13779068981E+04  0.00000000000E+00 0. -1.
          2   -1    0    0  501    0  0.00000000000E+00 -0.00000000000E+00 -0.11616771608E+04  0.11616771608E+04  0.00000000000E+00 0.  1.
    2000013    1    1    2    0    0 -0.43931751256E+03 -0.12299067089E+03 -0.59447674686E+03  0.12099707371E+04  0.95000000000E+03 0.  0.
   -2000013    1    1    2    0    0  0.43931751256E+03  0.12299067089E+03  0.81070648415E+03  0.13296133218E+04  0.95000000000E+03 0.  0.
<mgrwt>
<rscale>  0 0.25303620E+04</rscale>
<asrwt>0</asrwt>
<pdfrwt beam="2">  1        2 0.17871956E+00 0.25303620E+04</pdfrwt>
<pdfrwt beam="1">  1       -2 0.21198568E+00 0.25303620E+04</pdfrwt>
<totfact> 0.19756956E+00</totfact>
</mgrwt>
</event>
<event>
 4    1  0.1295381E-008  0.3113040E+04  0.7816531E-02  0.8212168E-01
         -2   -1    0    0    0  501 -0.00000000000E+00  0.00000000000E+00  0.78750315377E+03  0.78750315377E+03  0.00000000000E+00 0. -1.
          2   -1    0    0  501    0  0.00000000000E+00 -0.00000000000E+00 -0.30765018078E+04  0.30765018078E+04  0.00000000000E+00 0.  1.
    2000013    1    1    2    0    0 -0.93583104624E+02 -0.12072564198E+04 -0.85598560798E+03  0.17610897824E+04  0.95000000000E+03 0.  0.
   -2000013    1    1    2    0    0  0.93583104624E+02  0.12072564198E+04 -0.14330130460E+04  0.21029151791E+04  0.95000000000E+03 0.  0.
<mgrwt>
<rscale>  0 0.31130402E+04</rscale>
<asrwt>0</asrwt>
<pdfrwt beam="2">  1        2 0.47330796E+00 0.31130402E+04</pdfrwt>
<pdfrwt beam="1">  1       -2 0.12115433E+00 0.31130402E+04</pdfrwt>
<totfact> 0.68447715E-01</totfact>
</mgrwt>
</event>
<event>
 4    1  0.1295381E-008  0.2616540E+04  0.7816531E-02  0.8362605E-01
         -2   -1    0    0    0  501 -0.00000000000E+00  0.00000000000E+00  0.80593492456E+03  0.80593492456E+03  0.00000000000E+00 0. -1.
          2   -1    0    0  501    0  0.00000000000E+00 -0.00000000000E+00 -0.21237076932E+04  0.21237076932E+04  0.00000000000E+00 0.  1.
    2000013    1    1    2    0    0  0.62294617152E+02  0.86004230748E+03 -0.37229464966E+03  0.13359104372E+04  0.95000000000E+03 0.  0.
   -2000013    1    1    2    0    0 -0.62294617152E+02 -0.86004230748E+03 -0.94547811898E+03  0.15937321806E+04  0.95000000000E+03 0.  0.
<mgrwt>
<rscale>  0 0.26165399E+04</rscale>
<asrwt>0</asrwt>
<pdfrwt beam="2">  1        2 0.32672425E+00 0.26165399E+04</pdfrwt>
<pdfrwt beam="1">  1       -2 0.12398999E+00 0.26165399E+04</pdfrwt>
<totfact> 0.24633979E+00</totfact>
</mgrwt>
</event>
<event>
 4    1  0.1295381E-008  0.2790112E+04  0.7816531E-02  0.8306345E-01
          2   -1    0    0  501    0  0.00000000000E+00  0.00000000000E+00  0.34883580941E+04  0.34883580941E+04  0.00000000000E+00 0.  1.
         -2   -1    0    0    0  501 -0.00000000000E+00 -0.00000000000E+00 -0.55790771727E+03  0.55790771727E+03  0.00000000000E+00 0. -1.
    2000013    1    1    2    0    0  0.91488756375E+03  0.14127186476E+03  0.83859607940E+03  0.15693056995E+04  0.95000000000E+03 0.  0.
   -2000013    1    1    2    0    0 -0.91488756375E+03 -0.14127186476E+03  0.20918542974E+04  0.24769601118E+04  0.95000000000E+03 0.  0.
<mgrwt>
<rscale>  0 0.27901125E+04</rscale>
<asrwt>0</asrwt>
<pdfrwt beam="1">  1        2 0.53667046E+00 0.27901125E+04</pdfrwt>
<pdfrwt beam="2">  1       -2 0.85831959E-01 0.27901125E+04</pdfrwt>
<totfact> 0.84998314E-01</totfact>
</mgrwt>
</event>
<event>
 4    1  0.1295381E-008  0.2840475E+04  0.7816531E-02  0.8290811E-01
          1   -1    0    0  501    0  0.00000000000E+00  0.00000000000E+00  0.23120227444E+04  0.23120227444E+04  0.00000000000E+00 0.  1.
         -1   -1    0    0    0  501 -0.00000000000E+00 -0.00000000000E+00 -0.87242878507E+03  0.87242878507E+03  0.00000000000E+00 0. -1.
    2000013    1    1    2    0    0  0.99253883874E+03 -0.35352095636E+02  0.31839991261E+03  0.14107663242E+04  0.95000000000E+03 0.  0.
   -2000013    1    1    2    0    0 -0.99253883874E+03  0.35352095636E+02  0.11211940467E+04  0.17736852053E+04  0.95000000000E+03 0.  0.
<mgrwt>
<rscale>  0 0.28404754E+04</rscale>
<asrwt>0</asrwt>
<pdfrwt beam="1">  1        1 0.35569580E+00 0.28404754E+04</pdfrwt>
<pdfrwt beam="2">  1       -1 0.13421981E+00 0.28404754E+04</pdfrwt>
<totfact> 0.73638820E-01</totfact>
</mgrwt>
</event>
<event>
 4    1  0.1295381E-008  0.2583645E+04  0.7816531E-02  0.8373778E-01
         -2   -1    0    0    0  501 -0.00000000000E+00  0.00000000000E+00  0.16104965845E+04  0.16104965845E+04  0.00000000000E+00 0. -1.
          2   -1    0    0  501    0  0.00000000000E+00 -0.00000000000E+00 -0.10362057962E+04  0.10362057962E+04  0.00000000000E+00 0.  1.
    2000013    1    1    2    0    0 -0.10396025288E+03 -0.76877236453E+03 -0.12832326727E+03  0.12332013394E+04  0.95000000000E+03 0.  0.
   -2000013    1    1    2    0    0  0.10396025288E+03  0.76877236453E+03  0.70261405558E+03  0.14135010413E+04  0.95000000000E+03 0.  0.
<mgrwt>
<rscale>  0 0.25836454E+04</rscale>
<asrwt>0</asrwt>
<pdfrwt beam="2">  1        2 0.15941628E+00 0.25836454E+04</pdfrwt>
<pdfrwt beam="1">  1       -2 0.24776870E+00 0.25836454E+04</pdfrwt>
<totfact> 0.14029942E+00</totfact>
</mgrwt>
</event>
<event>
 4    1  0.1295381E-008  0.2296593E+04  0.7816531E-02  0.8479266E-01
         -2   -1    0    0    0  501 -0.00000000000E+00  0.00000000000E+00  0.14132207948E+04  0.14132207948E+04  0.00000000000E+00 0. -1.
          2   -1    0    0  501    0  0.00000000000E+00 -0.00000000000E+00 -0.93303521523E+03  0.93303521523E+03  0.00000000000E+00 0.  1.
    2000013    1    1    2    0    0  0.88449804299E+02  0.55669299685E+03 -0.80303935271E+02  0.11075554987E+04  0.95000000000E+03 0.  0.
   -2000013    1    1    2    0    0 -0.88449804299E+02 -0.55669299685E+03  0.56048951485E+03  0.12387005114E+04  0.95000000000E+03 0.  0.
<mgrwt>
<rscale>  0 0.22965929E+04</rscale>
<asrwt>0</asrwt>
<pdfrwt beam="2">  1        2 0.14354388E+00 0.22965929E+04</pdfrwt>
<pdfrwt beam="1">  1       -2 0.21741858E+00 0.22965929E+04</pdfrwt>
<totfact> 0.25926291E+00</totfact>
</mgrwt>
</event>
<event>
 4    1  0.1295381E-008  0.2256001E+04  0.7816531E-02  0.8495474E-01
         -2   -1    0    0    0  501 -0.00000000000E+00  0.00000000000E+00  0.93063075182E+03  0.93063075182E+03  0.00000000000E+00 0. -1.
          2   -1    0    0  501    0  0.00000000000E+00 -0.00000000000E+00 -0.13672292812E+04  0.13672292812E+04  0.00000000000E+00 0.  1.
    2000013    1    1    2    0    0  0.36221083006E+03 -0.31605896794E+03  0.16116609770E+03  0.10768307516E+04  0.95000000000E+03 0.  0.
   -2000013    1    1    2    0    0 -0.36221083006E+03  0.31605896794E+03 -0.59776462709E+03  0.12210292814E+04  0.95000000000E+03 0.  0.
<mgrwt>
<rscale>  0 0.22560014E+04</rscale>
<asrwt>0</asrwt>
<pdfrwt beam="2">  1        2 0.21034297E+00 0.22560014E+04</pdfrwt>
<pdfrwt beam="1">  1       -2 0.14317396E+00 0.22560014E+04</pdfrwt>
<totfact> 0.46585624E+00</totfact>
</mgrwt>
</event>
<event>
 4    1  0.1295381E-008  0.3605162E+04  0.7816531E-02  0.8089310E-01
         -2   -1    0    0    0  501 -0.00000000000E+00  0.00000000000E+00  0.16705849257E+04  0.16705849257E+04  0.00000000000E+00 0. -1.
          2   -1    0    0  501    0  0.00000000000E+00 -0.00000000000E+00 -0.19450067318E+04  0.19450067318E+04  0.00000000000E+00 0.  1.
    2000013    1    1    2    0    0 -0.10603972173E+04 -0.10987181137E+04 -0.26075482868E+03  0.18171727580E+04  0.95000000000E+03 0.  0.
   -2000013    1    1    2    0    0  0.10603972173E+04  0.10987181137E+04 -0.13666977447E+02  0.17984188995E+04  0.95000000000E+03 0.  0.
<mgrwt>
<rscale>  0 0.36051624E+04</rscale>
<asrwt>0</asrwt>
<pdfrwt beam="2">  1        2 0.29923180E+00 0.36051624E+04</pdfrwt>
<pdfrwt beam="1">  1       -2 0.25701307E+00 0.36051624E+04</pdfrwt>
<totfact> 0.33988509E-01</totfact>
</mgrwt>
</event>
<event>
 4    1  0.1295381E-008  0.3495951E+04  0.7816531E-02  0.8114750E-01
          2   -1    0    0  501    0  0.00000000000E+00  0.00000000000E+00  0.24721810096E+04  0.24721810096E+04  0.00000000000E+00 0.  1.
         -2   -1    0    0    0  501 -0.00000000000E+00 -0.00000000000E+00 -0.12359203708E+04  0.12359203708E+04  0.00000000000E+00 0. -1.
    2000013    1    1    2    0    0 -0.87208616862E+03 -0.82921315162E+03  0.15085938417E+04  0.21509263389E+04  0.95000000000E+03 0.  0.
   -2000013    1    1    2    0    0  0.87208616862E+03  0.82921315162E+03 -0.27233320294E+03  0.15571750415E+04  0.95000000000E+03 0.  0.
<mgrwt>
<rscale>  0 0.34959513E+04</rscale>
<asrwt>0</asrwt>
<pdfrwt beam="1">  1        2 0.38033554E+00 0.34959513E+04</pdfrwt>
<pdfrwt beam="2">  1       -2 0.19014160E+00 0.34959513E+04</pdfrwt>
<totfact> 0.45923416E-01</totfact>
</mgrwt>
</event>
<event>
 4    1  0.1295381E-008  0.2132448E+04  0.7816531E-02  0.8547083E-01
         -2   -1    0    0    0  501 -0.00000000000E+00  0.00000000000E+00  0.30226392549E+03  0.30226392549E+03  0.00000000000E+00 0. -1.
          2   -1    0    0  501    0  0.00000000000E+00 -0.00000000000E+00 -0.37610635160E+04  0.37610635160E+04  0.00000000000E+00 0.  1.
    2000013    1    1    2    0    0 -0.14761950787E+03  0.32695844722E+03 -0.11100749406E+04  0.15044798833E+04  0.95000000000E+03 0.  0.
   -2000013    1    1    2    0    0  0.14761950787E+03 -0.32695844722E+03 -0.23487246498E+04  0.25588475582E+04  0.95000000000E+03 0.  0.
<mgrwt>
<rscale>  0 0.21324482E+04</rscale>
<asrwt>0</asrwt>
<pdfrwt beam="2">  1        2 0.57862514E+00 0.21324482E+04</pdfrwt>
<pdfrwt beam="1">  1       -2 0.46502144E-01 0.21324482E+04</pdfrwt>
<totfact> 0.21309519E+00</totfact>
</mgrwt>
</event>
<event>
 4    1  0.1295381E-008  0.2995344E+04  0.7816531E-02  0.8245062E-01
         -2   -1    0    0    0  501 -0.00000000000E+00  0.00000000000E+00  0.71006770751E+03  0.71006770751E+03  0.00000000000E+00 0. -1.
          2   -1    0    0  501    0  0.00000000000E+00 -0.00000000000E+00 -0.31588848078E+04  0.31588848078E+04  0.00000000000E+00 0.  1.
    2000013    1    1    2    0    0  0.71790651545E+03 -0.82234182020E+03 -0.17228038499E+04  0.22499308744E+04  0.95000000000E+03 0.  0.
   -2000013    1    1    2    0    0 -0.71790651545E+03  0.82234182020E+03 -0.72601325042E+03  0.16190216410E+04  0.95000000000E+03 0.  0.
<mgrwt>
<rscale>  0 0.29953445E+04</rscale>
<asrwt>0</asrwt>
<pdfrwt beam="2">  1        2 0.48598228E+00 0.29953445E+04</pdfrwt>
<pdfrwt beam="1">  1       -2 0.10924118E+00 0.29953445E+04</pdfrwt>
<totfact> 0.78850223E-01</totfact>
</mgrwt>
</event>
<event>
 4    1  0.1295381E-008  0.2235366E+04  0.7816531E-02  0.8503850E-01
         -2   -1    0    0    0  501 -0.00000000000E+00  0.00000000000E+00  0.72512234716E+03  0.72512234716E+03  0.00000000000E+00 0. -1.
          2   -1    0    0  501    0  0.00000000000E+00 -0.00000000000E+00 -0.17227650350E+04  0.17227650350E+04  0.00000000000E+00 0.  1.
    2000013    1    1    2    0    0 -0.99138998347E+02 -0.46624703123E+03 -0.87737530500E+03  0.13782243145E+04  0.95000000000E+03 0.  0.
   -2000013    1    1    2    0    0  0.99138998347E+02  0.46624703123E+03 -0.12026738288E+03  0.10696630678E+04  0.95000000000E+03 0.  0.
<mgrwt>
<rscale>  0 0.22353661E+04</rscale>
<asrwt>0</asrwt>
<pdfrwt beam="2">  1        2 0.26504077E+00 0.22353661E+04</pdfrwt>
<pdfrwt beam="1">  1       -2 0.11155728E+00 0.22353661E+04</pdfrwt>
<totfact> 0.55127229E+00</totfact>
</mgrwt>
</event>
<event>
 4    1  0.1295381E-008  0.2367701E+04  0.7816531E-02  0.8451696E-01
          2   -1    0    0  501    0  0.00000000000E+00  0.00000000000E+00  0.29964783689E+04  0.29964783689E+04  0.00000000000E+00 0.  1.
         -2   -1    0    0    0  501 -0.00000000000E+00 -0.00000000000E+00 -0.46771651037E+03  0.46771651037E+03  0.00000000000E+00 0. -1.
    2000013    1    1    2    0    0 -0.60279572621E+03  0.33725942084E+03  0.14808798923E+04  0.18901354078E+04  0.95000000000E+03 0.  0.
   -2000013    1    1    2    0    0  0.60279572621E+03 -0.33725942084E+03  0.10478819662E+04  0.15740594714E+04  0.95000000000E+03 0.  0.
<mgrwt>
<rscale>  0 0.23677013E+04</rscale>
<asrwt>0</asrwt>
<pdfrwt beam="1">  1        2 0.46099666E+00 0.23677013E+04</pdfrwt>
<pdfrwt beam="2">  1       -2 0.71956388E-01 0.23677013E+04</pdfrwt>
<totfact> 0.27625856E+00</totfact>
</mgrwt>
</event>
<event>
 4    1  0.1295381E-008  0.2503119E+04  0.7816531E-02  0.8401875E-01
          1   -1    0    0  501    0  0.00000000000E+00  0.00000000000E+00  0.13826851954E+04  0.13826851954E+04  0.00000000000E+00 0.  1.
         -1   -1    0    0    0  501 -0.00000000000E+00 -0.00000000000E+00 -0.11328693686E+04  0.11328693686E+04  0.00000000000E+00 0. -1.
    2000013    1    1    2    0    0  0.13141594359E+03 -0.69784207148E+03  0.52645262480E+03  0.12976540653E+04  0.95000000000E+03 0.  0.
   -2000013    1    1    2    0    0 -0.13141594359E+03  0.69784207148E+03 -0.27663679799E+03  0.12179004988E+04  0.95000000000E+03 0.  0.
<mgrwt>
<rscale>  0 0.25031194E+04</rscale>
<asrwt>0</asrwt>
<pdfrwt beam="1">  1        1 0.21272080E+00 0.25031194E+04</pdfrwt>
<pdfrwt beam="2">  1       -1 0.17428759E+00 0.25031194E+04</pdfrwt>
<totfact> 0.16065587E+00</totfact>
</mgrwt>
</event>
<event>
 4    1  0.1295381E-008  0.2480563E+04  0.7816531E-02  0.8409943E-01
         -2   -1    0    0    0  501 -0.00000000000E+00  0.00000000000E+00  0.12796432875E+04  0.12796432875E+04  0.00000000000E+00 0. -1.
          2   -1    0    0  501    0  0.00000000000E+00 -0.00000000000E+00 -0.12021309557E+04  0.12021309557E+04  0.00000000000E+00 0.  1.
    2000013    1    1    2    0    0  0.16120338818E+03 -0.76792658146E+03  0.18060350827E+03  0.12453173869E+04  0.95000000000E+03 0.  0.
   -2000013    1    1    2    0    0 -0.16120338818E+03  0.76792658146E+03 -0.10309117648E+03  0.12364568563E+04  0.95000000000E+03 0.  0.
<mgrwt>
<rscale>  0 0.24805635E+04</rscale>
<asrwt>0</asrwt>
<pdfrwt beam="2">  1        2 0.18494322E+00 0.24805635E+04</pdfrwt>
<pdfrwt beam="1">  1       -2 0.19686820E+00 0.24805635E+04</pdfrwt>
<totfact> 0.23530065E+00</totfact>
</mgrwt>
</event>
<event>
 4    1  0.1295381E-008  0.2531010E+04  0.7816531E-02  0.8392021E-01
         -2   -1    0    0    0  501 -0.00000000000E+00  0.00000000000E+00  0.78701339417E+03  0.78701339417E+03  0.00000000000E+00 0. -1.
          2   -1    0    0  501    0  0.00000000000E+00 -0.00000000000E+00 -0.20349114647E+04  0.20349114647E+04  0.00000000000E+00 0.  1.
    2000013    1    1    2    0    0  0.60164659441E+03 -0.57036904925E+03 -0.74456425705E+03  0.14643003141E+04  0.95000000000E+03 0.  0.
   -2000013    1    1    2    0    0 -0.60164659441E+03  0.57036904925E+03 -0.50333381350E+03  0.13576245448E+04  0.95000000000E+03 0.  0.
<mgrwt>
<rscale>  0 0.25310097E+04</rscale>
<asrwt>0</asrwt>
<pdfrwt beam="2">  1        2 0.31306329E+00 0.25310097E+04</pdfrwt>
<pdfrwt beam="1">  1       -2 0.12107899E+00 0.25310097E+04</pdfrwt>
<totfact> 0.29513248E+00</totfact>
</mgrwt>
</event>
<event>
 4    1  0.1295381E-008  0.2882135E+04  0.7816531E-02  0.8278213E-01
          2   -1    0    0  501    0  0.00000000000E+00  0.00000000000E+00  0.20090287638E+04  0.20090287638E+04  0.00000000000E+00 0.  1.
         -2   -1    0    0    0  501 -0.00000000000E+00 -0.00000000000E+00 -0.10336712810E+04  0.10336712810E+04  0.00000000000E+00 0. -1.
    2000013    1    1    2    0    0  0.58784576379E+03  0.16947829271E+03  0.14318698856E+04  0.18240166948E+04  0.95000000000E+03 0.  0.
   -2000013    1    1    2    0    0 -0.58784576379E+03 -0.16947829271E+03 -0.45651240284E+03  0.12186833500E+04  0.95000000000E+03 0.  0.
<mgrwt>
<rscale>  0 0.28821349E+04</rscale>
<asrwt>0</asrwt>
<pdfrwt beam="1">  1        2 0.30908135E+00 0.28821349E+04</pdfrwt>
<pdfrwt beam="2">  1       -2 0.15902635E+00 0.28821349E+04</pdfrwt>
<totfact> 0.14620826E+00</totfact>
</mgrwt>
</event>
<event>
 4    1  0.1295381E-008  0.2658855E+04  0.7816531E-02  0.8348480E-01
          1   -1    0    0  501    0  0.00000000000E+00  0.00000000000E+00  0.22891335513E+04  0.22891335513E+04  0.00000000000E+00 0.  1.
         -1   -1    0    0    0  501 -0.00000000000E+00 -0.00000000000E+00 -0.77207269659E+03  0.77207269659E+03  0.00000000000E+00 0. -1.
    2000013    1    1    2    0    0  0.54418820233E+03 -0.58354081772E+03  0.13085419214E+04  0.18031757113E+04  0.95000000000E+03 0.  0.
   -2000013    1    1    2    0    0 -0.54418820233E+03  0.58354081772E+03  0.20851893323E+03  0.12580305366E+04  0.95000000000E+03 0.  0.
<mgrwt>
<rscale>  0 0.26588550E+04</rscale>
<asrwt>0</asrwt>
<pdfrwt beam="1">  1        1 0.35217439E+00 0.26588550E+04</pdfrwt>
<pdfrwt beam="2">  1       -1 0.11878042E+00 0.26588550E+04</pdfrwt>
<totfact> 0.10527825E+00</totfact>
</mgrwt>
</event>
<event>
 4    1  0.1295381E-008  0.2729905E+04  0.7816531E-02  0.8325366E-01
          2   -1    0    0  501    0  0.00000000000E+00  0.00000000000E+00  0.99119939725E+03  0.99119939725E+03  0.00000000000E+00 0.  1.
         -2   -1    0    0    0  501 -0.00000000000E+00 -0.00000000000E+00 -0.18796379294E+04  0.18796379294E+04  0.00000000000E+00 0. -1.
    2000013    1    1    2    0    0 -0.23224216421E+03  0.95079553039E+03 -0.49832861782E+03  0.14521638939E+04  0.95000000000E+03 0.  0.
   -2000013    1    1    2    0    0  0.23224216421E+03 -0.95079553039E+03 -0.39010991431E+03  0.14186734327E+04  0.95000000000E+03 0.  0.
<mgrwt>
<rscale>  0 0.27299055E+04</rscale>
<asrwt>0</asrwt>
<pdfrwt beam="1">  1        2 0.15249222E+00 0.27299055E+04</pdfrwt>
<pdfrwt beam="2">  1       -2 0.28917506E+00 0.27299055E+04</pdfrwt>
<totfact> 0.82672243E-01</totfact>
</mgrwt>
</event>
<event>
 4    1  0.1295381E-008  0.4472561E+04  0.7816531E-02  0.7915458E-01
          2   -1    0    0  501    0  0.00000000000E+00  0.00000000000E+00  0.48282933167E+04  0.48282933167E+04  0.00000000000E+00 0.  1.
         -2   -1    0    0    0  501 -0.00000000000E+00 -0.00000000000E+00 -0.10357593247E+04  0.10357593247E+04  0.00000000000E+00 0. -1.
    2000013    1    1    2    0    0  0.52710751606E+03 -0.11082814339E+04 -0.21472166580E+03  0.15667595425E+04  0.95000000000E+03 0.  0.
   -2000013    1    1    2    0    0 -0.52710751606E+03  0.11082814339E+04  0.40072556578E+04  0.42972930989E+04  0.95000000000E+03 0.  0.
<mgrwt>
<rscale>  0 0.44725607E+04</rscale>
<asrwt>0</asrwt>
<pdfrwt beam="1">  1        2 0.74281434E+00 0.44725607E+04</pdfrwt>
<pdfrwt beam="2">  1       -2 0.15934759E+00 0.44725607E+04</pdfrwt>
<totfact> 0.10557742E-02</totfact>
</mgrwt>
</event>
<event>
 4    1  0.1295381E-008  0.2855053E+04  0.7816531E-02  0.8286378E-01
          2   -1    0    0  501    0  0.00000000000E+00  0.00000000000E+00  0.92345793610E+03  0.92345793610E+03  0.00000000000E+00 0.  1.
         -2   -1    0    0    0  501 -0.00000000000E+00 -0.00000000000E+00 -0.22067401227E+04  0.22067401227E+04  0.00000000000E+00 0. -1.
    2000013    1    1    2    0    0 -0.70738069907E+03 -0.67086622437E+03 -0.11130587512E+04  0.17583653568E+04  0.95000000000E+03 0.  0.
   -2000013    1    1    2    0    0  0.70738069907E+03  0.67086622437E+03 -0.17022343545E+03  0.13718327020E+04  0.95000000000E+03 0.  0.
<mgrwt>
<rscale>  0 0.28550528E+04</rscale>
<asrwt>0</asrwt>
<pdfrwt beam="1">  1        2 0.14207045E+00 0.28550528E+04</pdfrwt>
<pdfrwt beam="2">  1       -2 0.33949848E+00 0.28550528E+04</pdfrwt>
<totfact> 0.44356090E-01</totfact>
</mgrwt>
</event>
<event>
 4    1  0.1295381E-008  0.2093656E+04  0.7816531E-02  0.8564043E-01
         -2   -1    0    0    0  501 -0.00000000000E+00  0.00000000000E+00  0.37210096977E+03  0.37210096977E+03  0.00000000000E+00 0. -1.
          2   -1    0    0  501    0  0.00000000000E+00 -0.00000000000E+00 -0.29450321397E+04  0.29450321397E+04  0.00000000000E+00 0.  1.
    2000013    1    1    2    0    0  0.37592730942E+03  0.21503033804E+03 -0.14070230274E+04  0.17520768214E+04  0.95000000000E+03 0.  0.
   -2000013    1    1    2    0    0 -0.37592730942E+03 -0.21503033804E+03 -0.11659081426E+04  0.15650562882E+04  0.95000000000E+03 0.  0.
<mgrwt>
<rscale>  0 0.20936564E+04</rscale>
<asrwt>0</asrwt>
<pdfrwt beam="2">  1        2 0.45308187E+00 0.20936564E+04</pdfrwt>
<pdfrwt beam="1">  1       -2 0.57246303E-01 0.20936564E+04</pdfrwt>
<totfact> 0.49758281E+00</totfact>
</mgrwt>
</event>
<event>
 4    1  0.1295381E-008  0.2868809E+04  0.7816531E-02  0.8282218E-01
          2   -1    0    0  501    0  0.00000000000E+00  0.00000000000E+00  0.10955909414E+04  0.10955909414E+04  0.00000000000E+00 0.  1.
         -2   -1    0    0    0  501 -0.00000000000E+00 -0.00000000000E+00 -0.18779974293E+04  0.18779974293E+04  0.00000000000E+00 0. -1.
    2000013    1    1    2    0    0 -0.91119735459E+03  0.54322053555E+03 -0.21272906441E+03  0.14398343044E+04  0.95000000000E+03 0.  0.
   -2000013    1    1    2    0    0  0.91119735459E+03 -0.54322053555E+03 -0.56967742348E+03  0.15337540664E+04  0.95000000000E+03 0.  0.
<mgrwt>
<rscale>  0 0.28688095E+04</rscale>
<asrwt>0</asrwt>
<pdfrwt beam="1">  1        2 0.16855245E+00 0.28688095E+04</pdfrwt>
<pdfrwt beam="2">  1       -2 0.28892268E+00 0.28688095E+04</pdfrwt>
<totfact> 0.70467243E-01</totfact>
</mgrwt>
</event>
<event>
 4    1  0.1295381E-008  0.2312551E+04  0.7816531E-02  0.8472989E-01
          2   -1    0    0  501    0  0.00000000000E+00  0.00000000000E+00  0.82026447615E+03  0.82026447615E+03  0.00000000000E+00 0.  1.
         -2   -1    0    0    0  501 -0.00000000000E+00 -0.00000000000E+00 -0.16299293168E+04  0.16299293168E+04  0.00000000000E+00 0. -1.
    2000013    1    1    2    0    0 -0.32114964903E+03  0.50027556260E+03 -0.10317540887E+03  0.11254145461E+04  0.95000000000E+03 0.  0.
   -2000013    1    1    2    0    0  0.32114964903E+03 -0.50027556260E+03 -0.70648943175E+03  0.13247792468E+04  0.95000000000E+03 0.  0.
<mgrwt>
<rscale>  0 0.23125511E+04</rscale>
<asrwt>0</asrwt>
<pdfrwt beam="1">  1        2 0.12619454E+00 0.23125511E+04</pdfrwt>
<pdfrwt beam="2">  1       -2 0.25075836E+00 0.23125511E+04</pdfrwt>
<totfact> 0.19176523E+00</totfact>
</mgrwt>
</event>
<event>
 4    1  0.1295381E-008  0.2733799E+04  0.7816531E-02  0.8324121E-01
          2   -1    0    0  501    0  0.00000000000E+00  0.00000000000E+00  0.11465256734E+04  0.11465256734E+04  0.00000000000E+00 0.  1.
         -2   -1    0    0    0  501 -0.00000000000E+00 -0.00000000000E+00 -0.16296315947E+04  0.16296315947E+04  0.00000000000E+00 0. -1.
    2000013    1    1    2    0    0 -0.56869965238E+03  0.52119777389E+03  0.37685554985E+03  0.12804634003E+04  0.95000000000E+03 0.  0.
   -2000013    1    1    2    0    0  0.56869965238E+03 -0.52119777389E+03 -0.85996147123E+03  0.14956938678E+04  0.95000000000E+03 0.  0.
<mgrwt>
<rscale>  0 0.27337992E+04</rscale>
<asrwt>0</asrwt>
<pdfrwt beam="1">  1        2 0.17638857E+00 0.27337992E+04</pdfrwt>
<pdfrwt beam="2">  1       -2 0.25071255E+00 0.27337992E+04</pdfrwt>
<totfact> 0.11354238E+00</totfact>
</mgrwt>
</event>
<event>
 4    1  0.1295381E-008  0.2071875E+04  0.7816531E-02  0.8573735E-01
          2   -1    0    0  501    0  0.00000000000E+00  0.00000000000E+00  0.25989099736E+04  0.25989099736E+04  0.00000000000E+00 0.  1.
         -2   -1    0    0    0  501 -0.00000000000E+00 -0.00000000000E+00 -0.41292928633E+03  0.41292928633E+03  0.00000000000E+00 0. -1.
    2000013    1    1    2    0    0  0.19667186065E+03 -0.97329272562E+02  0.58417542876E+03  0.11366238338E+04  0.95000000000E+03 0.  0.
   -2000013    1    1    2    0    0 -0.19667186065E+03  0.97329272562E+02  0.16018052585E+04  0.18752154261E+04  0.95000000000E+03 0.  0.
<mgrwt>
<rscale>  0 0.20718746E+04</rscale>
<asrwt>0</asrwt>
<pdfrwt beam="1">  1        2 0.39983229E+00 0.20718746E+04</pdfrwt>
<pdfrwt beam="2">  1       -2 0.63527584E-01 0.20718746E+04</pdfrwt>
<totfact> 0.64594799E+00</totfact>
</mgrwt>
</event>
<event>
 4    1  0.1295381E-008  0.4443653E+04  0.7816531E-02  0.7920576E-01
          2   -1    0    0  501    0  0.00000000000E+00  0.00000000000E+00  0.32924395416E+04  0.32924395416E+04  0.00000000000E+00 0.  1.
         -2   -1    0    0    0  501 -0.00000000000E+00 -0.00000000000E+00 -0.14993479689E+04  0.14993479689E+04  0.00000000000E+00 0. -1.
    2000013    1    1    2    0    0 -0.70590483756E+03 -0.18268557549E+04  0.13767529023E+04  0.25755877277E+04  0.95000000000E+03 0.  0.
   -2000013    1    1    2    0    0  0.70590483756E+03  0.18268557549E+04  0.41633867031E+03  0.22161997828E+04  0.95000000000E+03 0.  0.
<mgrwt>
<rscale>  0 0.44436528E+04</rscale>
<asrwt>0</asrwt>
<pdfrwt beam="1">  1        2 0.50652916E+00 0.44436528E+04</pdfrwt>
<pdfrwt beam="2">  1       -2 0.23066892E+00 0.44436528E+04</pdfrwt>
<totfact> 0.72541387E-02</totfact>
</mgrwt>
</event>
<event>
 4    1  0.1295381E-008  0.2339098E+04  0.7816531E-02  0.8462663E-01
         -2   -1    0    0    0  501 -0.00000000000E+00  0.00000000000E+00  0.11573867653E+04  0.11573867653E+04  0.00000000000E+00 0. -1.
          2   -1    0    0  501    0  0.00000000000E+00 -0.00000000000E+00 -0.11818394466E+04  0.11818394466E+04  0.00000000000E+00 0.  1.
    2000013    1    1    2    0    0  0.20256566651E+03 -0.27346881033E+03 -0.60346697896E+03  0.11757935338E+04  0.95000000000E+03 0.  0.
   -2000013    1    1    2    0    0 -0.20256566651E+03  0.27346881033E+03  0.57901429772E+03  0.11634326781E+04  0.95000000000E+03 0.  0.
<mgrwt>
<rscale>  0 0.23390984E+04</rscale>
<asrwt>0</asrwt>
<pdfrwt beam="2">  1        2 0.18182145E+00 0.23390984E+04</pdfrwt>
<pdfrwt beam="1">  1       -2 0.17805950E+00 0.23390984E+04</pdfrwt>
<totfact> 0.32828698E+00</totfact>
</mgrwt>
</event>
<event>
 4    1  0.1295381E-008  0.2967854E+04  0.7816531E-02  0.8252970E-01
         -2   -1    0    0    0  501 -0.00000000000E+00  0.00000000000E+00  0.10339895330E+04  0.10339895330E+04  0.00000000000E+00 0. -1.
          2   -1    0    0  501    0  0.00000000000E+00 -0.00000000000E+00 -0.21296535877E+04  0.21296535877E+04  0.00000000000E+00 0.  1.
    2000013    1    1    2    0    0 -0.17741021295E+03  0.70804960343E+03 -0.14812290638E+04  0.19050848181E+04  0.95000000000E+03 0.  0.
   -2000013    1    1    2    0    0  0.17741021295E+03 -0.70804960343E+03  0.38556500914E+03  0.12585583025E+04  0.95000000000E+03 0.  0.
<mgrwt>
<rscale>  0 0.29678541E+04</rscale>
<asrwt>0</asrwt>
<pdfrwt beam="2">  1        2 0.32763901E+00 0.29678541E+04</pdfrwt>
<pdfrwt beam="1">  1       -2 0.15907531E+00 0.29678541E+04</pdfrwt>
<totfact> 0.12421639E+00</totfact>
</mgrwt>
</event>
<event>
 4    1  0.1295381E-008  0.3025315E+04  0.7816531E-02  0.8236539E-01
          2   -1    0    0  501    0  0.00000000000E+00  0.00000000000E+00  0.17917647517E+04  0.17917647517E+04  0.00000000000E+00 0.  1.
         -2   -1    0    0    0  501 -0.00000000000E+00 -0.00000000000E+00 -0.12770269951E+04  0.12770269951E+04  0.00000000000E+00 0. -1.
    2000013    1    1    2    0    0  0.52884672534E+03 -0.68612696928E+03 -0.55106830542E+03  0.13987942501E+04  0.95000000000E+03 0.  0.
   -2000013    1    1    2    0    0 -0.52884672534E+03  0.68612696928E+03  0.10658060621E+04  0.16699974966E+04  0.95000000000E+03 0.  0.
<mgrwt>
<rscale>  0 0.30253145E+04</rscale>
<asrwt>0</asrwt>
<pdfrwt beam="1">  1        2 0.27565612E+00 0.30253145E+04</pdfrwt>
<pdfrwt beam="2">  1       -2 0.19646569E+00 0.30253145E+04</pdfrwt>
<totfact> 0.10455118E+00</totfact>
</mgrwt>
</event>
<event>
 4    1  0.1295381E-008  0.2838946E+04  0.7816531E-02  0.8291278E-01
          2   -1    0    0  501    0  0.00000000000E+00  0.00000000000E+00  0.17891824831E+04  0.17891824831E+04  0.00000000000E+00 0. -1.
         -2   -1    0    0    0  501 -0.00000000000E+00 -0.00000000000E+00 -0.11261589799E+04  0.11261589799E+04  0.00000000000E+00 0.  1.
    2000013    1    1    2    0    0  0.12165317380E+03  0.10450533998E+04  0.40744627062E+03  0.14749401908E+04  0.95000000000E+03 0.  0.
   -2000013    1    1    2    0    0 -0.12165317380E+03 -0.10450533998E+04  0.25557723259E+03  0.14404012722E+04  0.95000000000E+03 0.  0.
<mgrwt>
<rscale>  0 0.28389462E+04</rscale>
<asrwt>0</asrwt>
<pdfrwt beam="1">  1        2 0.27525884E+00 0.28389462E+04</pdfrwt>
<pdfrwt beam="2">  1       -2 0.17325523E+00 0.28389462E+04</pdfrwt>
<totfact> 0.15340375E+00</totfact>
</mgrwt>
</event>
<event>
 4    1  0.1295381E-008  0.2923069E+04  0.7816531E-02  0.8266047E-01
          2   -1    0    0  501    0  0.00000000000E+00  0.00000000000E+00  0.36105750808E+04  0.36105750808E+04  0.00000000000E+00 0.  1.
         -2   -1    0    0    0  501 -0.00000000000E+00 -0.00000000000E+00 -0.59161854738E+03  0.59161854738E+03  0.00000000000E+00 0. -1.
    2000013    1    1    2    0    0 -0.71759466554E+03 -0.28228398817E+03  0.36033879567E+03  0.12755274994E+04  0.95000000000E+03 0.  0.
   -2000013    1    1    2    0    0  0.71759466554E+03  0.28228398817E+03  0.26586177377E+04  0.29266661288E+04  0.95000000000E+03 0.  0.
<mgrwt>
<rscale>  0 0.29230691E+04</rscale>
<asrwt>0</asrwt>
<pdfrwt beam="1">  1        2 0.55547308E+00 0.29230691E+04</pdfrwt>
<pdfrwt beam="2">  1       -2 0.91018240E-01 0.29230691E+04</pdfrwt>
<totfact> 0.60141847E-01</totfact>
</mgrwt>
</event>
<event>
 4    1  0.1295381E-008  0.4159166E+04  0.7816531E-02  0.7973186E-01
         -2   -1    0    0    0  501 -0.00000000000E+00  0.00000000000E+00  0.16610572783E+04  0.16610572783E+04  0.00000000000E+00 0. -1.
          2   -1    0    0  501    0  0.00000000000E+00 -0.00000000000E+00 -0.26035615991E+04  0.26035615991E+04  0.00000000000E+00 0.  1.
    2000013    1    1    2    0    0  0.61702329655E+03 -0.14402932683E+04  0.53704325853E+03  0.19094705834E+04  0.95000000000E+03 0.  0.
   -2000013    1    1    2    0    0 -0.61702329655E+03  0.14402932683E+04 -0.14795475793E+04  0.23551482940E+04  0.95000000000E+03 0.  0.
<mgrwt>
<rscale>  0 0.41591658E+04</rscale>
<asrwt>0</asrwt>
<pdfrwt beam="2">  1        2 0.40054794E+00 0.41591658E+04</pdfrwt>
<pdfrwt beam="1">  1       -2 0.25554727E+00 0.41591658E+04</pdfrwt>
<totfact> 0.14012714E-01</totfact>
</mgrwt>
</event>
<event>
 4    1  0.1295381E-008  0.2269905E+04  0.7816531E-02  0.8489882E-01
          2   -1    0    0  501    0  0.00000000000E+00  0.00000000000E+00  0.79426832104E+03  0.79426832104E+03  0.00000000000E+00 0.  1.
         -2   -1    0    0    0  501 -0.00000000000E+00 -0.00000000000E+00 -0.16217659618E+04  0.16217659618E+04  0.00000000000E+00 0. -1.
    2000013    1    1    2    0    0 -0.56335970539E+03 -0.23298934003E+03 -0.28799398997E+03  0.11649458050E+04  0.95000000000E+03 0.  0.
   -2000013    1    1    2    0    0  0.56335970539E+03  0.23298934003E+03 -0.53950365074E+03  0.12510884778E+04  0.95000000000E+03 0.  0.
<mgrwt>
<rscale>  0 0.22699051E+04</rscale>
<asrwt>0</asrwt>
<pdfrwt beam="1">  1        2 0.12219513E+00 0.22699051E+04</pdfrwt>
<pdfrwt beam="2">  1       -2 0.24950245E+00 0.22699051E+04</pdfrwt>
<totfact> 0.20451165E+00</totfact>
</mgrwt>
</event>
<event>
 4    1  0.1295381E-008  0.2391797E+04  0.7816531E-02  0.8442581E-01
         -2   -1    0    0    0  501 -0.00000000000E+00  0.00000000000E+00  0.12755744449E+04  0.12755744449E+04  0.00000000000E+00 0. -1.
          2   -1    0    0  501    0  0.00000000000E+00 -0.00000000000E+00 -0.11211996506E+04  0.11211996506E+04  0.00000000000E+00 0.  1.
    2000013    1    1    2    0    0 -0.51513347219E+03 -0.41306667788E+03 -0.22624134606E+03  0.11788433828E+04  0.95000000000E+03 0.  0.
   -2000013    1    1    2    0    0  0.51513347219E+03  0.41306667788E+03  0.38061614039E+03  0.12179307127E+04  0.95000000000E+03 0.  0.
<mgrwt>
<rscale>  0 0.23917973E+04</rscale>
<asrwt>0</asrwt>
<pdfrwt beam="2">  1        2 0.17249225E+00 0.23917973E+04</pdfrwt>
<pdfrwt beam="1">  1       -2 0.19624222E+00 0.23917973E+04</pdfrwt>
<totfact> 0.26785999E+00</totfact>
</mgrwt>
</event>
<event>
 4    1  0.1295381E-008  0.3006674E+04  0.7816531E-02  0.8241828E-01
         -2   -1    0    0    0  501 -0.00000000000E+00  0.00000000000E+00  0.83467598044E+03  0.83467598044E+03  0.00000000000E+00 0. -1.
          2   -1    0    0  501    0  0.00000000000E+00 -0.00000000000E+00 -0.27076642038E+04  0.27076642038E+04  0.00000000000E+00 0.  1.
    2000013    1    1    2    0    0 -0.10343588695E+04 -0.42903920831E+03 -0.13156149199E+04  0.19716276349E+04  0.95000000000E+03 0.  0.
   -2000013    1    1    2    0    0  0.10343588695E+04  0.42903920831E+03 -0.55737330342E+03  0.15707125493E+04  0.95000000000E+03 0.  0.
<mgrwt>
<rscale>  0 0.30066741E+04</rscale>
<asrwt>0</asrwt>
<pdfrwt beam="2">  1        2 0.41656373E+00 0.30066741E+04</pdfrwt>
<pdfrwt beam="1">  1       -2 0.12841169E+00 0.30066741E+04</pdfrwt>
<totfact> 0.10068396E+00</totfact>
</mgrwt>
</event>
<event>
 4    1  0.1295381E-008  0.2440980E+04  0.7816531E-02  0.8424319E-01
          2   -1    0    0  501    0  0.00000000000E+00  0.00000000000E+00  0.27226938666E+04  0.27226938666E+04  0.00000000000E+00 0.  1.
         -2   -1    0    0    0  501 -0.00000000000E+00 -0.00000000000E+00 -0.54710352386E+03  0.54710352386E+03  0.00000000000E+00 0. -1.
    2000013    1    1    2    0    0 -0.39852651001E+03 -0.65435707752E+03  0.11004213669E+04  0.16432996528E+04  0.95000000000E+03 0.  0.
   -2000013    1    1    2    0    0  0.39852651001E+03  0.65435707752E+03  0.10751689759E+04  0.16264977377E+04  0.95000000000E+03 0.  0.
<mgrwt>
<rscale>  0 0.24409796E+04</rscale>
<asrwt>0</asrwt>
<pdfrwt beam="1">  1        2 0.41887597E+00 0.24409796E+04</pdfrwt>
<pdfrwt beam="2">  1       -2 0.84169774E-01 0.24409796E+04</pdfrwt>
<totfact> 0.28422390E+00</totfact>
</mgrwt>
</event>
<event>
 4    1  0.1295381E-008  0.2118825E+04  0.7816531E-02  0.8552996E-01
         -2   -1    0    0    0  501 -0.00000000000E+00  0.00000000000E+00  0.14460346243E+04  0.14460346243E+04  0.00000000000E+00 0. -1.
          2   -1    0    0  501    0  0.00000000000E+00 -0.00000000000E+00 -0.77616007867E+03  0.77616007867E+03  0.00000000000E+00 0.  1.
    2000013    1    1    2    0    0 -0.18903232297E+03  0.28065399432E+03  0.67535611233E+03  0.12137156842E+04  0.95000000000E+03 0.  0.
   -2000013    1    1    2    0    0  0.18903232297E+03 -0.28065399432E+03 -0.54815667159E+01  0.10084790187E+04  0.95000000000E+03 0.  0.
<mgrwt>
<rscale>  0 0.21188245E+04</rscale>
<asrwt>0</asrwt>
<pdfrwt beam="2">  1        2 0.11940924E+00 0.21188245E+04</pdfrwt>
<pdfrwt beam="1">  1       -2 0.22246687E+00 0.21188245E+04</pdfrwt>
<totfact> 0.31442805E+00</totfact>
</mgrwt>
</event>
<event>
 4    1  0.1295381E-008  0.2223854E+04  0.7816531E-02  0.8508565E-01
         -2   -1    0    0    0  501 -0.00000000000E+00  0.00000000000E+00  0.52204415214E+03  0.52204415214E+03  0.00000000000E+00 0. -1.
          2   -1    0    0  501    0  0.00000000000E+00 -0.00000000000E+00 -0.23683477357E+04  0.23683477357E+04  0.00000000000E+00 0.  1.
    2000013    1    1    2    0    0 -0.47977957209E+03 -0.32122859262E+03 -0.89391992226E+03  0.14265234221E+04  0.95000000000E+03 0.  0.
   -2000013    1    1    2    0    0  0.47977957209E+03  0.32122859262E+03 -0.95238366127E+03  0.14638684657E+04  0.95000000000E+03 0.  0.
<mgrwt>
<rscale>  0 0.22238544E+04</rscale>
<asrwt>0</asrwt>
<pdfrwt beam="2">  1        2 0.36436118E+00 0.22238544E+04</pdfrwt>
<pdfrwt beam="1">  1       -2 0.80314487E-01 0.22238544E+04</pdfrwt>
<totfact> 0.51804152E+00</totfact>
</mgrwt>
</event>
<event>
 4    1  0.1295381E-008  0.3333244E+04  0.7816531E-02  0.8154487E-01
          2   -1    0    0  501    0  0.00000000000E+00  0.00000000000E+00  0.22031207561E+04  0.22031207561E+04  0.00000000000E+00 0.  1.
         -2   -1    0    0    0  501 -0.00000000000E+00 -0.00000000000E+00 -0.12607704610E+04  0.12607704610E+04  0.00000000000E+00 0. -1.
    2000013    1    1    2    0    0  0.31902150480E+03 -0.13036594529E+04  0.75353591090E+03  0.18087617474E+04  0.95000000000E+03 0.  0.
   -2000013    1    1    2    0    0 -0.31902150480E+03  0.13036594529E+04  0.18881438428E+03  0.16551294697E+04  0.95000000000E+03 0.  0.
<mgrwt>
<rscale>  0 0.33332444E+04</rscale>
<asrwt>0</asrwt>
<pdfrwt beam="1">  1        2 0.33894166E+00 0.33332444E+04</pdfrwt>
<pdfrwt beam="2">  1       -2 0.19396469E+00 0.33332444E+04</pdfrwt>
<totfact> 0.62465638E-01</totfact>
</mgrwt>
</event>
<event>
 4    1  0.1295381E-008  0.2783709E+04  0.7816531E-02  0.8308344E-01
         -2   -1    0    0    0  501 -0.00000000000E+00  0.00000000000E+00  0.68385060007E+03  0.68385060007E+03  0.00000000000E+00 0.  1.
          2   -1    0    0  501    0  0.00000000000E+00 -0.00000000000E+00 -0.28328682443E+04  0.28328682443E+04  0.00000000000E+00 0. -1.
    2000013    1    1    2    0    0  0.59231359153E+03 -0.46670477584E+03 -0.19370066642E+04  0.22854197767E+04  0.95000000000E+03 0.  0.
   -2000013    1    1    2    0    0 -0.59231359153E+03  0.46670477584E+03 -0.21201098008E+03  0.12312990677E+04  0.95000000000E+03 0.  0.
<mgrwt>
<rscale>  0 0.27837088E+04</rscale>
<asrwt>0</asrwt>
<pdfrwt beam="2">  1        2 0.43582589E+00 0.27837088E+04</pdfrwt>
<pdfrwt beam="1">  1       -2 0.10520778E+00 0.27837088E+04</pdfrwt>
<totfact> 0.14073138E+00</totfact>
</mgrwt>
</event>
<event>
 4    1  0.1295381E-008  0.3507893E+04  0.7816531E-02  0.8111922E-01
         -2   -1    0    0    0  501 -0.00000000000E+00  0.00000000000E+00  0.13343329138E+04  0.13343329138E+04  0.00000000000E+00 0. -1.
          2   -1    0    0  501    0  0.00000000000E+00 -0.00000000000E+00 -0.23055181304E+04  0.23055181304E+04  0.00000000000E+00 0.  1.
    2000013    1    1    2    0    0 -0.10943001553E+04  0.32823838201E+03 -0.14526361359E+04  0.20779521189E+04  0.95000000000E+03 0.  0.
   -2000013    1    1    2    0    0  0.10943001553E+04 -0.32823838201E+03  0.48145091934E+03  0.15618989253E+04  0.95000000000E+03 0.  0.
<mgrwt>
<rscale>  0 0.35078932E+04</rscale>
<asrwt>0</asrwt>
<pdfrwt beam="2">  1        2 0.35469510E+00 0.35078932E+04</pdfrwt>
<pdfrwt beam="1">  1       -2 0.20528199E+00 0.35078932E+04</pdfrwt>
<totfact> 0.45403577E-01</totfact>
</mgrwt>
</event>
<event>
 4    1  0.1295381E-008  0.2438066E+04  0.7816531E-02  0.8425388E-01
          2   -1    0    0  501    0  0.00000000000E+00  0.00000000000E+00  0.15370815124E+04  0.15370815124E+04  0.00000000000E+00 0.  1.
         -2   -1    0    0    0  501 -0.00000000000E+00 -0.00000000000E+00 -0.96679390288E+03  0.96679390288E+03  0.00000000000E+00 0. -1.
    2000013    1    1    2    0    0  0.67773004906E+03  0.35004188855E+03  0.24287845742E+03  0.12423112687E+04  0.95000000000E+03 0.  0.
   -2000013    1    1    2    0    0 -0.67773004906E+03 -0.35004188855E+03  0.32740915208E+03  0.12615641466E+04  0.95000000000E+03 0.  0.
<mgrwt>
<rscale>  0 0.24380657E+04</rscale>
<asrwt>0</asrwt>
<pdfrwt beam="1">  1        2 0.23647408E+00 0.24380657E+04</pdfrwt>
<pdfrwt beam="2">  1       -2 0.14873752E+00 0.24380657E+04</pdfrwt>
<totfact> 0.33232339E+00</totfact>
</mgrwt>
</event>
<event>
 4    1  0.1295381E-008  0.2341172E+04  0.7816531E-02  0.8461862E-01
         -1   -1    0    0    0  501 -0.00000000000E+00  0.00000000000E+00  0.59712924614E+03  0.59712924614E+03  0.00000000000E+00 0. -1.
          1   -1    0    0  501    0  0.00000000000E+00 -0.00000000000E+00 -0.22947649916E+04  0.22947649916E+04  0.00000000000E+00 0.  1.
    2000013    1    1    2    0    0 -0.18886097131E+03  0.17236061592E+03 -0.16323832271E+04  0.19059254048E+04  0.95000000000E+03 0.  0.
   -2000013    1    1    2    0    0  0.18886097131E+03 -0.17236061592E+03 -0.65252518321E+02  0.98596883295E+03  0.95000000000E+03 0.  0.
<mgrwt>
<rscale>  0 0.23411717E+04</rscale>
<asrwt>0</asrwt>
<pdfrwt beam="2">  1        1 0.35304076E+00 0.23411717E+04</pdfrwt>
<pdfrwt beam="1">  1       -1 0.91866039E-01 0.23411717E+04</pdfrwt>
<totfact> 0.19504195E+00</totfact>
</mgrwt>
</event>
<event>
 4    1  0.1295381E-008  0.2937995E+04  0.7816531E-02  0.8261662E-01
         -2   -1    0    0    0  501 -0.00000000000E+00  0.00000000000E+00  0.78644072821E+03  0.78644072821E+03  0.00000000000E+00 0. -1.
          2   -1    0    0  501    0  0.00000000000E+00 -0.00000000000E+00 -0.27439492046E+04  0.27439492046E+04  0.00000000000E+00 0.  1.
    2000013    1    1    2    0    0 -0.46219237998E+03  0.10152631979E+04 -0.85231273187E+03  0.16950864727E+04  0.95000000000E+03 0.  0.
   -2000013    1    1    2    0    0  0.46219237998E+03 -0.10152631979E+04 -0.11051957445E+04  0.18353034601E+04  0.95000000000E+03 0.  0.
<mgrwt>
<rscale>  0 0.29379948E+04</rscale>
<asrwt>0</asrwt>
<pdfrwt beam="2">  1        2 0.42214603E+00 0.29379948E+04</pdfrwt>
<pdfrwt beam="1">  1       -2 0.12099088E+00 0.29379948E+04</pdfrwt>
<totfact> 0.11183595E+00</totfact>
</mgrwt>
</event>
<event>
 4    1  0.1295381E-008  0.2444277E+04  0.7816531E-02  0.8423110E-01
         -1   -1    0    0    0  501 -0.00000000000E+00  0.00000000000E+00  0.46816652981E+03  0.46816652981E+03  0.00000000000E+00 0. -1.
          1   -1    0    0  501    0  0.00000000000E+00 -0.00000000000E+00 -0.31903661896E+04  0.31903661896E+04  0.00000000000E+00 0.  1.
    2000013    1    1    2    0    0 -0.31449760338E+03 -0.67753260521E+03 -0.10885244407E+04  0.16264515460E+04  0.95000000000E+03 0.  0.
   -2000013    1    1    2    0    0  0.31449760338E+03  0.67753260521E+03 -0.16336752191E+04  0.20320811734E+04  0.95000000000E+03 0.  0.
<mgrwt>
<rscale>  0 0.24442771E+04</rscale>
<asrwt>0</asrwt>
<pdfrwt beam="2">  1        1 0.49082558E+00 0.24442771E+04</pdfrwt>
<pdfrwt beam="1">  1       -1 0.72025619E-01 0.24442771E+04</pdfrwt>
<totfact> 0.75086310E-01</totfact>
</mgrwt>
</event>
<event>
 4    1  0.1295381E-008  0.3369691E+04  0.7816531E-02  0.8145385E-01
          2   -1    0    0  501    0  0.00000000000E+00  0.00000000000E+00  0.31607275891E+04  0.31607275891E+04  0.00000000000E+00 0.  1.
         -2   -1    0    0    0  501 -0.00000000000E+00 -0.00000000000E+00 -0.89811732416E+03  0.89811732416E+03  0.00000000000E+00 0. -1.
    2000013    1    1    2    0    0  0.61117560505E+03  0.75126939252E+03 -0.72163716632E+02  0.13585466213E+04  0.95000000000E+03 0.  0.
   -2000013    1    1    2    0    0 -0.61117560505E+03 -0.75126939252E+03  0.23347739816E+04  0.27002982919E+04  0.95000000000E+03 0.  0.
<mgrwt>
<rscale>  0 0.33696909E+04</rscale>
<asrwt>0</asrwt>
<pdfrwt beam="1">  1        2 0.48626578E+00 0.33696909E+04</pdfrwt>
<pdfrwt beam="2">  1       -2 0.13817190E+00 0.33696909E+04</pdfrwt>
<totfact> 0.42406093E-01</totfact>
</mgrwt>
</event>
<event>
 4    1  0.1295381E-008  0.2939153E+04  0.7816531E-02  0.8261323E-01
         -2   -1    0    0    0  501 -0.00000000000E+00  0.00000000000E+00  0.14017612298E+04  0.14017612298E+04  0.00000000000E+00 0. -1.
          2   -1    0    0  501    0  0.00000000000E+00 -0.00000000000E+00 -0.15406727836E+04  0.15406727836E+04  0.00000000000E+00 0.  1.
    2000013    1    1    2    0    0 -0.10846268815E+03  0.98643989843E+03 -0.59188841027E+03  0.14958809171E+04  0.95000000000E+03 0.  0.
   -2000013    1    1    2    0    0  0.10846268815E+03 -0.98643989843E+03  0.45297685651E+03  0.14465530963E+04  0.95000000000E+03 0.  0.
<mgrwt>
<rscale>  0 0.29391532E+04</rscale>
<asrwt>0</asrwt>
<pdfrwt beam="2">  1        2 0.23702658E+00 0.29391532E+04</pdfrwt>
<pdfrwt beam="1">  1       -2 0.21565557E+00 0.29391532E+04</pdfrwt>
<totfact> 0.10911641E+00</totfact>
</mgrwt>
</event>
<event>
 4    1  0.1295381E-008  0.2317902E+04  0.7816531E-02  0.8470896E-01
          2   -1    0    0  501    0  0.00000000000E+00  0.00000000000E+00  0.94463057543E+03  0.94463057543E+03  0.00000000000E+00 0.  1.
         -2   -1    0    0    0  501 -0.00000000000E+00 -0.00000000000E+00 -0.14218966282E+04  0.14218966282E+04  0.00000000000E+00 0. -1.
    2000013    1    1    2    0    0 -0.16542660768E+03  0.57940323429E+03 -0.52303175639E+03  0.12406193166E+04  0.95000000000E+03 0.  0.
   -2000013    1    1    2    0    0  0.16542660768E+03 -0.57940323429E+03  0.45765703656E+02  0.11259078870E+04  0.95000000000E+03 0.  0.
<mgrwt>
<rscale>  0 0.23179017E+04</rscale>
<asrwt>0</asrwt>
<pdfrwt beam="1">  1        2 0.14532778E+00 0.23179017E+04</pdfrwt>
<pdfrwt beam="2">  1       -2 0.21875333E+00 0.23179017E+04</pdfrwt>
<totfact> 0.24935189E+00</totfact>
</mgrwt>
</event>
<event>
 4    1  0.1295381E-008  0.3437280E+04  0.7816531E-02  0.8128817E-01
         -2   -1    0    0    0  501 -0.00000000000E+00  0.00000000000E+00  0.11659040494E+04  0.11659040494E+04  0.00000000000E+00 0. -1.
          2   -1    0    0  501    0  0.00000000000E+00 -0.00000000000E+00 -0.25334186042E+04  0.25334186042E+04  0.00000000000E+00 0.  1.
    2000013    1    1    2    0    0  0.11006685110E+04 -0.70825839503E+03 -0.13095694027E+04  0.20810029183E+04  0.95000000000E+03 0.  0.
   -2000013    1    1    2    0    0 -0.11006685110E+04  0.70825839503E+03 -0.57945152134E+02  0.16183197354E+04  0.95000000000E+03 0.  0.
<mgrwt>
<rscale>  0 0.34372797E+04</rscale>
<asrwt>0</asrwt>
<pdfrwt beam="2">  1        2 0.38975671E+00 0.34372797E+04</pdfrwt>
<pdfrwt beam="1">  1       -2 0.17936986E+00 0.34372797E+04</pdfrwt>
<totfact> 0.50348721E-01</totfact>
</mgrwt>
</event>
<event>
 4    1  0.1295381E-008  0.2311542E+04  0.7816531E-02  0.8473384E-01
         -2   -1    0    0    0  501 -0.00000000000E+00  0.00000000000E+00  0.78111292023E+03  0.78111292023E+03  0.00000000000E+00 0. -1.
          2   -1    0    0  501    0  0.00000000000E+00 -0.00000000000E+00 -0.17101321473E+04  0.17101321473E+04  0.00000000000E+00 0.  1.
    2000013    1    1    2    0    0  0.18685014415E+03  0.53149330692E+03 -0.97589264470E+02  0.11087929366E+04  0.95000000000E+03 0.  0.
   -2000013    1    1    2    0    0 -0.18685014415E+03 -0.53149330692E+03 -0.83142996259E+03  0.13824521309E+04  0.95000000000E+03 0.  0.
<mgrwt>
<rscale>  0 0.23115418E+04</rscale>
<asrwt>0</asrwt>
<pdfrwt beam="2">  1        2 0.26309725E+00 0.23115418E+04</pdfrwt>
<pdfrwt beam="1">  1       -2 0.12017122E+00 0.23115418E+04</pdfrwt>
<totfact> 0.46399095E+00</totfact>
</mgrwt>
</event>
<event>
 4    1  0.1295381E-008  0.2567598E+04  0.7816531E-02  0.8379291E-01
          2   -1    0    0  501    0  0.00000000000E+00  0.00000000000E+00  0.62700789761E+03  0.62700789761E+03  0.00000000000E+00 0.  1.
         -2   -1    0    0    0  501 -0.00000000000E+00 -0.00000000000E+00 -0.26285790390E+04  0.26285790390E+04  0.00000000000E+00 0. -1.
    2000013    1    1    2    0    0 -0.54810747560E+03  0.66154447974E+03 -0.11111549094E+04  0.16956497681E+04  0.95000000000E+03 0.  0.
   -2000013    1    1    2    0    0  0.54810747560E+03 -0.66154447974E+03 -0.89041623204E+03  0.15599371685E+04  0.95000000000E+03 0.  0.
<mgrwt>
<rscale>  0 0.25675980E+04</rscale>
<asrwt>0</asrwt>
<pdfrwt beam="1">  1        2 0.96462754E-01 0.25675980E+04</pdfrwt>
<pdfrwt beam="2">  1       -2 0.40439677E+00 0.25675980E+04</pdfrwt>
<totfact> 0.28959218E-01</totfact>
</mgrwt>
</event>
<event>
 4    1  0.1295381E-008  0.2171062E+04  0.7816531E-02  0.8530570E-01
         -2   -1    0    0    0  501 -0.00000000000E+00  0.00000000000E+00  0.75467257394E+03  0.75467257394E+03  0.00000000000E+00 0. -1.
          2   -1    0    0  501    0  0.00000000000E+00 -0.00000000000E+00 -0.15614417327E+04  0.15614417327E+04  0.00000000000E+00 0.  1.
    2000013    1    1    2    0    0 -0.49002708225E+03  0.86668442752E+02 -0.22411165039E+03  0.10956112413E+04  0.95000000000E+03 0.  0.
   -2000013    1    1    2    0    0  0.49002708225E+03 -0.86668442752E+02 -0.58265750834E+03  0.12205030653E+04  0.95000000000E+03 0.  0.
<mgrwt>
<rscale>  0 0.21710617E+04</rscale>
<asrwt>0</asrwt>
<pdfrwt beam="2">  1        2 0.24022180E+00 0.21710617E+04</pdfrwt>
<pdfrwt beam="1">  1       -2 0.11610347E+00 0.21710617E+04</pdfrwt>
<totfact> 0.61870213E+00</totfact>
</mgrwt>
</event>
<event>
 4    1  0.1295381E-008  0.4088778E+04  0.7816531E-02  0.7986873E-01
         -2   -1    0    0    0  501 -0.00000000000E+00  0.00000000000E+00  0.12226269060E+04  0.12226269060E+04  0.00000000000E+00 0. -1.
          2   -1    0    0  501    0  0.00000000000E+00 -0.00000000000E+00 -0.34184807125E+04  0.34184807125E+04  0.00000000000E+00 0.  1.
    2000013    1    1    2    0    0  0.15758433782E+04  0.46084204349E+03 -0.19634007441E+04  0.27300366707E+04  0.95000000000E+03 0.  0.
   -2000013    1    1    2    0    0 -0.15758433782E+04 -0.46084204349E+03 -0.23245306241E+03  0.19110709479E+04  0.95000000000E+03 0.  0.
<mgrwt>
<rscale>  0 0.40887781E+04</rscale>
<asrwt>0</asrwt>
<pdfrwt beam="2">  1        2 0.52592010E+00 0.40887781E+04</pdfrwt>
<pdfrwt beam="1">  1       -2 0.18809645E+00 0.40887781E+04</pdfrwt>
<totfact> 0.11560677E-01</totfact>
</mgrwt>
</event>
<event>
 4    1  0.1295381E-008  0.2993804E+04  0.7816531E-02  0.8245502E-01
          2   -1    0    0  501    0  0.00000000000E+00  0.00000000000E+00  0.10642802450E+04  0.10642802450E+04  0.00000000000E+00 0.  1.
         -2   -1    0    0    0  501 -0.00000000000E+00 -0.00000000000E+00 -0.21053810633E+04  0.21053810633E+04  0.00000000000E+00 0. -1.
    2000013    1    1    2    0    0  0.20501250062E+03 -0.23064855470E+03  0.65983199874E+03  0.11971245331E+04  0.95000000000E+03 0.  0.
   -2000013    1    1    2    0    0 -0.20501250062E+03  0.23064855470E+03 -0.17009328171E+04  0.19725367752E+04  0.95000000000E+03 0.  0.
<mgrwt>
<rscale>  0 0.29938039E+04</rscale>
<asrwt>0</asrwt>
<pdfrwt beam="1">  1        2 0.16373542E+00 0.29938039E+04</pdfrwt>
<pdfrwt beam="2">  1       -2 0.32390478E+00 0.29938039E+04</pdfrwt>
<totfact> 0.44471276E-01</totfact>
</mgrwt>
</event>
<event>
 4    1  0.1295381E-008  0.2446148E+04  0.7816531E-02  0.8422426E-01
          1   -1    0    0  501    0  0.00000000000E+00  0.00000000000E+00  0.16623720789E+04  0.16623720789E+04  0.00000000000E+00 0.  1.
         -1   -1    0    0    0  501 -0.00000000000E+00 -0.00000000000E+00 -0.89986466142E+03  0.89986466142E+03  0.00000000000E+00 0. -1.
    2000013    1    1    2    0    0 -0.25777861870E+03  0.70948278293E+03  0.22035978133E+03  0.12332372313E+04  0.95000000000E+03 0.  0.
   -2000013    1    1    2    0    0  0.25777861870E+03 -0.70948278293E+03  0.54214763617E+03  0.13289995090E+04  0.95000000000E+03 0.  0.
<mgrwt>
<rscale>  0 0.24461479E+04</rscale>
<asrwt>0</asrwt>
<pdfrwt beam="1">  1        1 0.25574955E+00 0.24461479E+04</pdfrwt>
<pdfrwt beam="2">  1       -1 0.13844072E+00 0.24461479E+04</pdfrwt>
<totfact> 0.19480028E+00</totfact>
</mgrwt>
</event>
<event>
 4    1  0.1295381E-008  0.2329330E+04  0.7816531E-02  0.8466446E-01
          2   -1    0    0  501    0  0.00000000000E+00  0.00000000000E+00  0.19482316599E+04  0.19482316599E+04  0.00000000000E+00 0.  1.
         -2   -1    0    0    0  501 -0.00000000000E+00 -0.00000000000E+00 -0.69624407815E+03  0.69624407815E+03  0.00000000000E+00 0. -1.
    2000013    1    1    2    0    0  0.58887417843E+03 -0.32733058883E+03  0.63185389857E+03  0.13250122496E+04  0.95000000000E+03 0.  0.
   -2000013    1    1    2    0    0 -0.58887417843E+03  0.32733058883E+03  0.62013368319E+03  0.13194634885E+04  0.95000000000E+03 0.  0.
<mgrwt>
<rscale>  0 0.23293302E+04</rscale>
<asrwt>0</asrwt>
<pdfrwt beam="1">  1        2 0.29972795E+00 0.23293302E+04</pdfrwt>
<pdfrwt beam="2">  1       -2 0.10711447E+00 0.23293302E+04</pdfrwt>
<totfact> 0.45238711E+00</totfact>
</mgrwt>
</event>
<event>
 4    1  0.1295381E-008  0.2173069E+04  0.7816531E-02  0.8529722E-01
          2   -1    0    0  501    0  0.00000000000E+00  0.00000000000E+00  0.15496813801E+04  0.15496813801E+04  0.00000000000E+00 0.  1.
         -2   -1    0    0    0  501 -0.00000000000E+00 -0.00000000000E+00 -0.76180646160E+03  0.76180646160E+03  0.00000000000E+00 0. -1.
    2000013    1    1    2    0    0 -0.43552403488E+03  0.19583918140E+03  0.15603251539E+03  0.10746535794E+04  0.95000000000E+03 0.  0.
   -2000013    1    1    2    0    0  0.43552403488E+03 -0.19583918140E+03  0.63184240309E+03  0.12368342622E+04  0.95000000000E+03 0.  0.
<mgrwt>
<rscale>  0 0.21730691E+04</rscale>
<asrwt>0</asrwt>
<pdfrwt beam="1">  1        2 0.23841252E+00 0.21730691E+04</pdfrwt>
<pdfrwt beam="2">  1       -2 0.11720099E+00 0.21730691E+04</pdfrwt>
<totfact> 0.61377395E+00</totfact>
</mgrwt>
</event>
<event>
 4    1  0.1295381E-008  0.2607898E+04  0.7816531E-02  0.8365524E-01
          2   -1    0    0  501    0  0.00000000000E+00  0.00000000000E+00  0.22999403611E+04  0.22999403611E+04  0.00000000000E+00 0.  1.
         -2   -1    0    0    0  501 -0.00000000000E+00 -0.00000000000E+00 -0.73927238995E+03  0.73927238995E+03  0.00000000000E+00 0. -1.
    2000013    1    1    2    0    0 -0.40679972321E+03  0.75495475694E+03  0.48936080788E+03  0.13701885637E+04  0.95000000000E+03 0.  0.
   -2000013    1    1    2    0    0  0.40679972321E+03 -0.75495475694E+03  0.10713071632E+04  0.16690241873E+04  0.95000000000E+03 0.  0.
<mgrwt>
<rscale>  0 0.26078975E+04</rscale>
<asrwt>0</asrwt>
<pdfrwt beam="1">  1        2 0.35383698E+00 0.26078975E+04</pdfrwt>
<pdfrwt beam="2">  1       -2 0.11373421E+00 0.26078975E+04</pdfrwt>
<totfact> 0.24276424E+00</totfact>
</mgrwt>
</event>
<event>
 4    1  0.1295381E-008  0.2341044E+04  0.7816531E-02  0.8461912E-01
         -2   -1    0    0    0  501 -0.00000000000E+00  0.00000000000E+00  0.46194350034E+03  0.46194350034E+03  0.00000000000E+00 0.  1.
          2   -1    0    0  501    0  0.00000000000E+00 -0.00000000000E+00 -0.29659936691E+04  0.29659936691E+04  0.00000000000E+00 0. -1.
    2000013    1    1    2    0    0  0.32676086951E+03 -0.56178830673E+03 -0.15634818139E+04  0.19414824619E+04  0.95000000000E+03 0.  0.
   -2000013    1    1    2    0    0 -0.32676086951E+03  0.56178830673E+03 -0.94056835487E+03  0.14864547076E+04  0.95000000000E+03 0.  0.
<mgrwt>
<rscale>  0 0.23410438E+04</rscale>
<asrwt>0</asrwt>
<pdfrwt beam="2">  1        2 0.45630671E+00 0.23410438E+04</pdfrwt>
<pdfrwt beam="1">  1       -2 0.71068233E-01 0.23410438E+04</pdfrwt>
<totfact> 0.29728791E+00</totfact>
</mgrwt>
</event>
<event>
 4    1  0.1295381E-008  0.2748153E+04  0.7816531E-02  0.8319548E-01
         -2   -1    0    0    0  501 -0.00000000000E+00  0.00000000000E+00  0.79274153982E+03  0.79274153982E+03  0.00000000000E+00 0. -1.
          2   -1    0    0  501    0  0.00000000000E+00 -0.00000000000E+00 -0.23817171208E+04  0.23817171208E+04  0.00000000000E+00 0.  1.
    2000013    1    1    2    0    0 -0.68359005927E+03 -0.46957516212E+03 -0.16413488088E+03  0.12717061222E+04  0.95000000000E+03 0.  0.
   -2000013    1    1    2    0    0  0.68359005927E+03  0.46957516212E+03 -0.14248407001E+04  0.19027525385E+04  0.95000000000E+03 0.  0.
<mgrwt>
<rscale>  0 0.27481529E+04</rscale>
<asrwt>0</asrwt>
<pdfrwt beam="2">  1        2 0.36641801E+00 0.27481529E+04</pdfrwt>
<pdfrwt beam="1">  1       -2 0.12196024E+00 0.27481529E+04</pdfrwt>
<totfact> 0.18146133E+00</totfact>
</mgrwt>
</event>
<event>
 4    1  0.1295381E-008  0.2132304E+04  0.7816531E-02  0.8547145E-01
          1   -1    0    0  501    0  0.00000000000E+00  0.00000000000E+00  0.89419060324E+03  0.89419060324E+03  0.00000000000E+00 0.  1.
         -1   -1    0    0    0  501 -0.00000000000E+00 -0.00000000000E+00 -0.12711827634E+04  0.12711827634E+04  0.00000000000E+00 0. -1.
    2000013    1    1    2    0    0  0.15872154356E+02 -0.44469579311E+03  0.46466926549E+01  0.10490604680E+04  0.95000000000E+03 0.  0.
   -2000013    1    1    2    0    0 -0.15872154356E+02  0.44469579311E+03 -0.38163885278E+03  0.11163128986E+04  0.95000000000E+03 0.  0.
<mgrwt>
<rscale>  0 0.21323036E+04</rscale>
<asrwt>0</asrwt>
<pdfrwt beam="1">  1        1 0.13756778E+00 0.21323036E+04</pdfrwt>
<pdfrwt beam="2">  1       -1 0.19556658E+00 0.21323036E+04</pdfrwt>
<totfact> 0.27255413E+00</totfact>
</mgrwt>
</event>
<event>
 4    1  0.1295381E-008  0.3940190E+04  0.7816531E-02  0.8016722E-01
          1   -1    0    0  501    0  0.00000000000E+00  0.00000000000E+00  0.25683330485E+04  0.25683330485E+04  0.00000000000E+00 0.  1.
         -1   -1    0    0    0  501 -0.00000000000E+00 -0.00000000000E+00 -0.15112034336E+04  0.15112034336E+04  0.00000000000E+00 0. -1.
    2000013    1    1    2    0    0 -0.13705466743E+04 -0.96064611184E+03  0.92315076625E+02  0.19267229204E+04  0.95000000000E+03 0.  0.
   -2000013    1    1    2    0    0  0.13705466743E+04  0.96064611184E+03  0.96481453828E+03  0.21528135618E+04  0.95000000000E+03 0.  0.
<mgrwt>
<rscale>  0 0.39401897E+04</rscale>
<asrwt>0</asrwt>
<pdfrwt beam="1">  1        1 0.39512816E+00 0.39401897E+04</pdfrwt>
<pdfrwt beam="2">  1       -1 0.23249284E+00 0.39401897E+04</pdfrwt>
<totfact> 0.86768655E-02</totfact>
</mgrwt>
</event>
<event>
 4    1  0.1295381E-008  0.2397871E+04  0.7816531E-02  0.8440301E-01
         -2   -1    0    0    0  501 -0.00000000000E+00  0.00000000000E+00  0.86209895820E+03  0.86209895820E+03  0.00000000000E+00 0. -1.
          2   -1    0    0  501    0  0.00000000000E+00 -0.00000000000E+00 -0.16673803283E+04  0.16673803283E+04  0.00000000000E+00 0.  1.
    2000013    1    1    2    0    0 -0.63143975602E+03 -0.28697051601E+03 -0.15778319596E+03  0.11867871669E+04  0.95000000000E+03 0.  0.
   -2000013    1    1    2    0    0  0.63143975602E+03  0.28697051601E+03 -0.64749817412E+03  0.13426921196E+04  0.95000000000E+03 0.  0.
<mgrwt>
<rscale>  0 0.23978714E+04</rscale>
<asrwt>0</asrwt>
<pdfrwt beam="2">  1        2 0.25652005E+00 0.23978714E+04</pdfrwt>
<pdfrwt beam="1">  1       -2 0.13263061E+00 0.23978714E+04</pdfrwt>
<totfact> 0.37966865E+00</totfact>
</mgrwt>
</event>
<event>
 4    1  0.1295381E-008  0.2351943E+04  0.7816531E-02  0.8457718E-01
         -1   -1    0    0    0  501 -0.00000000000E+00  0.00000000000E+00  0.21731057835E+04  0.21731057835E+04  0.00000000000E+00 0.  1.
          1   -1    0    0  501    0  0.00000000000E+00 -0.00000000000E+00 -0.63637460866E+03  0.63637460866E+03  0.00000000000E+00 0. -1.
    2000013    1    1    2    0    0 -0.89481901523E+02 -0.67893879409E+03  0.89615548920E+03  0.14746387889E+04  0.95000000000E+03 0.  0.
   -2000013    1    1    2    0    0  0.89481901523E+02  0.67893879409E+03  0.64057568564E+03  0.13348416033E+04  0.95000000000E+03 0.  0.
<mgrwt>
<rscale>  0 0.23519433E+04</rscale>
<asrwt>0</asrwt>
<pdfrwt beam="2">  1        1 0.97903787E-01 0.23519433E+04</pdfrwt>
<pdfrwt beam="1">  1       -1 0.33432396E+00 0.23519433E+04</pdfrwt>
<totfact> 0.55790197E-01</totfact>
</mgrwt>
</event>
<event>
 4    1  0.1295381E-008  0.2792972E+04  0.7816531E-02  0.8305454E-01
          2   -1    0    0  501    0  0.00000000000E+00  0.00000000000E+00  0.10984931831E+04  0.10984931831E+04  0.00000000000E+00 0.  1.
         -2   -1    0    0    0  501 -0.00000000000E+00 -0.00000000000E+00 -0.17753166559E+04  0.17753166559E+04  0.00000000000E+00 0. -1.
    2000013    1    1    2    0    0  0.79358828995E+03 -0.49774594289E+03 -0.76283038023E+03  0.15368616029E+04  0.95000000000E+03 0.  0.
   -2000013    1    1    2    0    0 -0.79358828995E+03  0.49774594289E+03  0.86006907428E+02  0.13369482360E+04  0.95000000000E+03 0.  0.
<mgrwt>
<rscale>  0 0.27929721E+04</rscale>
<asrwt>0</asrwt>
<pdfrwt beam="1">  1        2 0.16899895E+00 0.27929721E+04</pdfrwt>
<pdfrwt beam="2">  1       -2 0.27312564E+00 0.27929721E+04</pdfrwt>
<totfact> 0.88166594E-01</totfact>
</mgrwt>
</event>
<event>
 4    1  0.1295381E-008  0.2171082E+04  0.7816531E-02  0.8530562E-01
          2   -1    0    0  501    0  0.00000000000E+00  0.00000000000E+00  0.10722906624E+04  0.10722906624E+04  0.00000000000E+00 0.  1.
         -2   -1    0    0    0  501 -0.00000000000E+00 -0.00000000000E+00 -0.10989555567E+04  0.10989555567E+04  0.00000000000E+00 0. -1.
    2000013    1    1    2    0    0 -0.24644808217E+03  0.26477362261E+03  0.36756115273E+03  0.10809453869E+04  0.95000000000E+03 0.  0.
   -2000013    1    1    2    0    0  0.24644808217E+03 -0.26477362261E+03 -0.39422604702E+03  0.10903008321E+04  0.95000000000E+03 0.  0.
<mgrwt>
<rscale>  0 0.21710825E+04</rscale>
<asrwt>0</asrwt>
<pdfrwt beam="1">  1        2 0.16496779E+00 0.21710825E+04</pdfrwt>
<pdfrwt beam="2">  1       -2 0.16907009E+00 0.21710825E+04</pdfrwt>
<totfact> 0.44939931E+00</totfact>
</mgrwt>
</event>
<event>
 4    1  0.1295381E-008  0.2792213E+04  0.7816531E-02  0.8305690E-01
          2   -1    0    0  501    0  0.00000000000E+00  0.00000000000E+00  0.69888711987E+03  0.69888711987E+03  0.00000000000E+00 0.  1.
         -2   -1    0    0    0  501 -0.00000000000E+00 -0.00000000000E+00 -0.27888817977E+04  0.27888817977E+04  0.00000000000E+00 0. -1.
    2000013    1    1    2    0    0 -0.98017068882E+03 -0.27472161565E+03 -0.11724246062E+04  0.18202433910E+04  0.95000000000E+03 0.  0.
   -2000013    1    1    2    0    0  0.98017068882E+03  0.27472161565E+03 -0.91757007163E+03  0.16675255265E+04  0.95000000000E+03 0.  0.
<mgrwt>
<rscale>  0 0.27922131E+04</rscale>
<asrwt>0</asrwt>
<pdfrwt beam="1">  1        2 0.10752110E+00 0.27922131E+04</pdfrwt>
<pdfrwt beam="2">  1       -2 0.42905874E+00 0.27922131E+04</pdfrwt>
<totfact> 0.17059854E-01</totfact>
</mgrwt>
</event>
<event>
 4    1  0.1295381E-008  0.2102443E+04  0.7816531E-02  0.8560168E-01
          1   -1    0    0  501    0  0.00000000000E+00  0.00000000000E+00  0.21808180578E+04  0.21808180578E+04  0.00000000000E+00 0.  1.
         -1   -1    0    0    0  501 -0.00000000000E+00 -0.00000000000E+00 -0.50672108546E+03  0.50672108546E+03  0.00000000000E+00 0. -1.
    2000013    1    1    2    0    0 -0.36326508191E+03  0.25965961274E+03  0.90915443182E+03  0.13886851389E+04  0.95000000000E+03 0.  0.
   -2000013    1    1    2    0    0  0.36326508191E+03 -0.25965961274E+03  0.76494254052E+03  0.12988540043E+04  0.95000000000E+03 0.  0.
<mgrwt>
<rscale>  0 0.21024429E+04</rscale>
<asrwt>0</asrwt>
<pdfrwt beam="1">  1        1 0.33551047E+00 0.21024429E+04</pdfrwt>
<pdfrwt beam="2">  1       -1 0.77957091E-01 0.21024429E+04</pdfrwt>
<totfact> 0.34020039E+00</totfact>
</mgrwt>
</event>
<event>
 4    1  0.1295381E-008  0.2930290E+04  0.7816531E-02  0.8263922E-01
          2   -1    0    0  501    0  0.00000000000E+00  0.00000000000E+00  0.35459103230E+04  0.35459103230E+04  0.00000000000E+00 0.  1.
         -2   -1    0    0    0  501 -0.00000000000E+00 -0.00000000000E+00 -0.60538752261E+03  0.60538752261E+03  0.00000000000E+00 0. -1.
    2000013    1    1    2    0    0  0.35257830262E+01 -0.10973123784E+04  0.11867722247E+04  0.18748427135E+04  0.95000000000E+03 0.  0.
   -2000013    1    1    2    0    0 -0.35257830262E+01  0.10973123784E+04  0.17537505756E+04  0.22764551321E+04  0.95000000000E+03 0.  0.
<mgrwt>
<rscale>  0 0.29302900E+04</rscale>
<asrwt>0</asrwt>
<pdfrwt beam="1">  1        2 0.54552465E+00 0.29302900E+04</pdfrwt>
<pdfrwt beam="2">  1       -2 0.93136544E-01 0.29302900E+04</pdfrwt>
<totfact> 0.63377212E-01</totfact>
</mgrwt>
</event>
<event>
 4    1  0.1295381E-008  0.2644140E+04  0.7816531E-02  0.8353361E-01
         -2   -1    0    0    0  501 -0.00000000000E+00  0.00000000000E+00  0.12733653740E+04  0.12733653740E+04  0.00000000000E+00 0. -1.
          2   -1    0    0  501    0  0.00000000000E+00 -0.00000000000E+00 -0.13726375065E+04  0.13726375065E+04  0.00000000000E+00 0.  1.
    2000013    1    1    2    0    0 -0.67053746422E+02  0.79630871377E+03  0.40539882129E+03  0.13059295451E+04  0.95000000000E+03 0.  0.
   -2000013    1    1    2    0    0  0.67053746422E+02 -0.79630871377E+03 -0.50467095383E+03  0.13400733354E+04  0.95000000000E+03 0.  0.
<mgrwt>
<rscale>  0 0.26441400E+04</rscale>
<asrwt>0</asrwt>
<pdfrwt beam="2">  1        2 0.21117500E+00 0.26441400E+04</pdfrwt>
<pdfrwt beam="1">  1       -2 0.19590236E+00 0.26441400E+04</pdfrwt>
<totfact> 0.18719534E+00</totfact>
</mgrwt>
</event>
<event>
 4    1  0.1295381E-008  0.2415312E+04  0.7816531E-02  0.8433793E-01
         -1   -1    0    0    0  501 -0.00000000000E+00  0.00000000000E+00  0.70848734522E+03  0.70848734522E+03  0.00000000000E+00 0. -1.
          1   -1    0    0  501    0  0.00000000000E+00 -0.00000000000E+00 -0.20585161235E+04  0.20585161235E+04  0.00000000000E+00 0.  1.
    2000013    1    1    2    0    0 -0.18731461464E+03 -0.42789524424E+03 -0.92275932291E+01  0.10586624832E+04  0.95000000000E+03 0.  0.
   -2000013    1    1    2    0    0  0.18731461464E+03  0.42789524424E+03 -0.13408011851E+04  0.17083409855E+04  0.95000000000E+03 0.  0.
<mgrwt>
<rscale>  0 0.24153117E+04</rscale>
<asrwt>0</asrwt>
<pdfrwt beam="2">  1        1 0.31669479E+00 0.24153117E+04</pdfrwt>
<pdfrwt beam="1">  1       -1 0.10899805E+00 0.24153117E+04</pdfrwt>
<totfact> 0.18975733E+00</totfact>
</mgrwt>
</event>
<event>
 4    1  0.1295381E-008  0.2113704E+04  0.7816531E-02  0.8555231E-01
          1   -1    0    0  501    0  0.00000000000E+00  0.00000000000E+00  0.17162402744E+04  0.17162402744E+04  0.00000000000E+00 0.  1.
         -1   -1    0    0    0  501 -0.00000000000E+00 -0.00000000000E+00 -0.65080398862E+03  0.65080398862E+03  0.00000000000E+00 0. -1.
    2000013    1    1    2    0    0  0.37505514452E+03 -0.17110312015E+03  0.29650181169E+03  0.10771982007E+04  0.95000000000E+03 0.  0.
   -2000013    1    1    2    0    0 -0.37505514452E+03  0.17110312015E+03  0.76893447411E+03  0.12898460624E+04  0.95000000000E+03 0.  0.
<mgrwt>
<rscale>  0 0.21137039E+04</rscale>
<asrwt>0</asrwt>
<pdfrwt beam="1">  1        1 0.26403696E+00 0.21137039E+04</pdfrwt>
<pdfrwt beam="2">  1       -1 0.10012369E+00 0.21137039E+04</pdfrwt>
<totfact> 0.40556761E+00</totfact>
</mgrwt>
</event>
<event>
 4    1  0.1295381E-008  0.2090711E+04  0.7816531E-02  0.8565346E-01
          2   -1    0    0  501    0  0.00000000000E+00  0.00000000000E+00  0.80090870583E+03  0.80090870583E+03  0.00000000000E+00 0.  1.
         -2   -1    0    0    0  501 -0.00000000000E+00 -0.00000000000E+00 -0.13644107854E+04  0.13644107854E+04  0.00000000000E+00 0. -1.
    2000013    1    1    2    0    0  0.21593751266E+03 -0.24613144106E+03  0.16732706023E+02  0.10049824273E+04  0.95000000000E+03 0.  0.
   -2000013    1    1    2    0    0 -0.21593751266E+03  0.24613144106E+03 -0.58023478564E+03  0.11603370640E+04  0.95000000000E+03 0.  0.
<mgrwt>
<rscale>  0 0.20907113E+04</rscale>
<asrwt>0</asrwt>
<pdfrwt beam="1">  1        2 0.12321673E+00 0.20907113E+04</pdfrwt>
<pdfrwt beam="2">  1       -2 0.20990935E+00 0.20907113E+04</pdfrwt>
<totfact> 0.36353984E+00</totfact>
</mgrwt>
</event>
<event>
 4    1  0.1295381E-008  0.2496692E+04  0.7816531E-02  0.8404165E-01
         -2   -1    0    0    0  501 -0.00000000000E+00  0.00000000000E+00  0.57914870316E+03  0.57914870316E+03  0.00000000000E+00 0. -1.
          2   -1    0    0  501    0  0.00000000000E+00 -0.00000000000E+00 -0.26907911060E+04  0.26907911060E+04  0.00000000000E+00 0.  1.
    2000013    1    1    2    0    0 -0.53923729357E+03 -0.57898152076E+03 -0.82945851611E+03  0.14887907476E+04  0.95000000000E+03 0.  0.
   -2000013    1    1    2    0    0  0.53923729357E+03  0.57898152076E+03 -0.12821838867E+04  0.17811490616E+04  0.95000000000E+03 0.  0.
<mgrwt>
<rscale>  0 0.24966924E+04</rscale>
<asrwt>0</asrwt>
<pdfrwt beam="2">  1        2 0.41396785E+00 0.24966924E+04</pdfrwt>
<pdfrwt beam="1">  1       -2 0.89099802E-01 0.24966924E+04</pdfrwt>
<totfact> 0.25946387E+00</totfact>
</mgrwt>
</event>
<event>
 4    1  0.1295381E-008  0.2914150E+04  0.7816531E-02  0.8268680E-01
          2   -1    0    0  501    0  0.00000000000E+00  0.00000000000E+00  0.24209429382E+04  0.24209429382E+04  0.00000000000E+00 0.  1.
         -2   -1    0    0    0  501 -0.00000000000E+00 -0.00000000000E+00 -0.87695916066E+03  0.87695916066E+03  0.00000000000E+00 0. -1.
    2000013    1    1    2    0    0 -0.92656901206E+03 -0.26973961443E+02  0.14522379073E+04  0.19674228494E+04  0.95000000000E+03 0.  0.
   -2000013    1    1    2    0    0  0.92656901206E+03  0.26973961443E+02  0.91745870219E+02  0.13304792495E+04  0.95000000000E+03 0.  0.
<mgrwt>
<rscale>  0 0.29141504E+04</rscale>
<asrwt>0</asrwt>
<pdfrwt beam="1">  1        2 0.37245276E+00 0.29141504E+04</pdfrwt>
<pdfrwt beam="2">  1       -2 0.13491679E+00 0.29141504E+04</pdfrwt>
<totfact> 0.13169858E+00</totfact>
</mgrwt>
</event>
<event>
 4    1  0.1295381E-008  0.2472622E+04  0.7816531E-02  0.8412805E-01
          2   -1    0    0  501    0  0.00000000000E+00  0.00000000000E+00  0.14928278640E+04  0.14928278640E+04  0.00000000000E+00 0.  1.
         -2   -1    0    0    0  501 -0.00000000000E+00 -0.00000000000E+00 -0.10238721056E+04  0.10238721056E+04  0.00000000000E+00 0. -1.
    2000013    1    1    2    0    0  0.51639037197E+03  0.34740212259E+03  0.73167078592E+03  0.13509957032E+04  0.95000000000E+03 0.  0.
   -2000013    1    1    2    0    0 -0.51639037197E+03 -0.34740212259E+03 -0.26271502756E+03  0.11657042664E+04  0.95000000000E+03 0.  0.
<mgrwt>
<rscale>  0 0.24726219E+04</rscale>
<asrwt>0</asrwt>
<pdfrwt beam="1">  1        2 0.22966583E+00 0.24726219E+04</pdfrwt>
<pdfrwt beam="2">  1       -2 0.15751879E+00 0.24726219E+04</pdfrwt>
<totfact> 0.30106889E+00</totfact>
</mgrwt>
</event>
<event>
 4    1  0.1295381E-008  0.4388929E+04  0.7816531E-02  0.7930376E-01
         -1   -1    0    0    0  501 -0.00000000000E+00  0.00000000000E+00  0.16755653122E+04  0.16755653122E+04  0.00000000000E+00 0.  1.
          1   -1    0    0  501    0  0.00000000000E+00 -0.00000000000E+00 -0.28740596087E+04  0.28740596087E+04  0.00000000000E+00 0. -1.
    2000013    1    1    2    0    0  0.95513100750E+03  0.15896205123E+04 -0.13129360422E+04  0.24628174243E+04  0.95000000000E+03 0.  0.
   -2000013    1    1    2    0    0 -0.95513100750E+03 -0.15896205123E+04  0.11444174572E+03  0.20868074966E+04  0.95000000000E+03 0.  0.
<mgrwt>
<rscale>  0 0.43889291E+04</rscale>
<asrwt>0</asrwt>
<pdfrwt beam="2">  1        1 0.44216301E+00 0.43889291E+04</pdfrwt>
<pdfrwt beam="1">  1       -1 0.25777928E+00 0.43889291E+04</pdfrwt>
<totfact> 0.34684966E-02</totfact>
</mgrwt>
</event>
<event>
 4    1  0.1295381E-008  0.2658050E+04  0.7816531E-02  0.8348746E-01
         -1   -1    0    0    0  501 -0.00000000000E+00  0.00000000000E+00  0.15296926795E+04  0.15296926795E+04  0.00000000000E+00 0.  1.
          1   -1    0    0  501    0  0.00000000000E+00 -0.00000000000E+00 -0.11546808434E+04  0.11546808434E+04  0.00000000000E+00 0. -1.
    2000013    1    1    2    0    0 -0.30778717731E+03  0.81952885890E+03 -0.12774955440E+03  0.12981450018E+04  0.95000000000E+03 0.  0.
   -2000013    1    1    2    0    0  0.30778717731E+03 -0.81952885890E+03  0.50276139048E+03  0.13862285211E+04  0.95000000000E+03 0.  0.
<mgrwt>
<rscale>  0 0.26580495E+04</rscale>
<asrwt>0</asrwt>
<pdfrwt beam="2">  1        1 0.17764321E+00 0.26580495E+04</pdfrwt>
<pdfrwt beam="1">  1       -1 0.23533734E+00 0.26580495E+04</pdfrwt>
<totfact> 0.87992916E-01</totfact>
</mgrwt>
</event>
<event>
 4    1  0.1295381E-008  0.2245162E+04  0.7816531E-02  0.8499862E-01
          2   -1    0    0  501    0  0.00000000000E+00  0.00000000000E+00  0.28132623494E+04  0.28132623494E+04  0.00000000000E+00 0.  1.
         -2   -1    0    0    0  501 -0.00000000000E+00 -0.00000000000E+00 -0.44794564942E+03  0.44794564942E+03  0.00000000000E+00 0. -1.
    2000013    1    1    2    0    0 -0.30889430750E+03 -0.34371818823E+03  0.63120467038E+03  0.12306409802E+04  0.95000000000E+03 0.  0.
   -2000013    1    1    2    0    0  0.30889430750E+03  0.34371818823E+03  0.17341120296E+04  0.20305670187E+04  0.95000000000E+03 0.  0.
<mgrwt>
<rscale>  0 0.22451625E+04</rscale>
<asrwt>0</asrwt>
<pdfrwt beam="1">  1        2 0.43280958E+00 0.22451625E+04</pdfrwt>
<pdfrwt beam="2">  1       -2 0.68914717E-01 0.22451625E+04</pdfrwt>
<totfact> 0.39782749E+00</totfact>
</mgrwt>
</event>
<event>
 4    1  0.1295381E-008  0.2361763E+04  0.7816531E-02  0.8453959E-01
          2   -1    0    0  501    0  0.00000000000E+00  0.00000000000E+00  0.21846092436E+04  0.21846092436E+04  0.00000000000E+00 0.  1.
         -2   -1    0    0    0  501 -0.00000000000E+00 -0.00000000000E+00 -0.63832058608E+03  0.63832058608E+03  0.00000000000E+00 0. -1.
    2000013    1    1    2    0    0 -0.23792085714E+03  0.47379562837E+03  0.22424302210E+03  0.11107986157E+04  0.95000000000E+03 0.  0.
   -2000013    1    1    2    0    0  0.23792085714E+03 -0.47379562837E+03  0.13220456354E+04  0.17121312140E+04  0.95000000000E+03 0.  0.
<mgrwt>
<rscale>  0 0.23617629E+04</rscale>
<asrwt>0</asrwt>
<pdfrwt beam="1">  1        2 0.33609373E+00 0.23617629E+04</pdfrwt>
<pdfrwt beam="2">  1       -2 0.98203168E-01 0.23617629E+04</pdfrwt>
<totfact> 0.40964228E+00</totfact>
</mgrwt>
</event>
<event>
 4    1  0.1295381E-008  0.2728901E+04  0.7816531E-02  0.8325688E-01
         -2   -1    0    0    0  501 -0.00000000000E+00  0.00000000000E+00  0.63273489840E+03  0.63273489840E+03  0.00000000000E+00 0. -1.
          2   -1    0    0  501    0  0.00000000000E+00 -0.00000000000E+00 -0.29423469834E+04  0.29423469834E+04  0.00000000000E+00 0.  1.
    2000013    1    1    2    0    0 -0.65509107643E+03  0.60559403227E+02 -0.20428482099E+03  0.11734752012E+04  0.95000000000E+03 0.  0.
   -2000013    1    1    2    0    0  0.65509107643E+03 -0.60559403227E+02 -0.21053272640E+04  0.24016066806E+04  0.95000000000E+03 0.  0.
<mgrwt>
<rscale>  0 0.27289013E+04</rscale>
<asrwt>0</asrwt>
<pdfrwt beam="2">  1        2 0.45266877E+00 0.27289013E+04</pdfrwt>
<pdfrwt beam="1">  1       -2 0.97343829E-01 0.27289013E+04</pdfrwt>
<totfact> 0.14567159E+00</totfact>
</mgrwt>
</event>
<event>
 4    1  0.1295381E-008  0.4251488E+04  0.7816531E-02  0.7955650E-01
         -2   -1    0    0    0  501 -0.00000000000E+00  0.00000000000E+00  0.18985485103E+04  0.18985485103E+04  0.00000000000E+00 0. -1.
          2   -1    0    0  501    0  0.00000000000E+00 -0.00000000000E+00 -0.23801278213E+04  0.23801278213E+04  0.00000000000E+00 0.  1.
    2000013    1    1    2    0    0  0.10094575540E+04 -0.13959948340E+04  0.56964389601E+03  0.20481211629E+04  0.95000000000E+03 0.  0.
   -2000013    1    1    2    0    0 -0.10094575540E+04  0.13959948340E+04 -0.10512232070E+04  0.22305551687E+04  0.95000000000E+03 0.  0.
<mgrwt>
<rscale>  0 0.42514883E+04</rscale>
<asrwt>0</asrwt>
<pdfrwt beam="2">  1        2 0.36617351E+00 0.42514883E+04</pdfrwt>
<pdfrwt beam="1">  1       -2 0.29208439E+00 0.42514883E+04</pdfrwt>
<totfact> 0.11210406E-01</totfact>
</mgrwt>
</event>
<event>
 4    1  0.1295381E-008  0.2250968E+04  0.7816531E-02  0.8497509E-01
         -2   -1    0    0    0  501 -0.00000000000E+00  0.00000000000E+00  0.78958535697E+03  0.78958535697E+03  0.00000000000E+00 0. -1.
          2   -1    0    0  501    0  0.00000000000E+00 -0.00000000000E+00 -0.16042773933E+04  0.16042773933E+04  0.00000000000E+00 0.  1.
    2000013    1    1    2    0    0 -0.48318256782E+03  0.34460513794E+03 -0.29086762548E+03  0.11572908323E+04  0.95000000000E+03 0.  0.
   -2000013    1    1    2    0    0  0.48318256782E+03 -0.34460513794E+03 -0.52382441084E+03  0.12365719180E+04  0.95000000000E+03 0.  0.
<mgrwt>
<rscale>  0 0.22509677E+04</rscale>
<asrwt>0</asrwt>
<pdfrwt beam="2">  1        2 0.24681191E+00 0.22509677E+04</pdfrwt>
<pdfrwt beam="1">  1       -2 0.12147467E+00 0.22509677E+04</pdfrwt>
<totfact> 0.52006054E+00</totfact>
</mgrwt>
</event>
<event>
 4    1  0.1295381E-008  0.2854497E+04  0.7816531E-02  0.8286546E-01
         -2   -1    0    0    0  501 -0.00000000000E+00  0.00000000000E+00  0.83625647244E+03  0.83625647244E+03  0.00000000000E+00 0. -1.
          2   -1    0    0  501    0  0.00000000000E+00 -0.00000000000E+00 -0.24359016614E+04  0.24359016614E+04  0.00000000000E+00 0.  1.
    2000013    1    1    2    0    0 -0.59052110315E+03 -0.85220041726E+03 -0.10796220853E+04  0.17728633821E+04  0.95000000000E+03 0.  0.
   -2000013    1    1    2    0    0  0.59052110315E+03  0.85220041726E+03 -0.52002310373E+03  0.14992947518E+04  0.95000000000E+03 0.  0.
<mgrwt>
<rscale>  0 0.28544972E+04</rscale>
<asrwt>0</asrwt>
<pdfrwt beam="2">  1        2 0.37475410E+00 0.28544972E+04</pdfrwt>
<pdfrwt beam="1">  1       -2 0.12865484E+00 0.28544972E+04</pdfrwt>
<totfact> 0.14640897E+00</totfact>
</mgrwt>
</event>
<event>
 4    1  0.1295381E-008  0.2027932E+04  0.7816531E-02  0.8593672E-01
          2   -1    0    0  501    0  0.00000000000E+00  0.00000000000E+00  0.25828823368E+04  0.25828823368E+04  0.00000000000E+00 0.  1.
         -2   -1    0    0    0  501 -0.00000000000E+00 -0.00000000000E+00 -0.39805407711E+03  0.39805407711E+03  0.00000000000E+00 0. -1.
    2000013    1    1    2    0    0  0.26657596156E+02  0.35270114379E+03  0.10589549879E+04  0.14659448798E+04  0.95000000000E+03 0.  0.
   -2000013    1    1    2    0    0 -0.26657596156E+02 -0.35270114379E+03  0.11258732718E+04  0.15149915341E+04  0.95000000000E+03 0.  0.
<mgrwt>
<rscale>  0 0.20279318E+04</rscale>
<asrwt>0</asrwt>
<pdfrwt beam="1">  1        2 0.39736650E+00 0.20279318E+04</pdfrwt>
<pdfrwt beam="2">  1       -2 0.61239090E-01 0.20279318E+04</pdfrwt>
<totfact> 0.71647075E+00</totfact>
</mgrwt>
</event>
<event>
 4    1  0.1295381E-008  0.2868109E+04  0.7816531E-02  0.8282430E-01
          2   -1    0    0  501    0  0.00000000000E+00  0.00000000000E+00  0.28051865272E+04  0.28051865272E+04  0.00000000000E+00 0.  1.
         -2   -1    0    0    0  501 -0.00000000000E+00 -0.00000000000E+00 -0.73311046840E+03  0.73311046840E+03  0.00000000000E+00 0. -1.
    2000013    1    1    2    0    0 -0.70784756110E+02 -0.90041314606E+03  0.31853739371E+03  0.13489701207E+04  0.95000000000E+03 0.  0.
   -2000013    1    1    2    0    0  0.70784756110E+02  0.90041314606E+03  0.17535386651E+04  0.21893268749E+04  0.95000000000E+03 0.  0.
<mgrwt>
<rscale>  0 0.28681085E+04</rscale>
<asrwt>0</asrwt>
<pdfrwt beam="1">  1        2 0.43156715E+00 0.28681085E+04</pdfrwt>
<pdfrwt beam="2">  1       -2 0.11278623E+00 0.28681085E+04</pdfrwt>
<totfact> 0.12277413E+00</totfact>
</mgrwt>
</event>
<event>
 4    1  0.1295381E-008  0.2253486E+04  0.7816531E-02  0.8496490E-01
          2   -1    0    0  501    0  0.00000000000E+00  0.00000000000E+00  0.19009462107E+04  0.19009462107E+04  0.00000000000E+00 0.  1.
         -2   -1    0    0    0  501 -0.00000000000E+00 -0.00000000000E+00 -0.66785139551E+03  0.66785139551E+03  0.00000000000E+00 0. -1.
    2000013    1    1    2    0    0  0.21879737618E+03  0.36534244169E+03  0.11077759234E+04  0.15202022523E+04  0.95000000000E+03 0.  0.
   -2000013    1    1    2    0    0 -0.21879737618E+03 -0.36534244169E+03  0.12531889177E+03  0.10485953539E+04  0.95000000000E+03 0.  0.
<mgrwt>
<rscale>  0 0.22534858E+04</rscale>
<asrwt>0</asrwt>
<pdfrwt beam="1">  1        2 0.29245326E+00 0.22534858E+04</pdfrwt>
<pdfrwt beam="2">  1       -2 0.10274637E+00 0.22534858E+04</pdfrwt>
<totfact> 0.53444023E+00</totfact>
</mgrwt>
</event>
<event>
 4    1  0.1295381E-008  0.3664843E+04  0.7816531E-02  0.8075798E-01
          2   -1    0    0  501    0  0.00000000000E+00  0.00000000000E+00  0.25033007743E+04  0.25033007743E+04  0.00000000000E+00 0.  1.
         -2   -1    0    0    0  501 -0.00000000000E+00 -0.00000000000E+00 -0.13413360966E+04  0.13413360966E+04  0.00000000000E+00 0. -1.
    2000013    1    1    2    0    0 -0.93845418085E+03 -0.12458222533E+04  0.42362921496E+03  0.18747615977E+04  0.95000000000E+03 0.  0.
   -2000013    1    1    2    0    0  0.93845418085E+03  0.12458222533E+04  0.73833546277E+03  0.19698752732E+04  0.95000000000E+03 0.  0.
<mgrwt>
<rscale>  0 0.36648425E+04</rscale>
<asrwt>0</asrwt>
<pdfrwt beam="1">  1        2 0.38512320E+00 0.36648425E+04</pdfrwt>
<pdfrwt beam="2">  1       -2 0.20635940E+00 0.36648425E+04</pdfrwt>
<totfact> 0.33962283E-01</totfact>
</mgrwt>
</event>
<event>
 4    1  0.1295381E-008  0.3912834E+04  0.7816531E-02  0.8022365E-01
         -2   -1    0    0    0  501 -0.00000000000E+00  0.00000000000E+00  0.23732220395E+04  0.23732220395E+04  0.00000000000E+00 0. -1.
          2   -1    0    0  501    0  0.00000000000E+00 -0.00000000000E+00 -0.16128143711E+04  0.16128143711E+04  0.00000000000E+00 0.  1.
    2000013    1    1    2    0    0  0.80713354427E+03 -0.14849612438E+04  0.11359759474E+03  0.19421583013E+04  0.95000000000E+03 0.  0.
   -2000013    1    1    2    0    0 -0.80713354427E+03  0.14849612438E+04  0.64681007366E+03  0.20438781092E+04  0.95000000000E+03 0.  0.
<mgrwt>
<rscale>  0 0.39128336E+04</rscale>
<asrwt>0</asrwt>
<pdfrwt beam="2">  1        2 0.24812529E+00 0.39128336E+04</pdfrwt>
<pdfrwt beam="1">  1       -2 0.36511108E+00 0.39128336E+04</pdfrwt>
<totfact> 0.10868044E-01</totfact>
</mgrwt>
</event>
<event>
 4    1  0.1295381E-008  0.4263544E+04  0.7816531E-02  0.7953394E-01
          2   -1    0    0  501    0  0.00000000000E+00  0.00000000000E+00  0.28848688872E+04  0.28848688872E+04  0.00000000000E+00 0.  1.
         -2   -1    0    0    0  501 -0.00000000000E+00 -0.00000000000E+00 -0.15752716752E+04  0.15752716752E+04  0.00000000000E+00 0. -1.
    2000013    1    1    2    0    0  0.18252558403E+04  0.46165718071E+03  0.98105447117E+03  0.23258663139E+04  0.95000000000E+03 0.  0.
   -2000013    1    1    2    0    0 -0.18252558403E+04 -0.46165718071E+03  0.32854274082E+03  0.21342742484E+04  0.95000000000E+03 0.  0.
<mgrwt>
<rscale>  0 0.42635442E+04</rscale>
<asrwt>0</asrwt>
<pdfrwt beam="1">  1        2 0.44382598E+00 0.42635442E+04</pdfrwt>
<pdfrwt beam="2">  1       -2 0.24234949E+00 0.42635442E+04</pdfrwt>
<totfact> 0.11351749E-01</totfact>
</mgrwt>
</event>
<event>
 4    1  0.1295381E-008  0.2311150E+04  0.7816531E-02  0.8473538E-01
          2   -1    0    0  501    0  0.00000000000E+00  0.00000000000E+00  0.17908802701E+04  0.17908802701E+04  0.00000000000E+00 0.  1.
         -2   -1    0    0    0  501 -0.00000000000E+00 -0.00000000000E+00 -0.74564117911E+03  0.74564117911E+03  0.00000000000E+00 0. -1.
    2000013    1    1    2    0    0 -0.29575709269E+03  0.47143774336E+03  0.90773346716E+03  0.14269568498E+04  0.95000000000E+03 0.  0.
   -2000013    1    1    2    0    0  0.29575709269E+03 -0.47143774336E+03  0.13750562384E+03  0.11095645994E+04  0.95000000000E+03 0.  0.
<mgrwt>
<rscale>  0 0.23111504E+04</rscale>
<asrwt>0</asrwt>
<pdfrwt beam="1">  1        2 0.27552004E+00 0.23111504E+04</pdfrwt>
<pdfrwt beam="2">  1       -2 0.11471403E+00 0.23111504E+04</pdfrwt>
<totfact> 0.46914223E+00</totfact>
</mgrwt>
</event>
<event>
 4    1  0.1295381E-008  0.2153773E+04  0.7816531E-02  0.8537919E-01
         -2   -1    0    0    0  501 -0.00000000000E+00  0.00000000000E+00  0.51764863700E+03  0.51764863700E+03  0.00000000000E+00 0. -1.
          2   -1    0    0  501    0  0.00000000000E+00 -0.00000000000E+00 -0.22402938358E+04  0.22402938358E+04  0.00000000000E+00 0.  1.
    2000013    1    1    2    0    0  0.31309813393E+03  0.39858388671E+03 -0.88295894690E+03  0.13924855684E+04  0.95000000000E+03 0.  0.
   -2000013    1    1    2    0    0 -0.31309813393E+03 -0.39858388671E+03 -0.83968625188E+03  0.13654569044E+04  0.95000000000E+03 0.  0.
<mgrwt>
<rscale>  0 0.21537735E+04</rscale>
<asrwt>0</asrwt>
<pdfrwt beam="2">  1        2 0.34466059E+00 0.21537735E+04</pdfrwt>
<pdfrwt beam="1">  1       -2 0.79638251E-01 0.21537735E+04</pdfrwt>
<totfact> 0.62785630E+00</totfact>
</mgrwt>
</event>
<event>
 4    1  0.1295381E-008  0.2345502E+04  0.7816531E-02  0.8460193E-01
         -2   -1    0    0    0  501 -0.00000000000E+00  0.00000000000E+00  0.98301828315E+03  0.98301828315E+03  0.00000000000E+00 0. -1.
          2   -1    0    0  501    0  0.00000000000E+00 -0.00000000000E+00 -0.13991038088E+04  0.13991038088E+04  0.00000000000E+00 0.  1.
    2000013    1    1    2    0    0 -0.50014891405E+03  0.44457525244E+03 -0.47304452137E+02  0.11629848677E+04  0.95000000000E+03 0.  0.
   -2000013    1    1    2    0    0  0.50014891405E+03 -0.44457525244E+03 -0.36878107348E+03  0.12191372242E+04  0.95000000000E+03 0.  0.
<mgrwt>
<rscale>  0 0.23455018E+04</rscale>
<asrwt>0</asrwt>
<pdfrwt beam="2">  1        2 0.21524674E+00 0.23455018E+04</pdfrwt>
<pdfrwt beam="1">  1       -2 0.15123358E+00 0.23455018E+04</pdfrwt>
<totfact> 0.38370198E+00</totfact>
</mgrwt>
</event>
<event>
 4    1  0.1295381E-008  0.2099669E+04  0.7816531E-02  0.8561389E-01
         -4   -1    0    0    0  501 -0.00000000000E+00  0.00000000000E+00  0.52987797753E+03  0.52987797753E+03  0.00000000000E+00 0. -1.
          4   -1    0    0  501    0  0.00000000000E+00 -0.00000000000E+00 -0.20800109461E+04  0.20800109461E+04  0.00000000000E+00 0.  1.
    2000013    1    1    2    0    0  0.39987516784E+03  0.10304055424E+03 -0.98723208740E+03  0.14309593635E+04  0.95000000000E+03 0.  0.
   -2000013    1    1    2    0    0 -0.39987516784E+03 -0.10304055424E+03 -0.56290088118E+03  0.11789295601E+04  0.95000000000E+03 0.  0.
<mgrwt>
<rscale>  0 0.20996685E+04</rscale>
<asrwt>0</asrwt>
<pdfrwt beam="2">  1        4 0.32000168E+00 0.20996685E+04</pdfrwt>
<pdfrwt beam="1">  1       -4 0.81519690E-01 0.20996685E+04</pdfrwt>
<totfact> 0.56738347E-02</totfact>
</mgrwt>
</event>
<event>
 4    1  0.1295381E-008  0.2331884E+04  0.7816531E-02  0.8465455E-01
         -2   -1    0    0    0  501 -0.00000000000E+00  0.00000000000E+00  0.97599679006E+03  0.97599679006E+03  0.00000000000E+00 0. -1.
          2   -1    0    0  501    0  0.00000000000E+00 -0.00000000000E+00 -0.13928540631E+04  0.13928540631E+04  0.00000000000E+00 0.  1.
    2000013    1    1    2    0    0  0.66523136602E+03 -0.10830318872E+03 -0.15604821972E+03  0.11752078105E+04  0.95000000000E+03 0.  0.
   -2000013    1    1    2    0    0 -0.66523136602E+03  0.10830318872E+03 -0.26080905337E+03  0.11936430427E+04  0.95000000000E+03 0.  0.
<mgrwt>
<rscale>  0 0.23318843E+04</rscale>
<asrwt>0</asrwt>
<pdfrwt beam="2">  1        2 0.21428524E+00 0.23318843E+04</pdfrwt>
<pdfrwt beam="1">  1       -2 0.15015335E+00 0.23318843E+04</pdfrwt>
<totfact> 0.39476185E+00</totfact>
</mgrwt>
</event>
<event>
 4    1  0.1295381E-008  0.2075936E+04  0.7816531E-02  0.8571919E-01
          2   -1    0    0  501    0  0.00000000000E+00  0.00000000000E+00  0.13374052931E+04  0.13374052931E+04  0.00000000000E+00 0.  1.
         -2   -1    0    0    0  501 -0.00000000000E+00 -0.00000000000E+00 -0.80557287464E+03  0.80557287464E+03  0.00000000000E+00 0. -1.
    2000013    1    1    2    0    0 -0.16421443263E+03 -0.21629574920E+03 -0.62358780711E+02  0.99001962028E+03  0.95000000000E+03 0.  0.
   -2000013    1    1    2    0    0  0.16421443263E+03  0.21629574920E+03  0.59419119918E+03  0.11529585475E+04  0.95000000000E+03 0.  0.
<mgrwt>
<rscale>  0 0.20759359E+04</rscale>
<asrwt>0</asrwt>
<pdfrwt beam="1">  1        2 0.20575466E+00 0.20759359E+04</pdfrwt>
<pdfrwt beam="2">  1       -2 0.12393429E+00 0.20759359E+04</pdfrwt>
<totfact> 0.71138394E+00</totfact>
</mgrwt>
</event>
<event>
 4    1  0.1295381E-008  0.2271824E+04  0.7816531E-02  0.8489114E-01
         -3   -1    0    0    0  501 -0.00000000000E+00  0.00000000000E+00  0.65229747469E+03  0.65229747469E+03  0.00000000000E+00 0. -1.
          3   -1    0    0  501    0  0.00000000000E+00 -0.00000000000E+00 -0.19780799685E+04  0.19780799685E+04  0.00000000000E+00 0.  1.
    2000013    1    1    2    0    0  0.18579995898E+03 -0.56896076177E+03 -0.86195179618E+03  0.14155207071E+04  0.95000000000E+03 0.  0.
   -2000013    1    1    2    0    0 -0.18579995898E+03  0.56896076177E+03 -0.46383069760E+03  0.12148567361E+04  0.95000000000E+03 0.  0.
<mgrwt>
<rscale>  0 0.22718244E+04</rscale>
<asrwt>0</asrwt>
<pdfrwt beam="2">  1        3 0.30431999E+00 0.22718244E+04</pdfrwt>
<pdfrwt beam="1">  1       -3 0.10035346E+00 0.22718244E+04</pdfrwt>
<totfact> 0.75272105E-02</totfact>
</mgrwt>
</event>
<event>
 4    1  0.1295381E-008  0.2687497E+04  0.7816531E-02  0.8339073E-01
          2   -1    0    0  501    0  0.00000000000E+00  0.00000000000E+00  0.27590383331E+04  0.27590383331E+04  0.00000000000E+00 0.  1.
         -2   -1    0    0    0  501 -0.00000000000E+00 -0.00000000000E+00 -0.65445278401E+03  0.65445278401E+03  0.00000000000E+00 0. -1.
    2000013    1    1    2    0    0  0.20913619238E+03  0.80384324307E+03  0.46574439441E+03  0.13451095670E+04  0.95000000000E+03 0.  0.
   -2000013    1    1    2    0    0 -0.20913619238E+03 -0.80384324307E+03  0.16388411546E+04  0.20683815500E+04  0.95000000000E+03 0.  0.
<mgrwt>
<rscale>  0 0.26874972E+04</rscale>
<asrwt>0</asrwt>
<pdfrwt beam="1">  1        2 0.42446743E+00 0.26874972E+04</pdfrwt>
<pdfrwt beam="2">  1       -2 0.10068505E+00 0.26874972E+04</pdfrwt>
<totfact> 0.17465603E+00</totfact>
</mgrwt>
</event>
<event>
 4    1  0.1295381E-008  0.2678337E+04  0.7816531E-02  0.8342068E-01
         -2   -1    0    0    0  501 -0.00000000000E+00  0.00000000000E+00  0.12349169879E+04  0.12349169879E+04  0.00000000000E+00 0. -1.
          2   -1    0    0  501    0  0.00000000000E+00 -0.00000000000E+00 -0.14522212338E+04  0.14522212338E+04  0.00000000000E+00 0.  1.
    2000013    1    1    2    0    0  0.14689919402E+02  0.94279847899E+03 -0.15107470465E+03  0.13469997521E+04  0.95000000000E+03 0.  0.
   -2000013    1    1    2    0    0 -0.14689919402E+02 -0.94279847899E+03 -0.66229541261E+02  0.13401384697E+04  0.95000000000E+03 0.  0.
<mgrwt>
<rscale>  0 0.26783373E+04</rscale>
<asrwt>0</asrwt>
<pdfrwt beam="2">  1        2 0.22341865E+00 0.26783373E+04</pdfrwt>
<pdfrwt beam="1">  1       -2 0.18998723E+00 0.26783373E+04</pdfrwt>
<totfact> 0.18410553E+00</totfact>
</mgrwt>
</event>
<event>
 4    1  0.1295381E-008  0.2041727E+04  0.7816531E-02  0.8587357E-01
          2   -1    0    0  501    0  0.00000000000E+00  0.00000000000E+00  0.10623839437E+04  0.10623839437E+04  0.00000000000E+00 0.  1.
         -2   -1    0    0    0  501 -0.00000000000E+00 -0.00000000000E+00 -0.98096564477E+03  0.98096564477E+03  0.00000000000E+00 0. -1.
    2000013    1    1    2    0    0 -0.37091111680E+03 -0.24343947232E+02  0.20201005749E+01  0.10201332095E+04  0.95000000000E+03 0.  0.
   -2000013    1    1    2    0    0  0.37091111680E+03  0.24343947232E+02  0.79398198389E+02  0.10232163790E+04  0.95000000000E+03 0.  0.
<mgrwt>
<rscale>  0 0.20417269E+04</rscale>
<asrwt>0</asrwt>
<pdfrwt beam="1">  1        2 0.16344368E+00 0.20417269E+04</pdfrwt>
<pdfrwt beam="2">  1       -2 0.15091779E+00 0.20417269E+04</pdfrwt>
<totfact> 0.62759490E+00</totfact>
</mgrwt>
</event>
<event>
 4    1  0.1295381E-008  0.3531461E+04  0.7816531E-02  0.8106374E-01
         -2   -1    0    0    0  501 -0.00000000000E+00  0.00000000000E+00  0.85445401538E+03  0.85445401538E+03  0.00000000000E+00 0. -1.
          2   -1    0    0  501    0  0.00000000000E+00 -0.00000000000E+00 -0.36488856793E+04  0.36488856793E+04  0.00000000000E+00 0.  1.
    2000013    1    1    2    0    0 -0.12541676183E+04 -0.74270151026E+03 -0.10130357631E+04  0.20132767831E+04  0.95000000000E+03 0.  0.
   -2000013    1    1    2    0    0  0.12541676183E+04  0.74270151026E+03 -0.17813959008E+04  0.24900629116E+04  0.95000000000E+03 0.  0.
<mgrwt>
<rscale>  0 0.35314615E+04</rscale>
<asrwt>0</asrwt>
<pdfrwt beam="2">  1        2 0.56136704E+00 0.35314615E+04</pdfrwt>
<pdfrwt beam="1">  1       -2 0.13145446E+00 0.35314615E+04</pdfrwt>
<totfact> 0.21978336E-01</totfact>
</mgrwt>
</event>
<event>
 4    1  0.1295381E-008  0.2855209E+04  0.7816531E-02  0.8286330E-01
          2   -1    0    0  501    0  0.00000000000E+00  0.00000000000E+00  0.27354024076E+04  0.27354024076E+04  0.00000000000E+00 0.  1.
         -2   -1    0    0    0  501 -0.00000000000E+00 -0.00000000000E+00 -0.74506553856E+03  0.74506553856E+03  0.00000000000E+00 0. -1.
    2000013    1    1    2    0    0  0.38815907241E+03 -0.90073522358E+03  0.48732722408E+03  0.14498204136E+04  0.95000000000E+03 0.  0.
   -2000013    1    1    2    0    0 -0.38815907241E+03  0.90073522358E+03  0.15030096450E+04  0.20306475325E+04  0.95000000000E+03 0.  0.
<mgrwt>
<rscale>  0 0.28552086E+04</rscale>
<asrwt>0</asrwt>
<pdfrwt beam="1">  1        2 0.42083114E+00 0.28552086E+04</pdfrwt>
<pdfrwt beam="2">  1       -2 0.11462547E+00 0.28552086E+04</pdfrwt>
<totfact> 0.13017121E+00</totfact>
</mgrwt>
</event>
<event>
 4    1  0.1295381E-008  0.2456872E+04  0.7816531E-02  0.8418513E-01
          2   -1    0    0  501    0  0.00000000000E+00  0.00000000000E+00  0.12204481316E+04  0.12204481316E+04  0.00000000000E+00 0.  1.
         -2   -1    0    0    0  501 -0.00000000000E+00 -0.00000000000E+00 -0.12364761510E+04  0.12364761510E+04  0.00000000000E+00 0. -1.
    2000013    1    1    2    0    0  0.58564509942E+02  0.74402348717E+03 -0.23062660138E+03  0.12299143794E+04  0.95000000000E+03 0.  0.
   -2000013    1    1    2    0    0 -0.58564509942E+02 -0.74402348717E+03  0.21459858189E+03  0.12270099032E+04  0.95000000000E+03 0.  0.
<mgrwt>
<rscale>  0 0.24568720E+04</rscale>
<asrwt>0</asrwt>
<pdfrwt beam="1">  1        2 0.18776125E+00 0.24568720E+04</pdfrwt>
<pdfrwt beam="2">  1       -2 0.19022710E+00 0.24568720E+04</pdfrwt>
<totfact> 0.25459341E+00</totfact>
</mgrwt>
</event>
<event>
 4    1  0.1295381E-008  0.2751795E+04  0.7816531E-02  0.8318392E-01
          2   -1    0    0  501    0  0.00000000000E+00  0.00000000000E+00  0.29359491521E+04  0.29359491521E+04  0.00000000000E+00 0. -1.
         -2   -1    0    0    0  501 -0.00000000000E+00 -0.00000000000E+00 -0.64479793141E+03  0.64479793141E+03  0.00000000000E+00 0.  1.
    2000013    1    1    2    0    0  0.21305475572E+03 -0.91616598052E+03  0.15689119753E+04  0.20612465207E+04  0.95000000000E+03 0.  0.
   -2000013    1    1    2    0    0 -0.21305475572E+03  0.91616598052E+03  0.72223924536E+03  0.15195005628E+04  0.95000000000E+03 0.  0.
<mgrwt>
<rscale>  0 0.27517950E+04</rscale>
<asrwt>0</asrwt>
<pdfrwt beam="1">  1        2 0.45168448E+00 0.27517950E+04</pdfrwt>
<pdfrwt beam="2">  1       -2 0.99199684E-01 0.27517950E+04</pdfrwt>
<totfact> 0.14033918E+00</totfact>
</mgrwt>
</event>
<event>
 4    1  0.1295381E-008  0.2417468E+04  0.7816531E-02  0.8432993E-01
         -2   -1    0    0    0  501 -0.00000000000E+00  0.00000000000E+00  0.14081025146E+04  0.14081025146E+04  0.00000000000E+00 0. -1.
          2   -1    0    0  501    0  0.00000000000E+00 -0.00000000000E+00 -0.10375932308E+04  0.10375932308E+04  0.00000000000E+00 0.  1.
    2000013    1    1    2    0    0 -0.47001372506E+03 -0.57997204121E+03  0.22112520796E+03  0.12282820637E+04  0.95000000000E+03 0.  0.
   -2000013    1    1    2    0    0  0.47001372506E+03  0.57997204121E+03  0.14938407586E+03  0.12174136817E+04  0.95000000000E+03 0.  0.
<mgrwt>
<rscale>  0 0.24174678E+04</rscale>
<asrwt>0</asrwt>
<pdfrwt beam="2">  1        2 0.15962973E+00 0.24174678E+04</pdfrwt>
<pdfrwt beam="1">  1       -2 0.21663116E+00 0.24174678E+04</pdfrwt>
<totfact> 0.22218228E+00</totfact>
</mgrwt>
</event>
<event>
 4    1  0.1295381E-008  0.2078999E+04  0.7816531E-02  0.8570551E-01
          2   -1    0    0  501    0  0.00000000000E+00  0.00000000000E+00  0.58389440560E+03  0.58389440560E+03  0.00000000000E+00 0.  1.
         -2   -1    0    0    0  501 -0.00000000000E+00 -0.00000000000E+00 -0.18506066259E+04  0.18506066259E+04  0.00000000000E+00 0. -1.
    2000013    1    1    2    0    0  0.97230012246E+02 -0.40954773850E+03 -0.66801109988E+03  0.12352820953E+04  0.95000000000E+03 0.  0.
   -2000013    1    1    2    0    0 -0.97230012246E+02  0.40954773850E+03 -0.59870112043E+03  0.11992189362E+04  0.95000000000E+03 0.  0.
<mgrwt>
<rscale>  0 0.20789987E+04</rscale>
<asrwt>0</asrwt>
<pdfrwt beam="1">  1        2 0.89829910E-01 0.20789987E+04</pdfrwt>
<pdfrwt beam="2">  1       -2 0.28470871E+00 0.20789987E+04</pdfrwt>
<totfact> 0.18658098E+00</totfact>
</mgrwt>
</event>
<event>
 4    1  0.1295381E-008  0.3151325E+04  0.7816531E-02  0.8201792E-01
          2   -1    0    0  501    0  0.00000000000E+00  0.00000000000E+00  0.19559823469E+04  0.19559823469E+04  0.00000000000E+00 0.  1.
         -2   -1    0    0    0  501 -0.00000000000E+00 -0.00000000000E+00 -0.12692918800E+04  0.12692918800E+04  0.00000000000E+00 0. -1.
    2000013    1    1    2    0    0 -0.83350075356E+03  0.28933668124E+03  0.12597750821E+04  0.18077534342E+04  0.95000000000E+03 0.  0.
   -2000013    1    1    2    0    0  0.83350075356E+03 -0.28933668124E+03 -0.57308461523E+03  0.14175207926E+04  0.95000000000E+03 0.  0.
<mgrwt>
<rscale>  0 0.31513251E+04</rscale>
<asrwt>0</asrwt>
<pdfrwt beam="1">  1        2 0.30092036E+00 0.31513251E+04</pdfrwt>
<pdfrwt beam="2">  1       -2 0.19527567E+00 0.31513251E+04</pdfrwt>
<totfact> 0.85415183E-01</totfact>
</mgrwt>
</event>
<event>
 4    1  0.1295381E-008  0.2213462E+04  0.7816531E-02  0.8512846E-01
         -2   -1    0    0    0  501 -0.00000000000E+00  0.00000000000E+00  0.10943490323E+04  0.10943490323E+04  0.00000000000E+00 0. -1.
          2   -1    0    0  501    0  0.00000000000E+00 -0.00000000000E+00 -0.11192533893E+04  0.11192533893E+04  0.00000000000E+00 0.  1.
    2000013    1    1    2    0    0 -0.29854956111E+03  0.47484620748E+03 -0.10045264724E+03  0.11077912689E+04  0.95000000000E+03 0.  0.
   -2000013    1    1    2    0    0  0.29854956111E+03 -0.47484620748E+03  0.75548290173E+02  0.11058111527E+04  0.95000000000E+03 0.  0.
<mgrwt>
<rscale>  0 0.22134623E+04</rscale>
<asrwt>0</asrwt>
<pdfrwt beam="2">  1        2 0.17219283E+00 0.22134623E+04</pdfrwt>
<pdfrwt beam="1">  1       -2 0.16836139E+00 0.22134623E+04</pdfrwt>
<totfact> 0.42378568E+00</totfact>
</mgrwt>
</event>
<event>
 4    1  0.1295381E-008  0.2649753E+04  0.7816531E-02  0.8351495E-01
         -1   -1    0    0    0  501 -0.00000000000E+00  0.00000000000E+00  0.17853534326E+04  0.17853534326E+04  0.00000000000E+00 0.  1.
          1   -1    0    0  501    0  0.00000000000E+00 -0.00000000000E+00 -0.98316529019E+03  0.98316529019E+03  0.00000000000E+00 0. -1.
    2000013    1    1    2    0    0  0.61097717823E+03  0.66669632639E+03  0.20556885058E+03  0.13276052336E+04  0.95000000000E+03 0.  0.
   -2000013    1    1    2    0    0 -0.61097717823E+03 -0.66669632639E+03  0.59661929181E+03  0.14409134892E+04  0.95000000000E+03 0.  0.
<mgrwt>
<rscale>  0 0.26497528E+04</rscale>
<asrwt>0</asrwt>
<pdfrwt beam="2">  1        1 0.15125620E+00 0.26497528E+04</pdfrwt>
<pdfrwt beam="1">  1       -1 0.27466976E+00 0.26497528E+04</pdfrwt>
<totfact> 0.65917546E-01</totfact>
</mgrwt>
</event>
<event>
 4    1  0.1295381E-008  0.2391496E+04  0.7816531E-02  0.8442694E-01
          2   -1    0    0  501    0  0.00000000000E+00  0.00000000000E+00  0.19882416472E+04  0.19882416472E+04  0.00000000000E+00 0. -1.
         -2   -1    0    0    0  501 -0.00000000000E+00 -0.00000000000E+00 -0.71913428976E+03  0.71913428976E+03  0.00000000000E+00 0.  1.
    2000013    1    1    2    0    0 -0.41676103458E+03 -0.31315664162E+03  0.62256051544E+02  0.10854181950E+04  0.95000000000E+03 0.  0.
   -2000013    1    1    2    0    0  0.41676103458E+03  0.31315664162E+03  0.12068513059E+04  0.16219577420E+04  0.95000000000E+03 0.  0.
<mgrwt>
<rscale>  0 0.23914956E+04</rscale>
<asrwt>0</asrwt>
<pdfrwt beam="1">  1        2 0.30588333E+00 0.23914956E+04</pdfrwt>
<pdfrwt beam="2">  1       -2 0.11063605E+00 0.23914956E+04</pdfrwt>
<totfact> 0.39542670E+00</totfact>
</mgrwt>
</event>
<event>
 4    1  0.1295381E-008  0.2095596E+04  0.7816531E-02  0.8563186E-01
          2   -1    0    0  501    0  0.00000000000E+00  0.00000000000E+00  0.49563652153E+03  0.49563652153E+03  0.00000000000E+00 0.  1.
         -2   -1    0    0    0  501 -0.00000000000E+00 -0.00000000000E+00 -0.22150923312E+04  0.22150923312E+04  0.00000000000E+00 0. -1.
    2000013    1    1    2    0    0 -0.34144827427E+03  0.27489099808E+03 -0.78622736118E+03  0.13087419334E+04  0.95000000000E+03 0.  0.
   -2000013    1    1    2    0    0  0.34144827427E+03 -0.27489099808E+03 -0.93322844850E+03  0.14019869193E+04  0.95000000000E+03 0.  0.
<mgrwt>
<rscale>  0 0.20955960E+04</rscale>
<asrwt>0</asrwt>
<pdfrwt beam="1">  1        2 0.76251770E-01 0.20955960E+04</pdfrwt>
<pdfrwt beam="2">  1       -2 0.34078344E+00 0.20955960E+04</pdfrwt>
<totfact> 0.10213914E+00</totfact>
</mgrwt>
</event>
<event>
 4    1  0.1295381E-008  0.2326837E+04  0.7816531E-02  0.8467414E-01
          2   -1    0    0  501    0  0.00000000000E+00  0.00000000000E+00  0.16475460567E+04  0.16475460567E+04  0.00000000000E+00 0.  1.
         -2   -1    0    0    0  501 -0.00000000000E+00 -0.00000000000E+00 -0.82155103320E+03  0.82155103320E+03  0.00000000000E+00 0. -1.
    2000013    1    1    2    0    0 -0.21988563827E+03 -0.13426427083E+03 -0.24513651190E+03  0.10143808446E+04  0.95000000000E+03 0.  0.
   -2000013    1    1    2    0    0  0.21988563827E+03  0.13426427083E+03  0.10711315354E+04  0.14547162453E+04  0.95000000000E+03 0.  0.
<mgrwt>
<rscale>  0 0.23268375E+04</rscale>
<asrwt>0</asrwt>
<pdfrwt beam="1">  1        2 0.25346862E+00 0.23268375E+04</pdfrwt>
<pdfrwt beam="2">  1       -2 0.12639247E+00 0.23268375E+04</pdfrwt>
<totfact> 0.44256103E+00</totfact>
</mgrwt>
</event>
<event>
 4    1  0.1295381E-008  0.2477216E+04  0.7816531E-02  0.8411148E-01
          2   -1    0    0  501    0  0.00000000000E+00  0.00000000000E+00  0.11145195561E+04  0.11145195561E+04  0.00000000000E+00 0.  1.
         -2   -1    0    0    0  501 -0.00000000000E+00 -0.00000000000E+00 -0.13765124484E+04  0.13765124484E+04  0.00000000000E+00 0. -1.
    2000013    1    1    2    0    0  0.57378347505E+03  0.45632832451E+03 -0.43960711633E+03  0.12779739562E+04  0.95000000000E+03 0.  0.
   -2000013    1    1    2    0    0 -0.57378347505E+03 -0.45632832451E+03  0.17761422407E+03  0.12130580483E+04  0.95000000000E+03 0.  0.
<mgrwt>
<rscale>  0 0.24772162E+04</rscale>
<asrwt>0</asrwt>
<pdfrwt beam="1">  1        2 0.17146455E+00 0.24772162E+04</pdfrwt>
<pdfrwt beam="2">  1       -2 0.21177115E+00 0.24772162E+04</pdfrwt>
<totfact> 0.21268903E+00</totfact>
</mgrwt>
</event>
<event>
 4    1  0.1295381E-008  0.3082553E+04  0.7816531E-02  0.8220542E-01
         -2   -1    0    0    0  501 -0.00000000000E+00  0.00000000000E+00  0.10347459821E+04  0.10347459821E+04  0.00000000000E+00 0. -1.
          2   -1    0    0  501    0  0.00000000000E+00 -0.00000000000E+00 -0.22957650775E+04  0.22957650775E+04  0.00000000000E+00 0.  1.
    2000013    1    1    2    0    0 -0.22187876443E+03  0.10645947136E+04 -0.12127866302E+04  0.18857209499E+04  0.95000000000E+03 0.  0.
   -2000013    1    1    2    0    0  0.22187876443E+03 -0.10645947136E+04 -0.48232465103E+02  0.14447901097E+04  0.95000000000E+03 0.  0.
<mgrwt>
<rscale>  0 0.30825533E+04</rscale>
<asrwt>0</asrwt>
<pdfrwt beam="2">  1        2 0.35319462E+00 0.30825533E+04</pdfrwt>
<pdfrwt beam="1">  1       -2 0.15919169E+00 0.30825533E+04</pdfrwt>
<totfact> 0.98983514E-01</totfact>
</mgrwt>
</event>
<event>
 4    1  0.1295381E-008  0.2585684E+04  0.7816531E-02  0.8373080E-01
         -1   -1    0    0    0  501 -0.00000000000E+00  0.00000000000E+00  0.12460240542E+04  0.12460240542E+04  0.00000000000E+00 0. -1.
          1   -1    0    0  501    0  0.00000000000E+00 -0.00000000000E+00 -0.13414190773E+04  0.13414190773E+04  0.00000000000E+00 0.  1.
    2000013    1    1    2    0    0 -0.37703855342E+03 -0.52398471532E+03  0.54618951974E+03  0.12718258702E+04  0.95000000000E+03 0.  0.
   -2000013    1    1    2    0    0  0.37703855342E+03  0.52398471532E+03 -0.64158454289E+03  0.13156172613E+04  0.95000000000E+03 0.  0.
<mgrwt>
<rscale>  0 0.25856840E+04</rscale>
<asrwt>0</asrwt>
<pdfrwt beam="2">  1        1 0.20637217E+00 0.25856840E+04</pdfrwt>
<pdfrwt beam="1">  1       -1 0.19169601E+00 0.25856840E+04</pdfrwt>
<totfact> 0.12813310E+00</totfact>
</mgrwt>
</event>
<event>
 4    1  0.1295381E-008  0.3079393E+04  0.7816531E-02  0.8221416E-01
          2   -1    0    0  501    0  0.00000000000E+00  0.00000000000E+00  0.28602980272E+04  0.28602980272E+04  0.00000000000E+00 0.  1.
         -2   -1    0    0    0  501 -0.00000000000E+00 -0.00000000000E+00 -0.82881768219E+03  0.82881768219E+03  0.00000000000E+00 0. -1.
    2000013    1    1    2    0    0 -0.11490018449E+04  0.37861977215E+03  0.10970579607E+04  0.18893370109E+04  0.95000000000E+03 0.  0.
   -2000013    1    1    2    0    0  0.11490018449E+04 -0.37861977215E+03  0.93442238434E+03  0.17997786986E+04  0.95000000000E+03 0.  0.
<mgrwt>
<rscale>  0 0.30793932E+04</rscale>
<asrwt>0</asrwt>
<pdfrwt beam="1">  1        2 0.44004584E+00 0.30793932E+04</pdfrwt>
<pdfrwt beam="2">  1       -2 0.12751041E+00 0.30793932E+04</pdfrwt>
<totfact> 0.82379228E-01</totfact>
</mgrwt>
</event>
<event>
 4    1  0.1295381E-008  0.3074971E+04  0.7816531E-02  0.8222641E-01
         -2   -1    0    0    0  501 -0.00000000000E+00  0.00000000000E+00  0.14162357819E+04  0.14162357819E+04  0.00000000000E+00 0. -1.
          2   -1    0    0  501    0  0.00000000000E+00 -0.00000000000E+00 -0.16691156463E+04  0.16691156463E+04  0.00000000000E+00 0.  1.
    2000013    1    1    2    0    0  0.10338952980E+04 -0.50239705868E+03 -0.50189429011E+03  0.15734484962E+04  0.95000000000E+03 0.  0.
   -2000013    1    1    2    0    0 -0.10338952980E+04  0.50239705868E+03  0.24901442571E+03  0.15119029320E+04  0.95000000000E+03 0.  0.
<mgrwt>
<rscale>  0 0.30749708E+04</rscale>
<asrwt>0</asrwt>
<pdfrwt beam="2">  1        2 0.25678702E+00 0.30749708E+04</pdfrwt>
<pdfrwt beam="1">  1       -2 0.21788243E+00 0.30749708E+04</pdfrwt>
<totfact> 0.88500376E-01</totfact>
</mgrwt>
</event>
<event>
 4    1  0.1295381E-008  0.2537208E+04  0.7816531E-02  0.8389849E-01
         -2   -1    0    0    0  501 -0.00000000000E+00  0.00000000000E+00  0.16124555782E+04  0.16124555782E+04  0.00000000000E+00 0. -1.
          2   -1    0    0  501    0  0.00000000000E+00 -0.00000000000E+00 -0.99807801532E+03  0.99807801532E+03  0.00000000000E+00 0.  1.
    2000013    1    1    2    0    0 -0.43055824552E+03  0.22114958725E+03  0.10144921791E+04  0.14717275306E+04  0.95000000000E+03 0.  0.
   -2000013    1    1    2    0    0  0.43055824552E+03 -0.22114958725E+03 -0.40011461630E+03  0.11388060629E+04  0.95000000000E+03 0.  0.
<mgrwt>
<rscale>  0 0.25372083E+04</rscale>
<asrwt>0</asrwt>
<pdfrwt beam="2">  1        2 0.15355046E+00 0.25372083E+04</pdfrwt>
<pdfrwt beam="1">  1       -2 0.24807009E+00 0.25372083E+04</pdfrwt>
<totfact> 0.14832221E+00</totfact>
</mgrwt>
</event>
<event>
 4    1  0.1295381E-008  0.2407217E+04  0.7816531E-02  0.8436807E-01
          2   -1    0    0  501    0  0.00000000000E+00  0.00000000000E+00  0.14668876862E+04  0.14668876862E+04  0.00000000000E+00 0.  1.
         -2   -1    0    0    0  501 -0.00000000000E+00 -0.00000000000E+00 -0.98758279445E+03  0.98758279445E+03  0.00000000000E+00 0. -1.
    2000013    1    1    2    0    0  0.42596164594E+03  0.60187705404E+03  0.18893952504E+03  0.12173321059E+04  0.95000000000E+03 0.  0.
   -2000013    1    1    2    0    0 -0.42596164594E+03 -0.60187705404E+03  0.29036536669E+03  0.12371383747E+04  0.95000000000E+03 0.  0.
<mgrwt>
<rscale>  0 0.24072167E+04</rscale>
<asrwt>0</asrwt>
<pdfrwt beam="1">  1        2 0.22567503E+00 0.24072167E+04</pdfrwt>
<pdfrwt beam="2">  1       -2 0.15193581E+00 0.24072167E+04</pdfrwt>
<totfact> 0.34497918E+00</totfact>
</mgrwt>
</event>
<event>
 4    1  0.1295381E-008  0.2685516E+04  0.7816531E-02  0.8339720E-01
         -2   -1    0    0    0  501 -0.00000000000E+00  0.00000000000E+00  0.93509103584E+03  0.93509103584E+03  0.00000000000E+00 0. -1.
          2   -1    0    0  501    0  0.00000000000E+00 -0.00000000000E+00 -0.19281528144E+04  0.19281528144E+04  0.00000000000E+00 0.  1.
    2000013    1    1    2    0    0 -0.43406830976E+03  0.69824614409E+03  0.86804799114E+01  0.12563989518E+04  0.95000000000E+03 0.  0.
   -2000013    1    1    2    0    0  0.43406830976E+03 -0.69824614409E+03 -0.10017422584E+04  0.16068448984E+04  0.95000000000E+03 0.  0.
<mgrwt>
<rscale>  0 0.26855155E+04</rscale>
<asrwt>0</asrwt>
<pdfrwt beam="2">  1        2 0.29663889E+00 0.26855155E+04</pdfrwt>
<pdfrwt beam="1">  1       -2 0.14386016E+00 0.26855155E+04</pdfrwt>
<totfact> 0.21525134E+00</totfact>
</mgrwt>
</event>
<event>
 4    1  0.1295381E-008  0.2037298E+04  0.7816531E-02  0.8589378E-01
         -2   -1    0    0    0  501 -0.00000000000E+00  0.00000000000E+00  0.42244450101E+03  0.42244450101E+03  0.00000000000E+00 0. -1.
          2   -1    0    0  501    0  0.00000000000E+00 -0.00000000000E+00 -0.24562889925E+04  0.24562889925E+04  0.00000000000E+00 0.  1.
    2000013    1    1    2    0    0 -0.19009253909E+03  0.19728936747E+03 -0.67055325307E+03  0.11946547339E+04  0.95000000000E+03 0.  0.
   -2000013    1    1    2    0    0  0.19009253909E+03 -0.19728936747E+03 -0.13632912384E+04  0.16840787596E+04  0.95000000000E+03 0.  0.
<mgrwt>
<rscale>  0 0.20372980E+04</rscale>
<asrwt>0</asrwt>
<pdfrwt beam="2">  1        2 0.37789061E+00 0.20372980E+04</pdfrwt>
<pdfrwt beam="1">  1       -2 0.64991462E-01 0.20372980E+04</pdfrwt>
<totfact> 0.74663082E+00</totfact>
</mgrwt>
</event>
<event>
 4    1  0.1295381E-008  0.2303595E+04  0.7816531E-02  0.8476505E-01
         -2   -1    0    0    0  501 -0.00000000000E+00  0.00000000000E+00  0.57873273160E+03  0.57873273160E+03  0.00000000000E+00 0. -1.
          2   -1    0    0  501    0  0.00000000000E+00 -0.00000000000E+00 -0.22923151088E+04  0.22923151088E+04  0.00000000000E+00 0.  1.
    2000013    1    1    2    0    0  0.56096772406E+03 -0.28241930337E+03 -0.10715526855E+04  0.15637041306E+04  0.95000000000E+03 0.  0.
   -2000013    1    1    2    0    0 -0.56096772406E+03  0.28241930337E+03 -0.64202969164E+03  0.13073437097E+04  0.95000000000E+03 0.  0.
<mgrwt>
<rscale>  0 0.23035953E+04</rscale>
<asrwt>0</asrwt>
<pdfrwt beam="2">  1        2 0.35266387E+00 0.23035953E+04</pdfrwt>
<pdfrwt beam="1">  1       -2 0.89035804E-01 0.23035953E+04</pdfrwt>
<totfact> 0.44960533E+00</totfact>
</mgrwt>
</event>
<event>
 4    1  0.1295381E-008  0.2260147E+04  0.7816531E-02  0.8493802E-01
          2   -1    0    0  501    0  0.00000000000E+00  0.00000000000E+00  0.31659391420E+04  0.31659391420E+04  0.00000000000E+00 0. -1.
         -2   -1    0    0    0  501 -0.00000000000E+00 -0.00000000000E+00 -0.40337669168E+03  0.40337669168E+03  0.00000000000E+00 0.  1.
    2000013    1    1    2    0    0  0.13553257825E+03  0.41686041000E+03  0.70676913809E+03  0.12626021922E+04  0.95000000000E+03 0.  0.
   -2000013    1    1    2    0    0 -0.13553257825E+03 -0.41686041000E+03  0.20557933122E+04  0.23067136415E+04  0.95000000000E+03 0.  0.
<mgrwt>
<rscale>  0 0.22601469E+04</rscale>
<asrwt>0</asrwt>
<pdfrwt beam="1">  1        2 0.48706754E+00 0.22601469E+04</pdfrwt>
<pdfrwt beam="2">  1       -2 0.62057955E-01 0.22601469E+04</pdfrwt>
<totfact> 0.29970199E+00</totfact>
</mgrwt>
</event>
<event>
 4    1  0.1295381E-008  0.2005689E+04  0.7816531E-02  0.8603965E-01
          2   -1    0    0  501    0  0.00000000000E+00  0.00000000000E+00  0.13284343307E+04  0.13284343307E+04  0.00000000000E+00 0.  1.
         -2   -1    0    0    0  501 -0.00000000000E+00 -0.00000000000E+00 -0.75705445815E+03  0.75705445815E+03  0.00000000000E+00 0. -1.
    2000013    1    1    2    0    0 -0.28304445040E+03 -0.51219215522E+02  0.13696203842E+03  0.10019960923E+04  0.95000000000E+03 0.  0.
   -2000013    1    1    2    0    0  0.28304445040E+03  0.51219215522E+02  0.43441783411E+03  0.10834926966E+04  0.95000000000E+03 0.  0.
<mgrwt>
<rscale>  0 0.20056890E+04</rscale>
<asrwt>0</asrwt>
<pdfrwt beam="1">  1        2 0.20437451E+00 0.20056890E+04</pdfrwt>
<pdfrwt beam="2">  1       -2 0.11646992E+00 0.20056890E+04</pdfrwt>
<totfact> 0.84483992E+00</totfact>
</mgrwt>
</event>
<event>
 4    1  0.1295381E-008  0.2452922E+04  0.7816531E-02  0.8419952E-01
          1   -1    0    0  501    0  0.00000000000E+00  0.00000000000E+00  0.11814465880E+04  0.11814465880E+04  0.00000000000E+00 0.  1.
         -1   -1    0    0    0  501 -0.00000000000E+00 -0.00000000000E+00 -0.12731905931E+04  0.12731905931E+04  0.00000000000E+00 0. -1.
    2000013    1    1    2    0    0 -0.69592089514E+03 -0.32608563946E+03 -0.15115462162E+03  0.12312536116E+04  0.95000000000E+03 0.  0.
   -2000013    1    1    2    0    0  0.69592089514E+03  0.32608563946E+03  0.59410616575E+02  0.12233835694E+04  0.95000000000E+03 0.  0.
<mgrwt>
<rscale>  0 0.24529221E+04</rscale>
<asrwt>0</asrwt>
<pdfrwt beam="1">  1        1 0.18176101E+00 0.24529221E+04</pdfrwt>
<pdfrwt beam="2">  1       -1 0.19587548E+00 0.24529221E+04</pdfrwt>
<totfact> 0.15810668E+00</totfact>
</mgrwt>
</event>
<event>
 4    1  0.1295381E-008  0.2939568E+04  0.7816531E-02  0.8261201E-01
          2   -1    0    0  501    0  0.00000000000E+00  0.00000000000E+00  0.22935766823E+04  0.22935766823E+04  0.00000000000E+00 0.  1.
         -2   -1    0    0    0  501 -0.00000000000E+00 -0.00000000000E+00 -0.94187638066E+03  0.94187638066E+03  0.00000000000E+00 0. -1.
    2000013    1    1    2    0    0  0.49933111891E+03 -0.96329133176E+03  0.98814161410E+03  0.17481949564E+04  0.95000000000E+03 0.  0.
   -2000013    1    1    2    0    0 -0.49933111891E+03  0.96329133176E+03  0.36355868753E+03  0.14872581065E+04  0.95000000000E+03 0.  0.
<mgrwt>
<rscale>  0 0.29395685E+04</rscale>
<asrwt>0</asrwt>
<pdfrwt beam="1">  1        2 0.35285795E+00 0.29395685E+04</pdfrwt>
<pdfrwt beam="2">  1       -2 0.14490406E+00 0.29395685E+04</pdfrwt>
<totfact> 0.12908895E+00</totfact>
</mgrwt>
</event>
<event>
 4    1  0.1295381E-008  0.2424642E+04  0.7816531E-02  0.8430335E-01
         -2   -1    0    0    0  501 -0.00000000000E+00  0.00000000000E+00  0.16294687820E+04  0.16294687820E+04  0.00000000000E+00 0. -1.
          2   -1    0    0  501    0  0.00000000000E+00 -0.00000000000E+00 -0.90196390298E+03  0.90196390298E+03  0.00000000000E+00 0.  1.
    2000013    1    1    2    0    0  0.66454079311E+03 -0.31082843313E+03  0.54152600208E+03  0.13168064366E+04  0.95000000000E+03 0.  0.
   -2000013    1    1    2    0    0 -0.66454079311E+03  0.31082843313E+03  0.18597887692E+03  0.12146262484E+04  0.95000000000E+03 0.  0.
<mgrwt>
<rscale>  0 0.24246418E+04</rscale>
<asrwt>0</asrwt>
<pdfrwt beam="2">  1        2 0.13876368E+00 0.24246418E+04</pdfrwt>
<pdfrwt beam="1">  1       -2 0.25068751E+00 0.24246418E+04</pdfrwt>
<totfact> 0.16692053E+00</totfact>
</mgrwt>
</event>
<event>
 4    1  0.1295381E-008  0.2640030E+04  0.7816531E-02  0.8354730E-01
         -2   -1    0    0    0  501 -0.00000000000E+00  0.00000000000E+00  0.53372596763E+03  0.53372596763E+03  0.00000000000E+00 0. -1.
          2   -1    0    0  501    0  0.00000000000E+00 -0.00000000000E+00 -0.32646701725E+04  0.32646701725E+04  0.00000000000E+00 0.  1.
    2000013    1    1    2    0    0 -0.14232000574E+03 -0.68903658709E+03 -0.22104515034E+04  0.25067154309E+04  0.95000000000E+03 0.  0.
   -2000013    1    1    2    0    0  0.14232000574E+03  0.68903658709E+03 -0.52049270145E+03  0.12916807092E+04  0.95000000000E+03 0.  0.
<mgrwt>
<rscale>  0 0.26400297E+04</rscale>
<asrwt>0</asrwt>
<pdfrwt beam="2">  1        2 0.50225695E+00 0.26400297E+04</pdfrwt>
<pdfrwt beam="1">  1       -2 0.82111688E-01 0.26400297E+04</pdfrwt>
<totfact> 0.13511826E+00</totfact>
</mgrwt>
</event>
<event>
 4    1  0.1295381E-008  0.3048109E+04  0.7816531E-02  0.8230125E-01
          2   -1    0    0  501    0  0.00000000000E+00  0.00000000000E+00  0.16462450904E+04  0.16462450904E+04  0.00000000000E+00 0.  1.
         -2   -1    0    0    0  501 -0.00000000000E+00 -0.00000000000E+00 -0.14109332563E+04  0.14109332563E+04  0.00000000000E+00 0. -1.
    2000013    1    1    2    0    0  0.35420486540E+03  0.54665031973E+03  0.11186004240E+04  0.16056321395E+04  0.95000000000E+03 0.  0.
   -2000013    1    1    2    0    0 -0.35420486540E+03 -0.54665031973E+03 -0.88328858993E+03  0.14515462073E+04  0.95000000000E+03 0.  0.
<mgrwt>
<rscale>  0 0.30481089E+04</rscale>
<asrwt>0</asrwt>
<pdfrwt beam="1">  1        2 0.25326848E+00 0.30481089E+04</pdfrwt>
<pdfrwt beam="2">  1       -2 0.21706665E+00 0.30481089E+04</pdfrwt>
<totfact> 0.92438937E-01</totfact>
</mgrwt>
</event>
<event>
 4    1  0.1295381E-008  0.2589029E+04  0.7816531E-02  0.8371937E-01
         -1   -1    0    0    0  501 -0.00000000000E+00  0.00000000000E+00  0.10665947357E+04  0.10665947357E+04  0.00000000000E+00 0. -1.
          1   -1    0    0  501    0  0.00000000000E+00 -0.00000000000E+00 -0.15711383065E+04  0.15711383065E+04  0.00000000000E+00 0.  1.
    2000013    1    1    2    0    0 -0.19680141941E+03  0.85508516805E+03 -0.19315960145E+03  0.13075595875E+04  0.95000000000E+03 0.  0.
   -2000013    1    1    2    0    0  0.19680141941E+03 -0.85508516805E+03 -0.31138396930E+03  0.13301734547E+04  0.95000000000E+03 0.  0.
<mgrwt>
<rscale>  0 0.25890290E+04</rscale>
<asrwt>0</asrwt>
<pdfrwt beam="2">  1        1 0.24171358E+00 0.25890290E+04</pdfrwt>
<pdfrwt beam="1">  1       -1 0.16409150E+00 0.25890290E+04</pdfrwt>
<totfact> 0.14018123E+00</totfact>
</mgrwt>
</event>
<event>
 4    1  0.1295381E-008  0.2199885E+04  0.7816531E-02  0.8518476E-01
          2   -1    0    0  501    0  0.00000000000E+00  0.00000000000E+00  0.14332740133E+04  0.14332740133E+04  0.00000000000E+00 0.  1.
         -2   -1    0    0    0  501 -0.00000000000E+00 -0.00000000000E+00 -0.84413263936E+03  0.84413263936E+03  0.00000000000E+00 0. -1.
    2000013    1    1    2    0    0 -0.54215091169E+03 -0.10295589081E+03  0.34979706673E+03  0.11529898154E+04  0.95000000000E+03 0.  0.
   -2000013    1    1    2    0    0  0.54215091169E+03  0.10295589081E+03  0.23934430719E+03  0.11244168372E+04  0.95000000000E+03 0.  0.
<mgrwt>
<rscale>  0 0.21998849E+04</rscale>
<asrwt>0</asrwt>
<pdfrwt beam="1">  1        2 0.22050369E+00 0.21998849E+04</pdfrwt>
<pdfrwt beam="2">  1       -2 0.12986656E+00 0.21998849E+04</pdfrwt>
<totfact> 0.55136451E+00</totfact>
</mgrwt>
</event>
<event>
 4    1  0.1295381E-008  0.2145977E+04  0.7816531E-02  0.8541256E-01
         -2   -1    0    0    0  501 -0.00000000000E+00  0.00000000000E+00  0.63024611834E+03  0.63024611834E+03  0.00000000000E+00 0. -1.
          2   -1    0    0  501    0  0.00000000000E+00 -0.00000000000E+00 -0.18267528839E+04  0.18267528839E+04  0.00000000000E+00 0.  1.
    2000013    1    1    2    0    0 -0.28207450187E+03 -0.41058314484E+03 -0.56885355054E+03  0.12141824020E+04  0.95000000000E+03 0.  0.
   -2000013    1    1    2    0    0  0.28207450187E+03  0.41058314484E+03 -0.62765321499E+03  0.12428166002E+04  0.95000000000E+03 0.  0.
<mgrwt>
<rscale>  0 0.21459766E+04</rscale>
<asrwt>0</asrwt>
<pdfrwt beam="2">  1        2 0.28103890E+00 0.21459766E+04</pdfrwt>
<pdfrwt beam="1">  1       -2 0.96960942E-01 0.21459766E+04</pdfrwt>
<totfact> 0.68013167E+00</totfact>
</mgrwt>
</event>
<event>
 4    1  0.1295381E-008  0.2929536E+04  0.7816531E-02  0.8264144E-01
          2   -1    0    0  501    0  0.00000000000E+00  0.00000000000E+00  0.20257691115E+04  0.20257691115E+04  0.00000000000E+00 0. -1.
         -2   -1    0    0    0  501 -0.00000000000E+00 -0.00000000000E+00 -0.10591262896E+04  0.10591262896E+04  0.00000000000E+00 0.  1.
    2000013    1    1    2    0    0 -0.52522626570E+03  0.45085028745E+03  0.14036959714E+04  0.18308443386E+04  0.95000000000E+03 0.  0.
   -2000013    1    1    2    0    0  0.52522626570E+03 -0.45085028745E+03 -0.43705314960E+03  0.12540510625E+04  0.95000000000E+03 0.  0.
<mgrwt>
<rscale>  0 0.29295360E+04</rscale>
<asrwt>0</asrwt>
<pdfrwt beam="1">  1        2 0.31165679E+00 0.29295360E+04</pdfrwt>
<pdfrwt beam="2">  1       -2 0.16294251E+00 0.29295360E+04</pdfrwt>
<totfact> 0.13338205E+00</totfact>
</mgrwt>
</event>
<event>
 4    1  0.1295381E-008  0.3472797E+04  0.7816531E-02  0.8120267E-01
         -2   -1    0    0    0  501 -0.00000000000E+00  0.00000000000E+00  0.18333060474E+04  0.18333060474E+04  0.00000000000E+00 0. -1.
          2   -1    0    0  501    0  0.00000000000E+00 -0.00000000000E+00 -0.16446131163E+04  0.16446131163E+04  0.00000000000E+00 0.  1.
    2000013    1    1    2    0    0 -0.27047508292E+03  0.14259365963E+04  0.15954415168E+02  0.17347064566E+04  0.95000000000E+03 0.  0.
   -2000013    1    1    2    0    0  0.27047508292E+03 -0.14259365963E+04  0.17273851600E+03  0.17432127071E+04  0.95000000000E+03 0.  0.
<mgrwt>
<rscale>  0 0.34727967E+04</rscale>
<asrwt>0</asrwt>
<pdfrwt beam="2">  1        2 0.25301740E+00 0.34727967E+04</pdfrwt>
<pdfrwt beam="1">  1       -2 0.28204709E+00 0.34727967E+04</pdfrwt>
<totfact> 0.35481569E-01</totfact>
</mgrwt>
</event>
<event>
 4    1  0.1295381E-008  0.3675895E+04  0.7816531E-02  0.8073325E-01
         -2   -1    0    0    0  501 -0.00000000000E+00  0.00000000000E+00  0.10213596202E+04  0.10213596202E+04  0.00000000000E+00 0. -1.
          2   -1    0    0  501    0  0.00000000000E+00 -0.00000000000E+00 -0.33074068353E+04  0.33074068353E+04  0.00000000000E+00 0.  1.
    2000013    1    1    2    0    0  0.19423537272E+03  0.92095146129E+03 -0.26277788994E+04  0.29484912953E+04  0.95000000000E+03 0.  0.
   -2000013    1    1    2    0    0 -0.19423537272E+03 -0.92095146129E+03  0.34173168431E+03  0.13802751603E+04  0.95000000000E+03 0.  0.
<mgrwt>
<rscale>  0 0.36758954E+04</rscale>
<asrwt>0</asrwt>
<pdfrwt beam="2">  1        2 0.50883181E+00 0.36758954E+04</pdfrwt>
<pdfrwt beam="1">  1       -2 0.15713225E+00 0.36758954E+04</pdfrwt>
<totfact> 0.23570165E-01</totfact>
</mgrwt>
</event>
<event>
 4    1  0.1295381E-008  0.2367096E+04  0.7816531E-02  0.8451926E-01
          1   -1    0    0  501    0  0.00000000000E+00  0.00000000000E+00  0.88456223775E+03  0.88456223775E+03  0.00000000000E+00 0. -1.
         -1   -1    0    0    0  501 -0.00000000000E+00 -0.00000000000E+00 -0.15835924627E+04  0.15835924627E+04  0.00000000000E+00 0.  1.
    2000013    1    1    2    0    0 -0.42394803108E+03 -0.52394268325E+03 -0.56832723019E+03  0.12960492695E+04  0.95000000000E+03 0.  0.
   -2000013    1    1    2    0    0  0.42394803108E+03  0.52394268325E+03 -0.13070299475E+03  0.11721054309E+04  0.95000000000E+03 0.  0.
<mgrwt>
<rscale>  0 0.23670962E+04</rscale>
<asrwt>0</asrwt>
<pdfrwt beam="1">  1        1 0.13608650E+00 0.23670962E+04</pdfrwt>
<pdfrwt beam="2">  1       -1 0.24362961E+00 0.23670962E+04</pdfrwt>
<totfact> 0.12922623E+00</totfact>
</mgrwt>
</event>
<event>
 4    1  0.1295381E-008  0.2198922E+04  0.7816531E-02  0.8518877E-01
          1   -1    0    0  501    0  0.00000000000E+00  0.00000000000E+00  0.41114261856E+03  0.41114261856E+03  0.00000000000E+00 0.  1.
         -1   -1    0    0    0  501 -0.00000000000E+00 -0.00000000000E+00 -0.29401349572E+04  0.29401349572E+04  0.00000000000E+00 0. -1.
    2000013    1    1    2    0    0  0.35955478138E+03 -0.32916742091E+03 -0.86507767907E+03  0.13742234981E+04  0.95000000000E+03 0.  0.
   -2000013    1    1    2    0    0 -0.35955478138E+03  0.32916742091E+03 -0.16639146596E+04  0.19770540777E+04  0.95000000000E+03 0.  0.
<mgrwt>
<rscale>  0 0.21989223E+04</rscale>
<asrwt>0</asrwt>
<pdfrwt beam="1">  1        1 0.63252713E-01 0.21989223E+04</pdfrwt>
<pdfrwt beam="2">  1       -1 0.45232843E+00 0.21989223E+04</pdfrwt>
<totfact> 0.16438951E-01</totfact>
</mgrwt>
</event>
<event>
 4    1  0.1295381E-008  0.1939300E+04  0.7816531E-02  0.8635538E-01
          1   -1    0    0  501    0  0.00000000000E+00  0.00000000000E+00  0.11021971740E+04  0.11021971740E+04  0.00000000000E+00 0. -1.
         -1   -1    0    0    0  501 -0.00000000000E+00 -0.00000000000E+00 -0.85304258404E+03  0.85304258404E+03  0.00000000000E+00 0.  1.
    2000013    1    1    2    0    0 -0.16952792255E+03  0.52481093085E+02  0.45016435177E+02  0.96748150426E+03  0.95000000000E+03 0.  0.
   -2000013    1    1    2    0    0  0.16952792255E+03 -0.52481093085E+02  0.20413815479E+03  0.98775825377E+03  0.95000000000E+03 0.  0.
<mgrwt>
<rscale>  0 0.19393000E+04</rscale>
<asrwt>0</asrwt>
<pdfrwt beam="1">  1        1 0.16956880E+00 0.19393000E+04</pdfrwt>
<pdfrwt beam="2">  1       -1 0.13123732E+00 0.19393000E+04</pdfrwt>
<totfact> 0.58320014E+00</totfact>
</mgrwt>
</event>
<event>
 4    1  0.1295381E-008  0.2541631E+04  0.7816531E-02  0.8388303E-01
         -2   -1    0    0    0  501 -0.00000000000E+00  0.00000000000E+00  0.92698073921E+03  0.92698073921E+03  0.00000000000E+00 0. -1.
          2   -1    0    0  501    0  0.00000000000E+00 -0.00000000000E+00 -0.17421853156E+04  0.17421853156E+04  0.00000000000E+00 0.  1.
    2000013    1    1    2    0    0  0.84347167458E+03 -0.12614037166E+02 -0.43855409208E+03  0.13440361868E+04  0.95000000000E+03 0.  0.
   -2000013    1    1    2    0    0 -0.84347167458E+03  0.12614037166E+02 -0.37665048431E+03  0.13251298680E+04  0.95000000000E+03 0.  0.
<mgrwt>
<rscale>  0 0.25416312E+04</rscale>
<asrwt>0</asrwt>
<pdfrwt beam="2">  1        2 0.26802851E+00 0.25416312E+04</pdfrwt>
<pdfrwt beam="1">  1       -2 0.14261242E+00 0.25416312E+04</pdfrwt>
<totfact> 0.28267924E+00</totfact>
</mgrwt>
</event>
<event>
 4    1  0.1295381E-008  0.2209577E+04  0.7816531E-02  0.8514452E-01
         -2   -1    0    0    0  501 -0.00000000000E+00  0.00000000000E+00  0.17311264988E+04  0.17311264988E+04  0.00000000000E+00 0. -1.
          2   -1    0    0  501    0  0.00000000000E+00 -0.00000000000E+00 -0.70506555859E+03  0.70506555859E+03  0.00000000000E+00 0.  1.
    2000013    1    1    2    0    0  0.40699134057E+03  0.31339028865E+03  0.25633924513E+03  0.11099843390E+04  0.95000000000E+03 0.  0.
   -2000013    1    1    2    0    0 -0.40699134057E+03 -0.31339028865E+03  0.76972169506E+03  0.13262077183E+04  0.95000000000E+03 0.  0.
<mgrwt>
<rscale>  0 0.22095770E+04</rscale>
<asrwt>0</asrwt>
<pdfrwt beam="2">  1        2 0.10847162E+00 0.22095770E+04</pdfrwt>
<pdfrwt beam="1">  1       -2 0.26632715E+00 0.22095770E+04</pdfrwt>
<totfact> 0.18924758E+00</totfact>
</mgrwt>
</event>
<event>
 4    1  0.1295381E-008  0.2295017E+04  0.7816531E-02  0.8479889E-01
          2   -1    0    0  501    0  0.00000000000E+00  0.00000000000E+00  0.14978575131E+04  0.14978575131E+04  0.00000000000E+00 0.  1.
         -2   -1    0    0    0  501 -0.00000000000E+00 -0.00000000000E+00 -0.87910588226E+03  0.87910588226E+03  0.00000000000E+00 0. -1.
    2000013    1    1    2    0    0  0.15169484975E+02  0.59010972208E+03  0.43669680620E+02  0.11193152542E+04  0.95000000000E+03 0.  0.
   -2000013    1    1    2    0    0 -0.15169484975E+02 -0.59010972208E+03  0.57508195020E+03  0.12576481411E+04  0.95000000000E+03 0.  0.
<mgrwt>
<rscale>  0 0.22950166E+04</rscale>
<asrwt>0</asrwt>
<pdfrwt beam="1">  1        2 0.23043962E+00 0.22950166E+04</pdfrwt>
<pdfrwt beam="2">  1       -2 0.13524706E+00 0.22950166E+04</pdfrwt>
<totfact> 0.45342992E+00</totfact>
</mgrwt>
</event>
<event>
 4    1  0.1295381E-008  0.3533046E+04  0.7816531E-02  0.8106003E-01
         -1   -1    0    0    0  501 -0.00000000000E+00  0.00000000000E+00  0.12702011003E+04  0.12702011003E+04  0.00000000000E+00 0. -1.
          1   -1    0    0  501    0  0.00000000000E+00 -0.00000000000E+00 -0.24567787320E+04  0.24567787320E+04  0.00000000000E+00 0.  1.
    2000013    1    1    2    0    0 -0.97344480296E+03  0.55689889407E+03 -0.16270673304E+04  0.21926192693E+04  0.95000000000E+03 0.  0.
   -2000013    1    1    2    0    0  0.97344480296E+03 -0.55689889407E+03  0.44048969863E+03  0.15343605630E+04  0.95000000000E+03 0.  0.
<mgrwt>
<rscale>  0 0.35330457E+04</rscale>
<asrwt>0</asrwt>
<pdfrwt beam="2">  1        1 0.37796595E+00 0.35330457E+04</pdfrwt>
<pdfrwt beam="1">  1       -1 0.19541556E+00 0.35330457E+04</pdfrwt>
<totfact> 0.19121243E-01</totfact>
</mgrwt>
</event>
<event>
 4    1  0.1295381E-008  0.2889244E+04  0.7816531E-02  0.8276085E-01
         -2   -1    0    0    0  501 -0.00000000000E+00  0.00000000000E+00  0.85068362228E+03  0.85068362228E+03  0.00000000000E+00 0. -1.
          2   -1    0    0  501    0  0.00000000000E+00 -0.00000000000E+00 -0.24532424966E+04  0.24532424966E+04  0.00000000000E+00 0.  1.
    2000013    1    1    2    0    0 -0.54165580179E+03 -0.85979862565E+03 -0.35576115293E+03  0.14358658302E+04  0.95000000000E+03 0.  0.
   -2000013    1    1    2    0    0  0.54165580179E+03  0.85979862565E+03 -0.12467977214E+04  0.18680602888E+04  0.95000000000E+03 0.  0.
<mgrwt>
<rscale>  0 0.28892443E+04</rscale>
<asrwt>0</asrwt>
<pdfrwt beam="2">  1        2 0.37742193E+00 0.28892443E+04</pdfrwt>
<pdfrwt beam="1">  1       -2 0.13087440E+00 0.28892443E+04</pdfrwt>
<totfact> 0.13662027E+00</totfact>
</mgrwt>
</event>
<event>
 4    1  0.1295381E-008  0.2085779E+04  0.7816531E-02  0.8567534E-01
         -2   -1    0    0    0  501 -0.00000000000E+00  0.00000000000E+00  0.32380555495E+03  0.32380555495E+03  0.00000000000E+00 0. -1.
          2   -1    0    0  501    0  0.00000000000E+00 -0.00000000000E+00 -0.33588618833E+04  0.33588618833E+04  0.00000000000E+00 0.  1.
    2000013    1    1    2    0    0  0.34104523076E+03 -0.13276831907E+03 -0.11180991667E+04  0.15121458338E+04  0.95000000000E+03 0.  0.
   -2000013    1    1    2    0    0 -0.34104523076E+03  0.13276831907E+03 -0.19169571617E+04  0.21705216045E+04  0.95000000000E+03 0.  0.
<mgrwt>
<rscale>  0 0.20857786E+04</rscale>
<asrwt>0</asrwt>
<pdfrwt beam="2">  1        2 0.51674798E+00 0.20857786E+04</pdfrwt>
<pdfrwt beam="1">  1       -2 0.49816239E-01 0.20857786E+04</pdfrwt>
<totfact> 0.35904952E+00</totfact>
</mgrwt>
</event>
<event>
 4    1  0.1295381E-008  0.2717493E+04  0.7816531E-02  0.8329351E-01
          1   -1    0    0  501    0  0.00000000000E+00  0.00000000000E+00  0.17354575830E+04  0.17354575830E+04  0.00000000000E+00 0.  1.
         -1   -1    0    0    0  501 -0.00000000000E+00 -0.00000000000E+00 -0.10638072726E+04  0.10638072726E+04  0.00000000000E+00 0. -1.
    2000013    1    1    2    0    0 -0.67644842008E+03 -0.52579389785E+03  0.80747933303E+03  0.15128002384E+04  0.95000000000E+03 0.  0.
   -2000013    1    1    2    0    0  0.67644842008E+03  0.52579389785E+03 -0.13582902260E+03  0.12864646172E+04  0.95000000000E+03 0.  0.
<mgrwt>
<rscale>  0 0.27174933E+04</rscale>
<asrwt>0</asrwt>
<pdfrwt beam="1">  1        1 0.26699347E+00 0.27174933E+04</pdfrwt>
<pdfrwt beam="2">  1       -1 0.16366266E+00 0.27174933E+04</pdfrwt>
<totfact> 0.10777799E+00</totfact>
</mgrwt>
</event>
<event>
 4    1  0.1295381E-008  0.2724724E+04  0.7816531E-02  0.8327027E-01
         -2   -1    0    0    0  501 -0.00000000000E+00  0.00000000000E+00  0.79318630666E+03  0.79318630666E+03  0.00000000000E+00 0. -1.
          2   -1    0    0  501    0  0.00000000000E+00 -0.00000000000E+00 -0.23399668698E+04  0.23399668698E+04  0.00000000000E+00 0.  1.
    2000013    1    1    2    0    0 -0.71372500202E+03 -0.66459597764E+03 -0.83017342202E+03  0.15946093887E+04  0.95000000000E+03 0.  0.
   -2000013    1    1    2    0    0  0.71372500202E+03  0.66459597764E+03 -0.71660714112E+03  0.15385437877E+04  0.95000000000E+03 0.  0.
<mgrwt>
<rscale>  0 0.27247236E+04</rscale>
<asrwt>0</asrwt>
<pdfrwt beam="2">  1        2 0.35999489E+00 0.27247236E+04</pdfrwt>
<pdfrwt beam="1">  1       -2 0.12202867E+00 0.27247236E+04</pdfrwt>
<totfact> 0.19180466E+00</totfact>
</mgrwt>
</event>
<event>
 4    1  0.1295381E-008  0.2096073E+04  0.7816531E-02  0.8562975E-01
          2   -1    0    0  501    0  0.00000000000E+00  0.00000000000E+00  0.35586873506E+04  0.35586873506E+04  0.00000000000E+00 0.  1.
         -2   -1    0    0    0  501 -0.00000000000E+00 -0.00000000000E+00 -0.30864779647E+03  0.30864779647E+03  0.00000000000E+00 0. -1.
    2000013    1    1    2    0    0  0.36700232525E+02  0.44051472579E+03  0.15845600517E+04  0.18996659412E+04  0.95000000000E+03 0.  0.
   -2000013    1    1    2    0    0 -0.36700232525E+02 -0.44051472579E+03  0.16654795024E+04  0.19676692059E+04  0.95000000000E+03 0.  0.
<mgrwt>
<rscale>  0 0.20960735E+04</rscale>
<asrwt>0</asrwt>
<pdfrwt beam="1">  1        2 0.54749033E+00 0.20960735E+04</pdfrwt>
<pdfrwt beam="2">  1       -2 0.47484279E-01 0.20960735E+04</pdfrwt>
<totfact> 0.28776636E+00</totfact>
</mgrwt>
</event>
<event>
 4    1  0.1295381E-008  0.2168583E+04  0.7816531E-02  0.8531619E-01
          2   -1    0    0  501    0  0.00000000000E+00  0.00000000000E+00  0.24387326041E+04  0.24387326041E+04  0.00000000000E+00 0.  1.
         -2   -1    0    0    0  501 -0.00000000000E+00 -0.00000000000E+00 -0.48208983222E+03  0.48208983222E+03  0.00000000000E+00 0. -1.
    2000013    1    1    2    0    0 -0.29744399731E+03 -0.22434515810E+03  0.14720674980E+04  0.17911690038E+04  0.95000000000E+03 0.  0.
   -2000013    1    1    2    0    0  0.29744399731E+03  0.22434515810E+03  0.48457527382E+03  0.11296534325E+04  0.95000000000E+03 0.  0.
<mgrwt>
<rscale>  0 0.21685831E+04</rscale>
<asrwt>0</asrwt>
<pdfrwt beam="1">  1        2 0.37518962E+00 0.21685831E+04</pdfrwt>
<pdfrwt beam="2">  1       -2 0.74167668E-01 0.21685831E+04</pdfrwt>
<totfact> 0.56656107E+00</totfact>
</mgrwt>
</event>
<event>
 4    1  0.1295381E-008  0.2612397E+04  0.7816531E-02  0.8364003E-01
         -2   -1    0    0    0  501 -0.00000000000E+00  0.00000000000E+00  0.10301644487E+04  0.10301644487E+04  0.00000000000E+00 0. -1.
          2   -1    0    0  501    0  0.00000000000E+00 -0.00000000000E+00 -0.16561957776E+04  0.16561957776E+04  0.00000000000E+00 0.  1.
    2000013    1    1    2    0    0  0.82487286069E+03 -0.34773817660E+03 -0.36251302100E+03  0.13547150129E+04  0.95000000000E+03 0.  0.
   -2000013    1    1    2    0    0 -0.82487286069E+03  0.34773817660E+03 -0.26351830784E+03  0.13316452134E+04  0.95000000000E+03 0.  0.
<mgrwt>
<rscale>  0 0.26123966E+04</rscale>
<asrwt>0</asrwt>
<pdfrwt beam="2">  1        2 0.25479935E+00 0.26123966E+04</pdfrwt>
<pdfrwt beam="1">  1       -2 0.15848684E+00 0.26123966E+04</pdfrwt>
<totfact> 0.23699703E+00</totfact>
</mgrwt>
</event>
<event>
 4    1  0.1295381E-008  0.2741630E+04  0.7816531E-02  0.8321623E-01
         -2   -1    0    0    0  501 -0.00000000000E+00  0.00000000000E+00  0.16692363959E+04  0.16692363959E+04  0.00000000000E+00 0. -1.
          2   -1    0    0  501    0  0.00000000000E+00 -0.00000000000E+00 -0.11257443277E+04  0.11257443277E+04  0.00000000000E+00 0.  1.
    2000013    1    1    2    0    0 -0.84313106773E+03 -0.51524321745E+03  0.28904184464E+03  0.14008535821E+04  0.95000000000E+03 0.  0.
   -2000013    1    1    2    0    0  0.84313106773E+03  0.51524321745E+03  0.25445022362E+03  0.13941271415E+04  0.95000000000E+03 0.  0.
<mgrwt>
<rscale>  0 0.27416297E+04</rscale>
<asrwt>0</asrwt>
<pdfrwt beam="2">  1        2 0.17319143E+00 0.27416297E+04</pdfrwt>
<pdfrwt beam="1">  1       -2 0.25680560E+00 0.27416297E+04</pdfrwt>
<totfact> 0.10718713E+00</totfact>
</mgrwt>
</event>
<event>
 4    1  0.1295381E-008  0.2676432E+04  0.7816531E-02  0.8342693E-01
          2   -1    0    0  501    0  0.00000000000E+00  0.00000000000E+00  0.15255275186E+04  0.15255275186E+04  0.00000000000E+00 0.  1.
         -2   -1    0    0    0  501 -0.00000000000E+00 -0.00000000000E+00 -0.11739036230E+04  0.11739036230E+04  0.00000000000E+00 0. -1.
    2000013    1    1    2    0    0  0.76304790674E+03  0.23345851659E+03  0.68169686865E+03  0.14156113901E+04  0.95000000000E+03 0.  0.
   -2000013    1    1    2    0    0 -0.76304790674E+03 -0.23345851659E+03 -0.33007297297E+03  0.12838197515E+04  0.95000000000E+03 0.  0.
<mgrwt>
<rscale>  0 0.26764322E+04</rscale>
<asrwt>0</asrwt>
<pdfrwt beam="1">  1        2 0.23469654E+00 0.26764322E+04</pdfrwt>
<pdfrwt beam="2">  1       -2 0.18060056E+00 0.26764322E+04</pdfrwt>
<totfact> 0.19388617E+00</totfact>
</mgrwt>
</event>
<event>
 4    1  0.1295381E-008  0.2460111E+04  0.7816531E-02  0.8417336E-01
         -2   -1    0    0    0  501 -0.00000000000E+00  0.00000000000E+00  0.63748479117E+03  0.63748479117E+03  0.00000000000E+00 0. -1.
          2   -1    0    0  501    0  0.00000000000E+00 -0.00000000000E+00 -0.23734473860E+04  0.23734473860E+04  0.00000000000E+00 0.  1.
    2000013    1    1    2    0    0  0.12779992148E+03 -0.76448496031E+03 -0.74702832292E+03  0.14357302636E+04  0.95000000000E+03 0.  0.
   -2000013    1    1    2    0    0 -0.12779992148E+03  0.76448496031E+03 -0.98893427189E+03  0.15752019136E+04  0.95000000000E+03 0.  0.
<mgrwt>
<rscale>  0 0.24601111E+04</rscale>
<asrwt>0</asrwt>
<pdfrwt beam="2">  1        2 0.36514575E+00 0.24601111E+04</pdfrwt>
<pdfrwt beam="1">  1       -2 0.98074583E-01 0.24601111E+04</pdfrwt>
<totfact> 0.31856342E+00</totfact>
</mgrwt>
</event>
<event>
 4    1  0.1295381E-008  0.2159334E+04  0.7816531E-02  0.8535547E-01
         -2   -1    0    0    0  501 -0.00000000000E+00  0.00000000000E+00  0.13278899267E+04  0.13278899267E+04  0.00000000000E+00 0. -1.
          2   -1    0    0  501    0  0.00000000000E+00 -0.00000000000E+00 -0.87784469368E+03  0.87784469368E+03  0.00000000000E+00 0.  1.
    2000013    1    1    2    0    0  0.21752490530E+03  0.30476720659E+03  0.58324471737E+03  0.11759568593E+04  0.95000000000E+03 0.  0.
   -2000013    1    1    2    0    0 -0.21752490530E+03 -0.30476720659E+03 -0.13319948431E+03  0.10297777611E+04  0.95000000000E+03 0.  0.
<mgrwt>
<rscale>  0 0.21593343E+04</rscale>
<asrwt>0</asrwt>
<pdfrwt beam="2">  1        2 0.13505303E+00 0.21593343E+04</pdfrwt>
<pdfrwt beam="1">  1       -2 0.20429076E+00 0.21593343E+04</pdfrwt>
<totfact> 0.34700628E+00</totfact>
</mgrwt>
</event>
<event>
 4    1  0.1295381E-008  0.3977801E+04  0.7816531E-02  0.8009040E-01
          2   -1    0    0  501    0  0.00000000000E+00  0.00000000000E+00  0.31750209120E+04  0.31750209120E+04  0.00000000000E+00 0.  1.
         -2   -1    0    0    0  501 -0.00000000000E+00 -0.00000000000E+00 -0.12458896435E+04  0.12458896435E+04  0.00000000000E+00 0. -1.
    2000013    1    1    2    0    0  0.13801823813E+04  0.86487821354E+03  0.26138685953E+03  0.19036125709E+04  0.95000000000E+03 0.  0.
   -2000013    1    1    2    0    0 -0.13801823813E+04 -0.86487821354E+03  0.16677444090E+04  0.25172979846E+04  0.95000000000E+03 0.  0.
<mgrwt>
<rscale>  0 0.39778012E+04</rscale>
<asrwt>0</asrwt>
<pdfrwt beam="1">  1        2 0.48846475E+00 0.39778012E+04</pdfrwt>
<pdfrwt beam="2">  1       -2 0.19167533E+00 0.39778012E+04</pdfrwt>
<totfact> 0.16055057E-01</totfact>
</mgrwt>
</event>
<event>
 4    1  0.1295381E-008  0.2346632E+04  0.7816531E-02  0.8459758E-01
         -2   -1    0    0    0  501 -0.00000000000E+00  0.00000000000E+00  0.56237459667E+03  0.56237459667E+03  0.00000000000E+00 0. -1.
          2   -1    0    0  501    0  0.00000000000E+00 -0.00000000000E+00 -0.24479608768E+04  0.24479608768E+04  0.00000000000E+00 0.  1.
    2000013    1    1    2    0    0  0.68293912141E+03 -0.18435701775E+02 -0.10533349543E+04  0.15744079029E+04  0.95000000000E+03 0.  0.
   -2000013    1    1    2    0    0 -0.68293912141E+03  0.18435701775E+02 -0.83225132580E+03  0.14359275706E+04  0.95000000000E+03 0.  0.
<mgrwt>
<rscale>  0 0.23466325E+04</rscale>
<asrwt>0</asrwt>
<pdfrwt beam="2">  1        2 0.37660937E+00 0.23466325E+04</pdfrwt>
<pdfrwt beam="1">  1       -2 0.86519169E-01 0.23466325E+04</pdfrwt>
<totfact> 0.38987096E+00</totfact>
</mgrwt>
</event>
<event>
 4    1  0.1295381E-008  0.2990011E+04  0.7816531E-02  0.8246589E-01
          2   -1    0    0  501    0  0.00000000000E+00  0.00000000000E+00  0.21874682444E+04  0.21874682444E+04  0.00000000000E+00 0.  1.
         -2   -1    0    0    0  501 -0.00000000000E+00 -0.00000000000E+00 -0.10217477255E+04  0.10217477255E+04  0.00000000000E+00 0. -1.
    2000013    1    1    2    0    0 -0.62138064306E+02  0.11453842689E+04  0.44384891088E+03  0.15541132900E+04  0.95000000000E+03 0.  0.
   -2000013    1    1    2    0    0  0.62138064306E+02 -0.11453842689E+04  0.72187160806E+03  0.16551026799E+04  0.95000000000E+03 0.  0.
<mgrwt>
<rscale>  0 0.29900105E+04</rscale>
<asrwt>0</asrwt>
<pdfrwt beam="1">  1        2 0.33653357E+00 0.29900105E+04</pdfrwt>
<pdfrwt beam="2">  1       -2 0.15719196E+00 0.29900105E+04</pdfrwt>
<totfact> 0.11884044E+00</totfact>
</mgrwt>
</event>
<event>
 4    1  0.1295381E-008  0.2401853E+04  0.7816531E-02  0.8438810E-01
          2   -1    0    0  501    0  0.00000000000E+00  0.00000000000E+00  0.24199028655E+04  0.24199028655E+04  0.00000000000E+00 0.  1.
         -2   -1    0    0    0  501 -0.00000000000E+00 -0.00000000000E+00 -0.59598419887E+03  0.59598419887E+03  0.00000000000E+00 0. -1.
    2000013    1    1    2    0    0 -0.69043594787E+03 -0.33825662850E+02  0.12243057384E+04  0.16968413346E+04  0.95000000000E+03 0.  0.
   -2000013    1    1    2    0    0  0.69043594787E+03  0.33825662850E+02  0.59961292816E+03  0.13190457298E+04  0.95000000000E+03 0.  0.
<mgrwt>
<rscale>  0 0.24018525E+04</rscale>
<asrwt>0</asrwt>
<pdfrwt beam="1">  1        2 0.37229274E+00 0.24018525E+04</pdfrwt>
<pdfrwt beam="2">  1       -2 0.91689878E-01 0.24018525E+04</pdfrwt>
<totfact> 0.35237693E+00</totfact>
</mgrwt>
</event>
<event>
 4    1  0.1295381E-008  0.2260218E+04  0.7816531E-02  0.8493774E-01
          2   -1    0    0  501    0  0.00000000000E+00  0.00000000000E+00  0.25488836560E+04  0.25488836560E+04  0.00000000000E+00 0.  1.
         -2   -1    0    0    0  501 -0.00000000000E+00 -0.00000000000E+00 -0.50106119538E+03  0.50106119538E+03  0.00000000000E+00 0. -1.
    2000013    1    1    2    0    0 -0.27278036645E+03  0.49299212066E+03  0.13466310881E+04  0.17416560070E+04  0.95000000000E+03 0.  0.
   -2000013    1    1    2    0    0  0.27278036645E+03 -0.49299212066E+03  0.70119137254E+03  0.13082888444E+04  0.95000000000E+03 0.  0.
<mgrwt>
<rscale>  0 0.22602183E+04</rscale>
<asrwt>0</asrwt>
<pdfrwt beam="1">  1        2 0.39213594E+00 0.22602183E+04</pdfrwt>
<pdfrwt beam="2">  1       -2 0.77086339E-01 0.22602183E+04</pdfrwt>
<totfact> 0.44551051E+00</totfact>
</mgrwt>
</event>
<event>
 4    1  0.1295381E-008  0.2122683E+04  0.7816531E-02  0.8551317E-01
          2   -1    0    0  501    0  0.00000000000E+00  0.00000000000E+00  0.19382434788E+04  0.19382434788E+04  0.00000000000E+00 0.  1.
         -2   -1    0    0    0  501 -0.00000000000E+00 -0.00000000000E+00 -0.58116845586E+03  0.58116845586E+03  0.00000000000E+00 0. -1.
    2000013    1    1    2    0    0 -0.37203065573E+03  0.23741184937E+03  0.88126738941E+03  0.13689059159E+04  0.95000000000E+03 0.  0.
   -2000013    1    1    2    0    0  0.37203065573E+03 -0.23741184937E+03  0.47580763353E+03  0.11505060187E+04  0.95000000000E+03 0.  0.
<mgrwt>
<rscale>  0 0.21226832E+04</rscale>
<asrwt>0</asrwt>
<pdfrwt beam="1">  1        2 0.29819130E+00 0.21226832E+04</pdfrwt>
<pdfrwt beam="2">  1       -2 0.89410533E-01 0.21226832E+04</pdfrwt>
<totfact> 0.71361453E+00</totfact>
</mgrwt>
</event>
<event>
 4    1  0.1295381E-008  0.2087823E+04  0.7816531E-02  0.8566627E-01
         -2   -1    0    0    0  501 -0.00000000000E+00  0.00000000000E+00  0.35516060877E+03  0.35516060877E+03  0.00000000000E+00 0. -1.
          2   -1    0    0  501    0  0.00000000000E+00 -0.00000000000E+00 -0.30683330822E+04  0.30683330822E+04  0.00000000000E+00 0.  1.
    2000013    1    1    2    0    0 -0.34761943108E+03 -0.24616902692E+03 -0.12315716724E+04  0.16126708415E+04  0.95000000000E+03 0.  0.
   -2000013    1    1    2    0    0  0.34761943108E+03  0.24616902692E+03 -0.14816008010E+04  0.18108228495E+04  0.95000000000E+03 0.  0.
<mgrwt>
<rscale>  0 0.20878228E+04</rscale>
<asrwt>0</asrwt>
<pdfrwt beam="2">  1        2 0.47205124E+00 0.20878228E+04</pdfrwt>
<pdfrwt beam="1">  1       -2 0.54640094E-01 0.20878228E+04</pdfrwt>
<totfact> 0.45932921E+00</totfact>
</mgrwt>
</event>
<event>
 4    1  0.1295381E-008  0.4145555E+04  0.7816531E-02  0.7975810E-01
          2   -1    0    0  501    0  0.00000000000E+00  0.00000000000E+00  0.22012811879E+04  0.22012811879E+04  0.00000000000E+00 0.  1.
         -2   -1    0    0    0  501 -0.00000000000E+00 -0.00000000000E+00 -0.19517753671E+04  0.19517753671E+04  0.00000000000E+00 0. -1.
    2000013    1    1    2    0    0  0.42438271047E+03  0.17738569576E+04 -0.13501769497E+03  0.20609218736E+04  0.95000000000E+03 0.  0.
   -2000013    1    1    2    0    0 -0.42438271047E+03 -0.17738569576E+04  0.38452351579E+03  0.20921346815E+04  0.95000000000E+03 0.  0.
<mgrwt>
<rscale>  0 0.41455549E+04</rscale>
<asrwt>0</asrwt>
<pdfrwt beam="1">  1        2 0.33865864E+00 0.41455549E+04</pdfrwt>
<pdfrwt beam="2">  1       -2 0.30027313E+00 0.41455549E+04</pdfrwt>
<totfact> 0.12726604E-01</totfact>
</mgrwt>
</event>
<event>
 4    1  0.1295381E-008  0.3085144E+04  0.7816531E-02  0.8219827E-01
          2   -1    0    0  501    0  0.00000000000E+00  0.00000000000E+00  0.14494180233E+04  0.14494180233E+04  0.00000000000E+00 0.  1.
         -2   -1    0    0    0  501 -0.00000000000E+00 -0.00000000000E+00 -0.16417133166E+04  0.16417133166E+04  0.00000000000E+00 0. -1.
    2000013    1    1    2    0    0 -0.10329407899E+04 -0.57687598689E+03 -0.37467323892E+03  0.15628923877E+04  0.95000000000E+03 0.  0.
   -2000013    1    1    2    0    0  0.10329407899E+04  0.57687598689E+03  0.18237794561E+03  0.15282389521E+04  0.95000000000E+03 0.  0.
<mgrwt>
<rscale>  0 0.30851443E+04</rscale>
<asrwt>0</asrwt>
<pdfrwt beam="1">  1        2 0.22298739E+00 0.30851443E+04</pdfrwt>
<pdfrwt beam="2">  1       -2 0.25257128E+00 0.30851443E+04</pdfrwt>
<totfact> 0.71427379E-01</totfact>
</mgrwt>
</event>
<event>
 4    1  0.1295381E-008  0.2294020E+04  0.7816531E-02  0.8480283E-01
          1   -1    0    0  501    0  0.00000000000E+00  0.00000000000E+00  0.22393303943E+04  0.22393303943E+04  0.00000000000E+00 0.  1.
         -1   -1    0    0    0  501 -0.00000000000E+00 -0.00000000000E+00 -0.58751152161E+03  0.58751152161E+03  0.00000000000E+00 0. -1.
    2000013    1    1    2    0    0  0.45027672337E+03  0.43276476685E+03  0.10131891924E+04  0.15228548226E+04  0.95000000000E+03 0.  0.
   -2000013    1    1    2    0    0 -0.45027672337E+03 -0.43276476685E+03  0.63862968029E+03  0.13039870933E+04  0.95000000000E+03 0.  0.
<mgrwt>
<rscale>  0 0.22940204E+04</rscale>
<asrwt>0</asrwt>
<pdfrwt beam="1">  1        1 0.34451236E+00 0.22940204E+04</pdfrwt>
<pdfrwt beam="2">  1       -1 0.90386390E-01 0.22940204E+04</pdfrwt>
<totfact> 0.22155804E+00</totfact>
</mgrwt>
</event>
<event>
 4    1  0.1295381E-008  0.2127365E+04  0.7816531E-02  0.8549284E-01
         -2   -1    0    0    0  501 -0.00000000000E+00  0.00000000000E+00  0.70929411689E+03  0.70929411689E+03  0.00000000000E+00 0. -1.
          2   -1    0    0  501    0  0.00000000000E+00 -0.00000000000E+00 -0.15951365350E+04  0.15951365350E+04  0.00000000000E+00 0.  1.
    2000013    1    1    2    0    0 -0.31758776820E+03 -0.34756464953E+03 -0.35063781646E+03  0.11167408179E+04  0.95000000000E+03 0.  0.
   -2000013    1    1    2    0    0  0.31758776820E+03  0.34756464953E+03 -0.53520460170E+03  0.11876898340E+04  0.95000000000E+03 0.  0.
<mgrwt>
<rscale>  0 0.21273655E+04</rscale>
<asrwt>0</asrwt>
<pdfrwt beam="2">  1        2 0.24540562E+00 0.21273655E+04</pdfrwt>
<pdfrwt beam="1">  1       -2 0.10912217E+00 0.21273655E+04</pdfrwt>
<totfact> 0.69131603E+00</totfact>
</mgrwt>
</event>
<event>
 4    1  0.1295381E-008  0.4229018E+04  0.7816531E-02  0.7959875E-01
          2   -1    0    0  501    0  0.00000000000E+00  0.00000000000E+00  0.23083069627E+04  0.23083069627E+04  0.00000000000E+00 0.  1.
         -2   -1    0    0    0  501 -0.00000000000E+00 -0.00000000000E+00 -0.19369814512E+04  0.19369814512E+04  0.00000000000E+00 0. -1.
    2000013    1    1    2    0    0  0.13593258328E+04 -0.11668871681E+04  0.78734796797E+03  0.21752722141E+04  0.95000000000E+03 0.  0.
   -2000013    1    1    2    0    0 -0.13593258328E+04  0.11668871681E+04 -0.41602245651E+03  0.20700161997E+04  0.95000000000E+03 0.  0.
<mgrwt>
<rscale>  0 0.42290177E+04</rscale>
<asrwt>0</asrwt>
<pdfrwt beam="1">  1        2 0.35512415E+00 0.42290177E+04</pdfrwt>
<pdfrwt beam="2">  1       -2 0.29799715E+00 0.42290177E+04</pdfrwt>
<totfact> 0.11355331E-01</totfact>
</mgrwt>
</event>
<event>
 4    1  0.1295381E-008  0.2813206E+04  0.7816531E-02  0.8299180E-01
          2   -1    0    0  501    0  0.00000000000E+00  0.00000000000E+00  0.32683556639E+04  0.32683556639E+04  0.00000000000E+00 0.  1.
         -2   -1    0    0    0  501 -0.00000000000E+00 -0.00000000000E+00 -0.60536014896E+03  0.60536014896E+03  0.00000000000E+00 0. -1.
    2000013    1    1    2    0    0  0.85361289292E+03  0.54807518964E+02  0.21395529284E+04  0.24923574320E+04  0.95000000000E+03 0.  0.
   -2000013    1    1    2    0    0 -0.85361289292E+03 -0.54807518964E+02  0.52344258649E+03  0.13813583809E+04  0.95000000000E+03 0.  0.
<mgrwt>
<rscale>  0 0.28132062E+04</rscale>
<asrwt>0</asrwt>
<pdfrwt beam="1">  1        2 0.50282394E+00 0.28132062E+04</pdfrwt>
<pdfrwt beam="2">  1       -2 0.93132332E-01 0.28132062E+04</pdfrwt>
<totfact> 0.99172045E-01</totfact>
</mgrwt>
</event>
<event>
 4    1  0.1295381E-008  0.2741907E+04  0.7816531E-02  0.8321534E-01
         -2   -1    0    0    0  501 -0.00000000000E+00  0.00000000000E+00  0.10121733562E+04  0.10121733562E+04  0.00000000000E+00 0. -1.
          2   -1    0    0  501    0  0.00000000000E+00 -0.00000000000E+00 -0.18569084860E+04  0.18569084860E+04  0.00000000000E+00 0.  1.
    2000013    1    1    2    0    0  0.98148074859E+03 -0.11287000211E+03 -0.38979167295E+03  0.14249496993E+04  0.95000000000E+03 0.  0.
   -2000013    1    1    2    0    0 -0.98148074859E+03  0.11287000211E+03 -0.45494345685E+03  0.14441321429E+04  0.95000000000E+03 0.  0.
<mgrwt>
<rscale>  0 0.27419069E+04</rscale>
<asrwt>0</asrwt>
<pdfrwt beam="2">  1        2 0.28567823E+00 0.27419069E+04</pdfrwt>
<pdfrwt beam="1">  1       -2 0.15571898E+00 0.27419069E+04</pdfrwt>
<totfact> 0.19021289E+00</totfact>
</mgrwt>
</event>
<event>
 4    1  0.1295381E-008  0.2222117E+04  0.7816531E-02  0.8509279E-01
         -1   -1    0    0    0  501 -0.00000000000E+00  0.00000000000E+00  0.53366823060E+03  0.53366823060E+03  0.00000000000E+00 0. -1.
          1   -1    0    0  501    0  0.00000000000E+00 -0.00000000000E+00 -0.23131427881E+04  0.23131427881E+04  0.00000000000E+00 0.  1.
    2000013    1    1    2    0    0 -0.49078984509E+03  0.41214134121E+02 -0.50673095045E+03  0.11839972690E+04  0.95000000000E+03 0.  0.
   -2000013    1    1    2    0    0  0.49078984509E+03 -0.41214134121E+02 -0.12727436071E+04  0.16628137497E+04  0.95000000000E+03 0.  0.
<mgrwt>
<rscale>  0 0.22221168E+04</rscale>
<asrwt>0</asrwt>
<pdfrwt beam="2">  1        1 0.35586812E+00 0.22221168E+04</pdfrwt>
<pdfrwt beam="1">  1       -1 0.82102804E-01 0.22221168E+04</pdfrwt>
<totfact> 0.24474144E+00</totfact>
</mgrwt>
</event>
<event>
 4    1  0.1295381E-008  0.3414651E+04  0.7816531E-02  0.8134320E-01
         -2   -1    0    0    0  501 -0.00000000000E+00  0.00000000000E+00  0.12048316614E+04  0.12048316614E+04  0.00000000000E+00 0. -1.
          2   -1    0    0  501    0  0.00000000000E+00 -0.00000000000E+00 -0.24193917985E+04  0.24193917985E+04  0.00000000000E+00 0.  1.
    2000013    1    1    2    0    0 -0.24600694538E+03 -0.12313481085E+04 -0.13078855920E+04  0.20469006578E+04  0.95000000000E+03 0.  0.
   -2000013    1    1    2    0    0  0.24600694538E+03  0.12313481085E+04  0.93325454862E+02  0.15773228021E+04  0.95000000000E+03 0.  0.
<mgrwt>
<rscale>  0 0.34146507E+04</rscale>
<asrwt>0</asrwt>
<pdfrwt beam="2">  1        2 0.37221412E+00 0.34146507E+04</pdfrwt>
<pdfrwt beam="1">  1       -2 0.18535872E+00 0.34146507E+04</pdfrwt>
<totfact> 0.53416015E-01</totfact>
</mgrwt>
</event>
<event>
 4    1  0.1295381E-008  0.2740951E+04  0.7816531E-02  0.8321839E-01
          2   -1    0    0  501    0  0.00000000000E+00  0.00000000000E+00  0.12435105629E+04  0.12435105629E+04  0.00000000000E+00 0.  1.
         -2   -1    0    0    0  501 -0.00000000000E+00 -0.00000000000E+00 -0.15104032796E+04  0.15104032796E+04  0.00000000000E+00 0. -1.
    2000013    1    1    2    0    0  0.71707956859E+03 -0.36324493123E+03  0.44333527547E+03  0.13210587247E+04  0.95000000000E+03 0.  0.
   -2000013    1    1    2    0    0 -0.71707956859E+03  0.36324493123E+03 -0.71022799212E+03  0.14328551178E+04  0.95000000000E+03 0.  0.
<mgrwt>
<rscale>  0 0.27409505E+04</rscale>
<asrwt>0</asrwt>
<pdfrwt beam="1">  1        2 0.19130932E+00 0.27409505E+04</pdfrwt>
<pdfrwt beam="2">  1       -2 0.23236973E+00 0.27409505E+04</pdfrwt>
<totfact> 0.12892489E+00</totfact>
</mgrwt>
</event>
<event>
 4    1  0.1295381E-008  0.2238710E+04  0.7816531E-02  0.8502487E-01
         -2   -1    0    0    0  501 -0.00000000000E+00  0.00000000000E+00  0.70422072413E+03  0.70422072413E+03  0.00000000000E+00 0. -1.
          2   -1    0    0  501    0  0.00000000000E+00 -0.00000000000E+00 -0.17792083251E+04  0.17792083251E+04  0.00000000000E+00 0.  1.
    2000013    1    1    2    0    0  0.39023106203E+03 -0.36802457306E+03 -0.25964916768E+03  0.11214455218E+04  0.95000000000E+03 0.  0.
   -2000013    1    1    2    0    0 -0.39023106203E+03  0.36802457306E+03 -0.81533843331E+03  0.13619835274E+04  0.95000000000E+03 0.  0.
<mgrwt>
<rscale>  0 0.22387098E+04</rscale>
<asrwt>0</asrwt>
<pdfrwt beam="2">  1        2 0.27372435E+00 0.22387098E+04</pdfrwt>
<pdfrwt beam="1">  1       -2 0.10834165E+00 0.22387098E+04</pdfrwt>
<totfact> 0.55036542E+00</totfact>
</mgrwt>
</event>
<event>
 4    1  0.1295381E-008  0.2537816E+04  0.7816531E-02  0.8389636E-01
          1   -1    0    0  501    0  0.00000000000E+00  0.00000000000E+00  0.43837390561E+04  0.43837390561E+04  0.00000000000E+00 0.  1.
         -1   -1    0    0    0  501 -0.00000000000E+00 -0.00000000000E+00 -0.36729535610E+03  0.36729535610E+03  0.00000000000E+00 0. -1.
    2000013    1    1    2    0    0 -0.18538630789E+01 -0.80471336895E+03  0.15494248025E+04  0.19876579840E+04  0.95000000000E+03 0.  0.
   -2000013    1    1    2    0    0  0.18538630789E+01  0.80471336895E+03  0.24670188975E+04  0.27633764282E+04  0.95000000000E+03 0.  0.
<mgrwt>
<rscale>  0 0.25378156E+04</rscale>
<asrwt>0</asrwt>
<pdfrwt beam="1">  1        1 0.67442136E+00 0.25378156E+04</pdfrwt>
<pdfrwt beam="2">  1       -1 0.56506981E-01 0.25378156E+04</pdfrwt>
<totfact> 0.11884472E-01</totfact>
</mgrwt>
</event>
<event>
 4    1  0.1295381E-008  0.2441976E+04  0.7816531E-02  0.8423953E-01
         -2   -1    0    0    0  501 -0.00000000000E+00  0.00000000000E+00  0.14937291696E+04  0.14937291696E+04  0.00000000000E+00 0. -1.
          2   -1    0    0  501    0  0.00000000000E+00 -0.00000000000E+00 -0.99804694868E+03  0.99804694868E+03  0.00000000000E+00 0.  1.
    2000013    1    1    2    0    0 -0.48136381880E+03 -0.49803665873E+03  0.58404514818E+03  0.13127682105E+04  0.95000000000E+03 0.  0.
   -2000013    1    1    2    0    0  0.48136381880E+03  0.49803665873E+03 -0.88362927309E+02  0.11790079077E+04  0.95000000000E+03 0.  0.
<mgrwt>
<rscale>  0 0.24419761E+04</rscale>
<asrwt>0</asrwt>
<pdfrwt beam="2">  1        2 0.15354568E+00 0.24419761E+04</pdfrwt>
<pdfrwt beam="1">  1       -2 0.22980449E+00 0.24419761E+04</pdfrwt>
<totfact> 0.19406358E+00</totfact>
</mgrwt>
</event>
<event>
 4    1  0.1295381E-008  0.2559065E+04  0.7816531E-02  0.8382240E-01
          1   -1    0    0  501    0  0.00000000000E+00  0.00000000000E+00  0.23217220603E+04  0.23217220603E+04  0.00000000000E+00 0.  1.
         -1   -1    0    0    0  501 -0.00000000000E+00 -0.00000000000E+00 -0.70516792144E+03  0.70516792144E+03  0.00000000000E+00 0. -1.
    2000013    1    1    2    0    0 -0.23421154281E+03  0.18007956226E+03 -0.14344114970E+03  0.10051661847E+04  0.95000000000E+03 0.  0.
   -2000013    1    1    2    0    0  0.23421154281E+03 -0.18007956226E+03  0.17599952885E+04  0.20217237970E+04  0.95000000000E+03 0.  0.
<mgrwt>
<rscale>  0 0.25590654E+04</rscale>
<asrwt>0</asrwt>
<pdfrwt beam="1">  1        1 0.35718800E+00 0.25590654E+04</pdfrwt>
<pdfrwt beam="2">  1       -1 0.10848737E+00 0.25590654E+04</pdfrwt>
<totfact> 0.12530443E+00</totfact>
</mgrwt>
</event>
<event>
 4    1  0.1295381E-008  0.2019955E+04  0.7816531E-02  0.8597347E-01
         -2   -1    0    0    0  501 -0.00000000000E+00  0.00000000000E+00  0.52937962094E+03  0.52937962094E+03  0.00000000000E+00 0. -1.
          2   -1    0    0  501    0  0.00000000000E+00 -0.00000000000E+00 -0.19268874259E+04  0.19268874259E+04  0.00000000000E+00 0.  1.
    2000013    1    1    2    0    0  0.32544548796E+03 -0.59989559060E+02 -0.80779751744E+03  0.12901745394E+04  0.95000000000E+03 0.  0.
   -2000013    1    1    2    0    0 -0.32544548796E+03  0.59989559060E+02 -0.58971028755E+03  0.11660925075E+04  0.95000000000E+03 0.  0.
<mgrwt>
<rscale>  0 0.20199554E+04</rscale>
<asrwt>0</asrwt>
<pdfrwt beam="2">  1        2 0.29644422E+00 0.20199554E+04</pdfrwt>
<pdfrwt beam="1">  1       -2 0.81443018E-01 0.20199554E+04</pdfrwt>
<totfact> 0.90344709E+00</totfact>
</mgrwt>
</event>
<event>
 4    1  0.1295381E-008  0.2559529E+04  0.7816531E-02  0.8382080E-01
         -2   -1    0    0    0  501 -0.00000000000E+00  0.00000000000E+00  0.14797162219E+04  0.14797162219E+04  0.00000000000E+00 0. -1.
          2   -1    0    0  501    0  0.00000000000E+00 -0.00000000000E+00 -0.11068321800E+04  0.11068321800E+04  0.00000000000E+00 0.  1.
    2000013    1    1    2    0    0 -0.41539804304E+03 -0.74533288075E+03  0.27231489619E+03  0.13056538745E+04  0.95000000000E+03 0.  0.
   -2000013    1    1    2    0    0  0.41539804304E+03  0.74533288075E+03  0.10056914569E+03  0.12808945274E+04  0.95000000000E+03 0.  0.
<mgrwt>
<rscale>  0 0.25595293E+04</rscale>
<asrwt>0</asrwt>
<pdfrwt beam="2">  1        2 0.17028187E+00 0.25595293E+04</pdfrwt>
<pdfrwt beam="1">  1       -2 0.22764865E+00 0.25595293E+04</pdfrwt>
<totfact> 0.16935536E+00</totfact>
</mgrwt>
</event>
<event>
 4    1  0.1295381E-008  0.2826472E+04  0.7816531E-02  0.8295097E-01
         -1   -1    0    0    0  501 -0.00000000000E+00  0.00000000000E+00  0.18829275890E+04  0.18829275890E+04  0.00000000000E+00 0. -1.
          1   -1    0    0  501    0  0.00000000000E+00 -0.00000000000E+00 -0.10607075523E+04  0.10607075523E+04  0.00000000000E+00 0.  1.
    2000013    1    1    2    0    0 -0.79719766215E+03  0.61883035380E+03  0.12351002772E+03  0.13914847632E+04  0.95000000000E+03 0.  0.
   -2000013    1    1    2    0    0  0.79719766215E+03 -0.61883035380E+03  0.69871000901E+03  0.15521503780E+04  0.95000000000E+03 0.  0.
<mgrwt>
<rscale>  0 0.28264717E+04</rscale>
<asrwt>0</asrwt>
<pdfrwt beam="2">  1        1 0.16318578E+00 0.28264717E+04</pdfrwt>
<pdfrwt beam="1">  1       -1 0.28968117E+00 0.28264717E+04</pdfrwt>
<totfact> 0.45185319E-01</totfact>
</mgrwt>
</event>
<event>
 4    1  0.1295381E-008  0.3019990E+04  0.7816531E-02  0.8238046E-01
         -2   -1    0    0    0  501 -0.00000000000E+00  0.00000000000E+00  0.10113482258E+04  0.10113482258E+04  0.00000000000E+00 0. -1.
          2   -1    0    0  501    0  0.00000000000E+00 -0.00000000000E+00 -0.22544996540E+04  0.22544996540E+04  0.00000000000E+00 0.  1.
    2000013    1    1    2    0    0 -0.80629940025E+03  0.77971731546E+03 -0.99541601016E+03  0.17752269850E+04  0.95000000000E+03 0.  0.
   -2000013    1    1    2    0    0  0.80629940025E+03 -0.77971731546E+03 -0.24773541805E+03  0.14906208949E+04  0.95000000000E+03 0.  0.
<mgrwt>
<rscale>  0 0.30199896E+04</rscale>
<asrwt>0</asrwt>
<pdfrwt beam="2">  1        2 0.34684610E+00 0.30199896E+04</pdfrwt>
<pdfrwt beam="1">  1       -2 0.15559204E+00 0.30199896E+04</pdfrwt>
<totfact> 0.11171030E+00</totfact>
</mgrwt>
</event>
<event>
 4    1  0.1295381E-008  0.3008757E+04  0.7816531E-02  0.8241235E-01
         -2   -1    0    0    0  501 -0.00000000000E+00  0.00000000000E+00  0.90185087343E+03  0.90185087343E+03  0.00000000000E+00 0. -1.
          2   -1    0    0  501    0  0.00000000000E+00 -0.00000000000E+00 -0.25094554307E+04  0.25094554307E+04  0.00000000000E+00 0.  1.
    2000013    1    1    2    0    0  0.79939902368E+03  0.81562621198E+03 -0.53461390285E+03  0.15787960419E+04  0.95000000000E+03 0.  0.
   -2000013    1    1    2    0    0 -0.79939902368E+03 -0.81562621198E+03 -0.10729906544E+04  0.18325102622E+04  0.95000000000E+03 0.  0.
<mgrwt>
<rscale>  0 0.30087569E+04</rscale>
<asrwt>0</asrwt>
<pdfrwt beam="2">  1        2 0.38607006E+00 0.30087569E+04</pdfrwt>
<pdfrwt beam="1">  1       -2 0.13874629E+00 0.30087569E+04</pdfrwt>
<totfact> 0.10807952E+00</totfact>
</mgrwt>
</event>
<event>
 4    1  0.1295381E-008  0.2898924E+04  0.7816531E-02  0.8273198E-01
         -2   -1    0    0    0  501 -0.00000000000E+00  0.00000000000E+00  0.10707469626E+04  0.10707469626E+04  0.00000000000E+00 0.  1.
          2   -1    0    0  501    0  0.00000000000E+00 -0.00000000000E+00 -0.19621256716E+04  0.19621256716E+04  0.00000000000E+00 0. -1.
    2000013    1    1    2    0    0 -0.10720955654E+04  0.19118061911E+03 -0.56266426394E+03  0.15508159157E+04  0.95000000000E+03 0.  0.
   -2000013    1    1    2    0    0  0.10720955654E+04 -0.19118061911E+03 -0.32871444502E+03  0.14820567185E+04  0.95000000000E+03 0.  0.
<mgrwt>
<rscale>  0 0.28989240E+04</rscale>
<asrwt>0</asrwt>
<pdfrwt beam="2">  1        2 0.30186549E+00 0.28989240E+04</pdfrwt>
<pdfrwt beam="1">  1       -2 0.16473030E+00 0.28989240E+04</pdfrwt>
<totfact> 0.14079533E+00</totfact>
</mgrwt>
</event>
<event>
 4    1  0.1295381E-008  0.2653531E+04  0.7816531E-02  0.8350242E-01
         -2   -1    0    0    0  501 -0.00000000000E+00  0.00000000000E+00  0.16261853698E+04  0.16261853698E+04  0.00000000000E+00 0. -1.
          2   -1    0    0  501    0  0.00000000000E+00 -0.00000000000E+00 -0.10824764252E+04  0.10824764252E+04  0.00000000000E+00 0.  1.
    2000013    1    1    2    0    0  0.68503608500E+03 -0.51035671440E+03  0.63715676550E+03  0.14276579273E+04  0.95000000000E+03 0.  0.
   -2000013    1    1    2    0    0 -0.68503608500E+03  0.51035671440E+03 -0.93447820887E+02  0.12810038676E+04  0.95000000000E+03 0.  0.
<mgrwt>
<rscale>  0 0.26535315E+04</rscale>
<asrwt>0</asrwt>
<pdfrwt beam="2">  1        2 0.16653484E+00 0.26535315E+04</pdfrwt>
<pdfrwt beam="1">  1       -2 0.25018236E+00 0.26535315E+04</pdfrwt>
<totfact> 0.12608228E+00</totfact>
</mgrwt>
</event>
<event>
 4    1  0.1295381E-008  0.2570217E+04  0.7816531E-02  0.8378389E-01
          2   -1    0    0  501    0  0.00000000000E+00  0.00000000000E+00  0.38787713939E+04  0.38787713939E+04  0.00000000000E+00 0.  1.
         -2   -1    0    0    0  501 -0.00000000000E+00 -0.00000000000E+00 -0.42578011314E+03  0.42578011314E+03  0.00000000000E+00 0. -1.
    2000013    1    1    2    0    0 -0.19112604389E+03 -0.43910050325E+03  0.51918230836E+03  0.11838026381E+04  0.95000000000E+03 0.  0.
   -2000013    1    1    2    0    0  0.19112604389E+03  0.43910050325E+03  0.29338089724E+04  0.31207488689E+04  0.95000000000E+03 0.  0.
<mgrwt>
<rscale>  0 0.25702169E+04</rscale>
<asrwt>0</asrwt>
<pdfrwt beam="1">  1        2 0.59673404E+00 0.25702169E+04</pdfrwt>
<pdfrwt beam="2">  1       -2 0.65504635E-01 0.25702169E+04</pdfrwt>
<totfact> 0.81491444E-01</totfact>
</mgrwt>
</event>
<event>
 4    1  0.1295381E-008  0.2876252E+04  0.7816531E-02  0.8279978E-01
         -2   -1    0    0    0  501 -0.00000000000E+00  0.00000000000E+00  0.13472180675E+04  0.13472180675E+04  0.00000000000E+00 0. -1.
          2   -1    0    0  501    0  0.00000000000E+00 -0.00000000000E+00 -0.15351684911E+04  0.15351684911E+04  0.00000000000E+00 0.  1.
    2000013    1    1    2    0    0 -0.98250700604E+03 -0.40223470042E+03  0.10289722068E+03  0.14283559112E+04  0.95000000000E+03 0.  0.
   -2000013    1    1    2    0    0  0.98250700604E+03  0.40223470042E+03 -0.29084764432E+03  0.14540306473E+04  0.95000000000E+03 0.  0.
<mgrwt>
<rscale>  0 0.28762522E+04</rscale>
<asrwt>0</asrwt>
<pdfrwt beam="2">  1        2 0.23617977E+00 0.28762522E+04</pdfrwt>
<pdfrwt beam="1">  1       -2 0.20726432E+00 0.28762522E+04</pdfrwt>
<totfact> 0.12507545E+00</totfact>
</mgrwt>
</event>
<event>
 4    1  0.1295381E-008  0.2073730E+04  0.7816531E-02  0.8572905E-01
          2   -1    0    0  501    0  0.00000000000E+00  0.00000000000E+00  0.24281212863E+04  0.24281212863E+04  0.00000000000E+00 0.  1.
         -2   -1    0    0    0  501 -0.00000000000E+00 -0.00000000000E+00 -0.44276587811E+03  0.44276587811E+03  0.00000000000E+00 0. -1.
    2000013    1    1    2    0    0 -0.27086345983E+03  0.13835498572E+03  0.13844432804E+04  0.17063681645E+04  0.95000000000E+03 0.  0.
   -2000013    1    1    2    0    0  0.27086345983E+03 -0.13835498572E+03  0.60091212775E+03  0.11645189999E+04  0.95000000000E+03 0.  0.
<mgrwt>
<rscale>  0 0.20737302E+04</rscale>
<asrwt>0</asrwt>
<pdfrwt beam="1">  1        2 0.37355711E+00 0.20737302E+04</pdfrwt>
<pdfrwt beam="2">  1       -2 0.68117829E-01 0.20737302E+04</pdfrwt>
<totfact> 0.69800233E+00</totfact>
</mgrwt>
</event>
<event>
 4    1  0.1295381E-008  0.2042617E+04  0.7816531E-02  0.8586951E-01
          2   -1    0    0  501    0  0.00000000000E+00  0.00000000000E+00  0.53840686122E+03  0.53840686122E+03  0.00000000000E+00 0.  1.
         -2   -1    0    0    0  501 -0.00000000000E+00 -0.00000000000E+00 -0.19373296023E+04  0.19373296023E+04  0.00000000000E+00 0. -1.
    2000013    1    1    2    0    0  0.81618232687E+02 -0.20103775103E+03 -0.32885843125E+03  0.10284578655E+04  0.95000000000E+03 0.  0.
   -2000013    1    1    2    0    0 -0.81618232687E+02  0.20103775103E+03 -0.10700643099E+04  0.14472785981E+04  0.95000000000E+03 0.  0.
<mgrwt>
<rscale>  0 0.20426175E+04</rscale>
<asrwt>0</asrwt>
<pdfrwt beam="1">  1        2 0.82831825E-01 0.20426175E+04</pdfrwt>
<pdfrwt beam="2">  1       -2 0.29805071E+00 0.20426175E+04</pdfrwt>
<totfact> 0.17091838E+00</totfact>
</mgrwt>
</event>
<event>
 4    1  0.1295381E-008  0.1984500E+04  0.7816531E-02  0.8613902E-01
          1   -1    0    0  501    0  0.00000000000E+00  0.00000000000E+00  0.35016249662E+03  0.35016249662E+03  0.00000000000E+00 0.  1.
         -1   -1    0    0    0  501 -0.00000000000E+00 -0.00000000000E+00 -0.28117220576E+04  0.28117220576E+04  0.00000000000E+00 0. -1.
    2000013    1    1    2    0    0  0.19843937144E+03 -0.13929513462E+03 -0.98768781493E+03  0.13916926882E+04  0.95000000000E+03 0.  0.
   -2000013    1    1    2    0    0 -0.19843937144E+03  0.13929513462E+03 -0.14738717460E+04  0.17701918660E+04  0.95000000000E+03 0.  0.
<mgrwt>
<rscale>  0 0.19844995E+04</rscale>
<asrwt>0</asrwt>
<pdfrwt beam="1">  1        1 0.53871153E-01 0.19844995E+04</pdfrwt>
<pdfrwt beam="2">  1       -1 0.43257263E+00 0.19844995E+04</pdfrwt>
<totfact> 0.28425210E-01</totfact>
</mgrwt>
</event>
<event>
 4    1  0.1295381E-008  0.3181834E+04  0.7816531E-02  0.8193631E-01
          4   -1    0    0  501    0  0.00000000000E+00  0.00000000000E+00  0.23107684213E+04  0.23107684213E+04  0.00000000000E+00 0.  1.
         -4   -1    0    0    0  501 -0.00000000000E+00 -0.00000000000E+00 -0.10953140309E+04  0.10953140309E+04  0.00000000000E+00 0. -1.
    2000013    1    1    2    0    0 -0.10780612488E+04  0.14043558735E+03 -0.10763618692E+03  0.14477650912E+04  0.95000000000E+03 0.  0.
   -2000013    1    1    2    0    0  0.10780612488E+04 -0.14043558735E+03  0.13230905774E+04  0.19583173610E+04  0.95000000000E+03 0.  0.
<mgrwt>
<rscale>  0 0.31818341E+04</rscale>
<asrwt>0</asrwt>
<pdfrwt beam="1">  1        4 0.35550283E+00 0.31818341E+04</pdfrwt>
<pdfrwt beam="2">  1       -4 0.16850985E+00 0.31818341E+04</pdfrwt>
<totfact> 0.49381817E-03</totfact>
</mgrwt>
</event>
<event>
 4    1  0.1295381E-008  0.3680211E+04  0.7816531E-02  0.8072362E-01
          2   -1    0    0  501    0  0.00000000000E+00  0.00000000000E+00  0.29459180302E+04  0.29459180302E+04  0.00000000000E+00 0.  1.
         -2   -1    0    0    0  501 -0.00000000000E+00 -0.00000000000E+00 -0.11493828441E+04  0.11493828441E+04  0.00000000000E+00 0. -1.
    2000013    1    1    2    0    0 -0.54664351067E+03  0.13753414738E+04  0.29581307825E+03  0.17833644256E+04  0.95000000000E+03 0.  0.
   -2000013    1    1    2    0    0  0.54664351067E+03 -0.13753414738E+04  0.15007221079E+04  0.23119364486E+04  0.95000000000E+03 0.  0.
<mgrwt>
<rscale>  0 0.36802107E+04</rscale>
<asrwt>0</asrwt>
<pdfrwt beam="1">  1        2 0.45321816E+00 0.36802107E+04</pdfrwt>
<pdfrwt beam="2">  1       -2 0.17682813E+00 0.36802107E+04</pdfrwt>
<totfact> 0.29052040E-01</totfact>
</mgrwt>
</event>
<event>
 4    1  0.1295381E-008  0.2571602E+04  0.7816531E-02  0.8377912E-01
         -2   -1    0    0    0  501 -0.00000000000E+00  0.00000000000E+00  0.90459603874E+03  0.90459603874E+03  0.00000000000E+00 0. -1.
          2   -1    0    0  501    0  0.00000000000E+00 -0.00000000000E+00 -0.18276491356E+04  0.18276491356E+04  0.00000000000E+00 0.  1.
    2000013    1    1    2    0    0 -0.30169046167E+03  0.78499336083E+03 -0.68325542107E+03  0.14410307705E+04  0.95000000000E+03 0.  0.
   -2000013    1    1    2    0    0  0.30169046167E+03 -0.78499336083E+03 -0.23979767577E+03  0.12912144038E+04  0.95000000000E+03 0.  0.
<mgrwt>
<rscale>  0 0.25716020E+04</rscale>
<asrwt>0</asrwt>
<pdfrwt beam="2">  1        2 0.28117679E+00 0.25716020E+04</pdfrwt>
<pdfrwt beam="1">  1       -2 0.13916862E+00 0.25716020E+04</pdfrwt>
<totfact> 0.26940667E+00</totfact>
</mgrwt>
</event>
<event>
 4    1  0.1295381E-008  0.2906412E+04  0.7816531E-02  0.8270972E-01
         -2   -1    0    0    0  501 -0.00000000000E+00  0.00000000000E+00  0.55724135005E+03  0.55724135005E+03  0.00000000000E+00 0. -1.
          2   -1    0    0  501    0  0.00000000000E+00 -0.00000000000E+00 -0.37897530150E+04  0.37897530150E+04  0.00000000000E+00 0.  1.
    2000013    1    1    2    0    0  0.10551420291E+04 -0.15559331863E+03 -0.20169498187E+04  0.24714612183E+04  0.95000000000E+03 0.  0.
   -2000013    1    1    2    0    0 -0.10551420291E+04  0.15559331863E+03 -0.12155618463E+04  0.18755331468E+04  0.95000000000E+03 0.  0.
<mgrwt>
<rscale>  0 0.29064116E+04</rscale>
<asrwt>0</asrwt>
<pdfrwt beam="2">  1        2 0.58303892E+00 0.29064116E+04</pdfrwt>
<pdfrwt beam="1">  1       -2 0.85729439E-01 0.29064116E+04</pdfrwt>
<totfact> 0.50951072E-01</totfact>
</mgrwt>
</event>
<event>
 4    1  0.1295381E-008  0.2362166E+04  0.7816531E-02  0.8453805E-01
          2   -1    0    0  501    0  0.00000000000E+00  0.00000000000E+00  0.29873982059E+04  0.29873982059E+04  0.00000000000E+00 0.  1.
         -2   -1    0    0    0  501 -0.00000000000E+00 -0.00000000000E+00 -0.46694717082E+03  0.46694717082E+03  0.00000000000E+00 0. -1.
    2000013    1    1    2    0    0 -0.57911177695E+03  0.26071038080E+03  0.16967766217E+04  0.20457006762E+04  0.95000000000E+03 0.  0.
   -2000013    1    1    2    0    0  0.57911177695E+03 -0.26071038080E+03  0.82367441336E+03  0.14086447004E+04  0.95000000000E+03 0.  0.
<mgrwt>
<rscale>  0 0.23621661E+04</rscale>
<asrwt>0</asrwt>
<pdfrwt beam="1">  1        2 0.45959971E+00 0.23621661E+04</pdfrwt>
<pdfrwt beam="2">  1       -2 0.71838028E-01 0.23621661E+04</pdfrwt>
<totfact> 0.28104241E+00</totfact>
</mgrwt>
</event>
<event>
 4    1  0.1295381E-008  0.2432842E+04  0.7816531E-02  0.8427309E-01
         -2   -1    0    0    0  501 -0.00000000000E+00  0.00000000000E+00  0.10302006945E+04  0.10302006945E+04  0.00000000000E+00 0. -1.
          2   -1    0    0  501    0  0.00000000000E+00 -0.00000000000E+00 -0.14363025808E+04  0.14363025808E+04  0.00000000000E+00 0.  1.
    2000013    1    1    2    0    0  0.46377980860E+03 -0.55592862672E+03 -0.43652307174E+03  0.12716920779E+04  0.95000000000E+03 0.  0.
   -2000013    1    1    2    0    0 -0.46377980860E+03  0.55592862672E+03  0.30421185509E+02  0.11948111974E+04  0.95000000000E+03 0.  0.
<mgrwt>
<rscale>  0 0.24328419E+04</rscale>
<asrwt>0</asrwt>
<pdfrwt beam="2">  1        2 0.22096963E+00 0.24328419E+04</pdfrwt>
<pdfrwt beam="1">  1       -2 0.15849241E+00 0.24328419E+04</pdfrwt>
<totfact> 0.31982486E+00</totfact>
</mgrwt>
</event>
<event>
 4    1  0.1295381E-008  0.4201894E+04  0.7816531E-02  0.7965012E-01
          2   -1    0    0  501    0  0.00000000000E+00  0.00000000000E+00  0.31225321296E+04  0.31225321296E+04  0.00000000000E+00 0.  1.
         -2   -1    0    0    0  501 -0.00000000000E+00 -0.00000000000E+00 -0.14135896838E+04  0.14135896838E+04  0.00000000000E+00 0. -1.
    2000013    1    1    2    0    0 -0.32265389287E+03  0.10394258822E+04 -0.79230554301E+03  0.16476528071E+04  0.95000000000E+03 0.  0.
   -2000013    1    1    2    0    0  0.32265389287E+03 -0.10394258822E+04  0.25012479889E+04  0.28884690064E+04  0.95000000000E+03 0.  0.
<mgrwt>
<rscale>  0 0.42018944E+04</rscale>
<asrwt>0</asrwt>
<pdfrwt beam="1">  1        2 0.48038956E+00 0.42018944E+04</pdfrwt>
<pdfrwt beam="2">  1       -2 0.21747534E+00 0.42018944E+04</pdfrwt>
<totfact> 0.11576762E-01</totfact>
</mgrwt>
</event>
<event>
 4    1  0.1295381E-008  0.2813512E+04  0.7816531E-02  0.8299086E-01
          1   -1    0    0  501    0  0.00000000000E+00  0.00000000000E+00  0.10819567300E+04  0.10819567300E+04  0.00000000000E+00 0.  1.
         -1   -1    0    0    0  501 -0.00000000000E+00 -0.00000000000E+00 -0.18290581463E+04  0.18290581463E+04  0.00000000000E+00 0. -1.
    2000013    1    1    2    0    0 -0.73914808645E+03 -0.22155634751E+03  0.34405174162E+03  0.12713373705E+04  0.95000000000E+03 0.  0.
   -2000013    1    1    2    0    0  0.73914808645E+03  0.22155634751E+03 -0.10911531580E+04  0.16396775058E+04  0.95000000000E+03 0.  0.
<mgrwt>
<rscale>  0 0.28135115E+04</rscale>
<asrwt>0</asrwt>
<pdfrwt beam="1">  1        1 0.16645488E+00 0.28135115E+04</pdfrwt>
<pdfrwt beam="2">  1       -1 0.28139356E+00 0.28135115E+04</pdfrwt>
<totfact> 0.49315047E-01</totfact>
</mgrwt>
</event>
<event>
 4    1  0.1295381E-008  0.3474817E+04  0.7816531E-02  0.8119784E-01
          2   -1    0    0  501    0  0.00000000000E+00  0.00000000000E+00  0.30047586279E+04  0.30047586279E+04  0.00000000000E+00 0.  1.
         -2   -1    0    0    0  501 -0.00000000000E+00 -0.00000000000E+00 -0.10046024868E+04  0.10046024868E+04  0.00000000000E+00 0. -1.
    2000013    1    1    2    0    0 -0.92680475341E+03 -0.51583484643E+03 -0.14857223227E+03  0.14316516154E+04  0.95000000000E+03 0.  0.
   -2000013    1    1    2    0    0  0.92680475341E+03  0.51583484643E+03  0.21487283734E+04  0.25777094992E+04  0.95000000000E+03 0.  0.
<mgrwt>
<rscale>  0 0.34748168E+04</rscale>
<asrwt>0</asrwt>
<pdfrwt beam="1">  1        2 0.46227055E+00 0.34748168E+04</pdfrwt>
<pdfrwt beam="2">  1       -2 0.15455423E+00 0.34748168E+04</pdfrwt>
<totfact> 0.39362458E-01</totfact>
</mgrwt>
</event>
<event>
 4    1  0.1295381E-008  0.2217268E+04  0.7816531E-02  0.8511275E-01
         -2   -1    0    0    0  501 -0.00000000000E+00  0.00000000000E+00  0.58803584503E+03  0.58803584503E+03  0.00000000000E+00 0. -1.
          2   -1    0    0  501    0  0.00000000000E+00 -0.00000000000E+00 -0.20901262416E+04  0.20901262416E+04  0.00000000000E+00 0.  1.
    2000013    1    1    2    0    0  0.31710943560E+03  0.32295073017E+03 -0.11724390798E+04  0.15754265975E+04  0.95000000000E+03 0.  0.
   -2000013    1    1    2    0    0 -0.31710943560E+03 -0.32295073017E+03 -0.32965131673E+03  0.11027354891E+04  0.95000000000E+03 0.  0.
<mgrwt>
<rscale>  0 0.22172678E+04</rscale>
<asrwt>0</asrwt>
<pdfrwt beam="2">  1        2 0.32155788E+00 0.22172678E+04</pdfrwt>
<pdfrwt beam="1">  1       -2 0.90467054E-01 0.22172678E+04</pdfrwt>
<totfact> 0.56714412E+00</totfact>
</mgrwt>
</event>
<event>
 4    1  0.1295381E-008  0.2512304E+04  0.7816531E-02  0.8398615E-01
          2   -1    0    0  501    0  0.00000000000E+00  0.00000000000E+00  0.13120323329E+04  0.13120323329E+04  0.00000000000E+00 0.  1.
         -2   -1    0    0    0  501 -0.00000000000E+00 -0.00000000000E+00 -0.12026514038E+04  0.12026514038E+04  0.00000000000E+00 0. -1.
    2000013    1    1    2    0    0  0.47808891120E+03  0.59088543711E+03  0.36756124072E+03  0.12709507750E+04  0.95000000000E+03 0.  0.
   -2000013    1    1    2    0    0 -0.47808891120E+03 -0.59088543711E+03 -0.25818031166E+03  0.12437329617E+04  0.95000000000E+03 0.  0.
<mgrwt>
<rscale>  0 0.25123037E+04</rscale>
<asrwt>0</asrwt>
<pdfrwt beam="1">  1        2 0.20185113E+00 0.25123037E+04</pdfrwt>
<pdfrwt beam="2">  1       -2 0.18502329E+00 0.25123037E+04</pdfrwt>
<totfact> 0.24276070E+00</totfact>
</mgrwt>
</event>
<event>
 4    1  0.1295381E-008  0.2443142E+04  0.7816531E-02  0.8423526E-01
          2   -1    0    0  501    0  0.00000000000E+00  0.00000000000E+00  0.13681506480E+04  0.13681506480E+04  0.00000000000E+00 0.  1.
         -2   -1    0    0    0  501 -0.00000000000E+00 -0.00000000000E+00 -0.10906950920E+04  0.10906950920E+04  0.00000000000E+00 0. -1.
    2000013    1    1    2    0    0 -0.31279968035E+03 -0.69781744070E+03  0.20948170557E+03  0.12374067260E+04  0.95000000000E+03 0.  0.
   -2000013    1    1    2    0    0  0.31279968035E+03  0.69781744070E+03  0.67973850412E+02  0.12214390140E+04  0.95000000000E+03 0.  0.
<mgrwt>
<rscale>  0 0.24431416E+04</rscale>
<asrwt>0</asrwt>
<pdfrwt beam="1">  1        2 0.21048472E+00 0.24431416E+04</pdfrwt>
<pdfrwt beam="2">  1       -2 0.16779924E+00 0.24431416E+04</pdfrwt>
<totfact> 0.29892307E+00</totfact>
</mgrwt>
</event>
<event>
 4    1  0.1295381E-008  0.2764573E+04  0.7816531E-02  0.8314352E-01
          2   -1    0    0  501    0  0.00000000000E+00  0.00000000000E+00  0.10390805723E+04  0.10390805723E+04  0.00000000000E+00 0.  1.
         -2   -1    0    0    0  501 -0.00000000000E+00 -0.00000000000E+00 -0.18388522633E+04  0.18388522633E+04  0.00000000000E+00 0. -1.
    2000013    1    1    2    0    0  0.75442036472E+03  0.33630131817E+03 -0.99423198185E+03  0.16041340022E+04  0.95000000000E+03 0.  0.
   -2000013    1    1    2    0    0 -0.75442036472E+03 -0.33630131817E+03  0.19446029091E+03  0.12737988334E+04  0.95000000000E+03 0.  0.
<mgrwt>
<rscale>  0 0.27645728E+04</rscale>
<asrwt>0</asrwt>
<pdfrwt beam="1">  1        2 0.15985855E+00 0.27645728E+04</pdfrwt>
<pdfrwt beam="2">  1       -2 0.28290035E+00 0.27645728E+04</pdfrwt>
<totfact> 0.83912953E-01</totfact>
</mgrwt>
</event>
<event>
 4    1  0.1295381E-008  0.2176445E+04  0.7816531E-02  0.8528297E-01
         -1   -1    0    0    0  501 -0.00000000000E+00  0.00000000000E+00  0.14561235976E+04  0.14561235976E+04  0.00000000000E+00 0. -1.
          1   -1    0    0  501    0  0.00000000000E+00 -0.00000000000E+00 -0.81327457302E+03  0.81327457302E+03  0.00000000000E+00 0.  1.
    2000013    1    1    2    0    0  0.22130331730E+02  0.21666564913E+03 -0.18328800232E+03  0.99172992639E+03  0.95000000000E+03 0.  0.
   -2000013    1    1    2    0    0 -0.22130331730E+02 -0.21666564913E+03  0.82613702687E+03  0.12776682442E+04  0.95000000000E+03 0.  0.
<mgrwt>
<rscale>  0 0.21764451E+04</rscale>
<asrwt>0</asrwt>
<pdfrwt beam="2">  1        1 0.12511917E+00 0.21764451E+04</pdfrwt>
<pdfrwt beam="1">  1       -1 0.22401901E+00 0.21764451E+04</pdfrwt>
<totfact> 0.20345216E+00</totfact>
</mgrwt>
</event>
<event>
 4    1  0.1295381E-008  0.2838585E+04  0.7816531E-02  0.8291389E-01
          2   -1    0    0  501    0  0.00000000000E+00  0.00000000000E+00  0.22276222578E+04  0.22276222578E+04  0.00000000000E+00 0.  1.
         -2   -1    0    0    0  501 -0.00000000000E+00 -0.00000000000E+00 -0.90427834198E+03  0.90427834198E+03  0.00000000000E+00 0. -1.
    2000013    1    1    2    0    0 -0.22515436575E+03  0.81100624973E+03 -0.39152152155E+02  0.12698261757E+04  0.95000000000E+03 0.  0.
   -2000013    1    1    2    0    0  0.22515436575E+03 -0.81100624973E+03  0.13624960680E+04  0.18620744241E+04  0.95000000000E+03 0.  0.
<mgrwt>
<rscale>  0 0.28385845E+04</rscale>
<asrwt>0</asrwt>
<pdfrwt beam="1">  1        2 0.34271112E+00 0.28385845E+04</pdfrwt>
<pdfrwt beam="2">  1       -2 0.13911975E+00 0.28385845E+04</pdfrwt>
<totfact> 0.15776576E+00</totfact>
</mgrwt>
</event>
<event>
 4    1  0.1295381E-008  0.2143598E+04  0.7816531E-02  0.8542277E-01
         -2   -1    0    0    0  501 -0.00000000000E+00  0.00000000000E+00  0.73829168800E+03  0.73829168800E+03  0.00000000000E+00 0. -1.
          2   -1    0    0  501    0  0.00000000000E+00 -0.00000000000E+00 -0.15559617127E+04  0.15559617127E+04  0.00000000000E+00 0.  1.
    2000013    1    1    2    0    0 -0.19871201574E+03  0.33303771403E+03 -0.74019558734E+03  0.12652233367E+04  0.95000000000E+03 0.  0.
   -2000013    1    1    2    0    0  0.19871201574E+03 -0.33303771403E+03 -0.77474437345E+02  0.10290300640E+04  0.95000000000E+03 0.  0.
<mgrwt>
<rscale>  0 0.21435985E+04</rscale>
<asrwt>0</asrwt>
<pdfrwt beam="2">  1        2 0.23937872E+00 0.21435985E+04</pdfrwt>
<pdfrwt beam="1">  1       -2 0.11358334E+00 0.21435985E+04</pdfrwt>
<totfact> 0.65890080E+00</totfact>
</mgrwt>
</event>
<event>
 4    1  0.1295381E-008  0.2766135E+04  0.7816531E-02  0.8313860E-01
          2   -1    0    0  501    0  0.00000000000E+00  0.00000000000E+00  0.20636188534E+04  0.20636188534E+04  0.00000000000E+00 0.  1.
         -2   -1    0    0    0  501 -0.00000000000E+00 -0.00000000000E+00 -0.92695212250E+03  0.92695212250E+03  0.00000000000E+00 0. -1.
    2000013    1    1    2    0    0  0.42662566471E+02 -0.10016649363E+04  0.49019821811E+03  0.14655876064E+04  0.95000000000E+03 0.  0.
   -2000013    1    1    2    0    0 -0.42662566471E+02  0.10016649363E+04  0.64646851279E+03  0.15249833695E+04  0.95000000000E+03 0.  0.
<mgrwt>
<rscale>  0 0.27661351E+04</rscale>
<asrwt>0</asrwt>
<pdfrwt beam="1">  1        2 0.31747982E+00 0.27661351E+04</pdfrwt>
<pdfrwt beam="2">  1       -2 0.14260802E+00 0.27661351E+04</pdfrwt>
<totfact> 0.18390484E+00</totfact>
</mgrwt>
</event>
<event>
 4    1  0.1295381E-008  0.2830638E+04  0.7816531E-02  0.8293819E-01
         -1   -1    0    0    0  501 -0.00000000000E+00  0.00000000000E+00  0.10953258867E+04  0.10953258867E+04  0.00000000000E+00 0. -1.
          1   -1    0    0  501    0  0.00000000000E+00 -0.00000000000E+00 -0.18287957827E+04  0.18287957827E+04  0.00000000000E+00 0.  1.
    2000013    1    1    2    0    0 -0.14191332634E+03  0.45635398131E+03 -0.13315108035E+04  0.17040596728E+04  0.95000000000E+03 0.  0.
   -2000013    1    1    2    0    0  0.14191332634E+03 -0.45635398131E+03  0.59804090753E+03  0.12200619966E+04  0.95000000000E+03 0.  0.
<mgrwt>
<rscale>  0 0.28306376E+04</rscale>
<asrwt>0</asrwt>
<pdfrwt beam="2">  1        1 0.28135320E+00 0.28306376E+04</pdfrwt>
<pdfrwt beam="1">  1       -1 0.16851167E+00 0.28306376E+04</pdfrwt>
<totfact> 0.84862579E-01</totfact>
</mgrwt>
</event>
<event>
 4    1  0.1295381E-008  0.2366056E+04  0.7816531E-02  0.8452322E-01
         -2   -1    0    0    0  501 -0.00000000000E+00  0.00000000000E+00  0.45622789661E+03  0.45622789661E+03  0.00000000000E+00 0. -1.
          2   -1    0    0  501    0  0.00000000000E+00 -0.00000000000E+00 -0.30676680101E+04  0.30676680101E+04  0.00000000000E+00 0.  1.
    2000013    1    1    2    0    0  0.60155450677E+03  0.12949295929E+03 -0.79320156494E+03  0.13821378273E+04  0.95000000000E+03 0.  0.
   -2000013    1    1    2    0    0 -0.60155450677E+03 -0.12949295929E+03 -0.18182385485E+04  0.21417580793E+04  0.95000000000E+03 0.  0.
<mgrwt>
<rscale>  0 0.23660564E+04</rscale>
<asrwt>0</asrwt>
<pdfrwt beam="2">  1        2 0.47194894E+00 0.23660564E+04</pdfrwt>
<pdfrwt beam="1">  1       -2 0.70188905E-01 0.23660564E+04</pdfrwt>
<totfact> 0.26315247E+00</totfact>
</mgrwt>
</event>
<event>
 4    1  0.1295381E-008  0.2592161E+04  0.7816531E-02  0.8370869E-01
         -2   -1    0    0    0  501 -0.00000000000E+00  0.00000000000E+00  0.10415306630E+04  0.10415306630E+04  0.00000000000E+00 0. -1.
          2   -1    0    0  501    0  0.00000000000E+00 -0.00000000000E+00 -0.16128416837E+04  0.16128416837E+04  0.00000000000E+00 0.  1.
    2000013    1    1    2    0    0 -0.30361620565E+03 -0.80921283562E+03 -0.10736227889E+03  0.12888114186E+04  0.95000000000E+03 0.  0.
   -2000013    1    1    2    0    0  0.30361620565E+03  0.80921283562E+03 -0.46394874182E+03  0.13655609282E+04  0.95000000000E+03 0.  0.
<mgrwt>
<rscale>  0 0.25921605E+04</rscale>
<asrwt>0</asrwt>
<pdfrwt beam="2">  1        2 0.24812949E+00 0.25921605E+04</pdfrwt>
<pdfrwt beam="1">  1       -2 0.16023549E+00 0.25921605E+04</pdfrwt>
<totfact> 0.24362170E+00</totfact>
</mgrwt>
</event>
<event>
 4    1  0.1295381E-008  0.3380927E+04  0.7816531E-02  0.8142603E-01
          2   -1    0    0  501    0  0.00000000000E+00  0.00000000000E+00  0.38392004605E+04  0.38392004605E+04  0.00000000000E+00 0.  1.
         -2   -1    0    0    0  501 -0.00000000000E+00 -0.00000000000E+00 -0.74433892127E+03  0.74433892127E+03  0.00000000000E+00 0. -1.
    2000013    1    1    2    0    0  0.96884199386E+03  0.89417105240E+03  0.21789181936E+04  0.27181576802E+04  0.95000000000E+03 0.  0.
   -2000013    1    1    2    0    0 -0.96884199386E+03 -0.89417105240E+03  0.91594334555E+03  0.18653817015E+04  0.95000000000E+03 0.  0.
<mgrwt>
<rscale>  0 0.33809267E+04</rscale>
<asrwt>0</asrwt>
<pdfrwt beam="1">  1        2 0.59064621E+00 0.33809267E+04</pdfrwt>
<pdfrwt beam="2">  1       -2 0.11451368E+00 0.33809267E+04</pdfrwt>
<totfact> 0.22610398E-01</totfact>
</mgrwt>
</event>
<event>
 4    1  0.1295381E-008  0.2597182E+04  0.7816531E-02  0.8369159E-01
         -2   -1    0    0    0  501 -0.00000000000E+00  0.00000000000E+00  0.93121509345E+03  0.93121509345E+03  0.00000000000E+00 0. -1.
          2   -1    0    0  501    0  0.00000000000E+00 -0.00000000000E+00 -0.18109015695E+04  0.18109015695E+04  0.00000000000E+00 0.  1.
    2000013    1    1    2    0    0 -0.84679541551E+03 -0.34389554856E+01 -0.71265088594E+03  0.14585765621E+04  0.95000000000E+03 0.  0.
   -2000013    1    1    2    0    0  0.84679541551E+03  0.34389554856E+01 -0.16703559007E+03  0.12835401009E+04  0.95000000000E+03 0.  0.
<mgrwt>
<rscale>  0 0.25971822E+04</rscale>
<asrwt>0</asrwt>
<pdfrwt beam="2">  1        2 0.27860024E+00 0.25971822E+04</pdfrwt>
<pdfrwt beam="1">  1       -2 0.14326386E+00 0.25971822E+04</pdfrwt>
<totfact> 0.25465400E+00</totfact>
</mgrwt>
</event>
<event>
 4    1  0.1295381E-008  0.3460229E+04  0.7816531E-02  0.8123280E-01
          2   -1    0    0  501    0  0.00000000000E+00  0.00000000000E+00  0.19037693578E+04  0.19037693578E+04  0.00000000000E+00 0.  1.
         -2   -1    0    0    0  501 -0.00000000000E+00 -0.00000000000E+00 -0.15723001986E+04  0.15723001986E+04  0.00000000000E+00 0. -1.
    2000013    1    1    2    0    0 -0.13216212254E+04 -0.55996774086E+03 -0.98522951568E+01  0.17212912600E+04  0.95000000000E+03 0.  0.
   -2000013    1    1    2    0    0  0.13216212254E+04  0.55996774086E+03  0.34132145434E+03  0.17547782964E+04  0.95000000000E+03 0.  0.
<mgrwt>
<rscale>  0 0.34602294E+04</rscale>
<asrwt>0</asrwt>
<pdfrwt beam="1">  1        2 0.29288759E+00 0.34602294E+04</pdfrwt>
<pdfrwt beam="2">  1       -2 0.24189234E+00 0.34602294E+04</pdfrwt>
<totfact> 0.44922320E-01</totfact>
</mgrwt>
</event>
<event>
 4    1  0.1295381E-008  0.2528056E+04  0.7816531E-02  0.8393058E-01
          2   -1    0    0  501    0  0.00000000000E+00  0.00000000000E+00  0.14168605351E+04  0.14168605351E+04  0.00000000000E+00 0.  1.
         -2   -1    0    0    0  501 -0.00000000000E+00 -0.00000000000E+00 -0.11276807255E+04  0.11276807255E+04  0.00000000000E+00 0. -1.
    2000013    1    1    2    0    0  0.40180486495E+03  0.17756832024E+03 -0.56875498953E+03  0.11912010309E+04  0.95000000000E+03 0.  0.
   -2000013    1    1    2    0    0 -0.40180486495E+03 -0.17756832024E+03  0.85793479917E+03  0.13533402298E+04  0.95000000000E+03 0.  0.
<mgrwt>
<rscale>  0 0.25280556E+04</rscale>
<asrwt>0</asrwt>
<pdfrwt beam="1">  1        2 0.21797854E+00 0.25280556E+04</pdfrwt>
<pdfrwt beam="2">  1       -2 0.17348934E+00 0.25280556E+04</pdfrwt>
<totfact> 0.25360179E+00</totfact>
</mgrwt>
</event>
<event>
 4    1  0.1295381E-008  0.2335709E+04  0.7816531E-02  0.8463973E-01
         -2   -1    0    0    0  501 -0.00000000000E+00  0.00000000000E+00  0.13142649630E+04  0.13142649630E+04  0.00000000000E+00 0. -1.
          2   -1    0    0  501    0  0.00000000000E+00 -0.00000000000E+00 -0.10377539962E+04  0.10377539962E+04  0.00000000000E+00 0.  1.
    2000013    1    1    2    0    0 -0.12698451245E+03  0.59944883951E+03  0.43342304455E+03  0.12107103341E+04  0.95000000000E+03 0.  0.
   -2000013    1    1    2    0    0  0.12698451245E+03 -0.59944883951E+03 -0.15691207775E+03  0.11413086251E+04  0.95000000000E+03 0.  0.
<mgrwt>
<rscale>  0 0.23357086E+04</rscale>
<asrwt>0</asrwt>
<pdfrwt beam="2">  1        2 0.15965446E+00 0.23357086E+04</pdfrwt>
<pdfrwt beam="1">  1       -2 0.20219461E+00 0.23357086E+04</pdfrwt>
<totfact> 0.27710489E+00</totfact>
</mgrwt>
</event>
<event>
 4    1  0.1295381E-008  0.2243750E+04  0.7816531E-02  0.8500436E-01
          2   -1    0    0  501    0  0.00000000000E+00  0.00000000000E+00  0.31300302172E+04  0.31300302172E+04  0.00000000000E+00 0.  1.
         -2   -1    0    0    0  501 -0.00000000000E+00 -0.00000000000E+00 -0.40210584971E+03  0.40210584971E+03  0.00000000000E+00 0. -1.
    2000013    1    1    2    0    0  0.10490720078E+03 -0.38281318202E+03  0.66250670813E+03  0.12243229114E+04  0.95000000000E+03 0.  0.
   -2000013    1    1    2    0    0 -0.10490720078E+03  0.38281318202E+03  0.20654176594E+04  0.23078131555E+04  0.95000000000E+03 0.  0.
<mgrwt>
<rscale>  0 0.22437500E+04</rscale>
<asrwt>0</asrwt>
<pdfrwt beam="1">  1        2 0.48154309E+00 0.22437500E+04</pdfrwt>
<pdfrwt beam="2">  1       -2 0.61862441E-01 0.22437500E+04</pdfrwt>
<totfact> 0.31868888E+00</totfact>
</mgrwt>
</event>
<event>
 4    1  0.1295381E-008  0.2584043E+04  0.7816531E-02  0.8373642E-01
         -2   -1    0    0    0  501 -0.00000000000E+00  0.00000000000E+00  0.57976855832E+03  0.57976855832E+03  0.00000000000E+00 0. -1.
          2   -1    0    0  501    0  0.00000000000E+00 -0.00000000000E+00 -0.28792859263E+04  0.28792859263E+04  0.00000000000E+00 0.  1.
    2000013    1    1    2    0    0  0.85892583720E+03 -0.31465191253E+02 -0.92546154298E+03  0.15804185267E+04  0.95000000000E+03 0.  0.
   -2000013    1    1    2    0    0 -0.85892583720E+03  0.31465191253E+02 -0.13740558250E+04  0.18786359579E+04  0.95000000000E+03 0.  0.
<mgrwt>
<rscale>  0 0.25840429E+04</rscale>
<asrwt>0</asrwt>
<pdfrwt beam="2">  1        2 0.44296706E+00 0.25840429E+04</pdfrwt>
<pdfrwt beam="1">  1       -2 0.89195164E-01 0.25840429E+04</pdfrwt>
<totfact> 0.19768227E+00</totfact>
</mgrwt>
</event>
<event>
 4    1  0.1295381E-008  0.2711396E+04  0.7816531E-02  0.8331317E-01
          2   -1    0    0  501    0  0.00000000000E+00  0.00000000000E+00  0.17739020156E+04  0.17739020156E+04  0.00000000000E+00 0.  1.
         -2   -1    0    0    0  501 -0.00000000000E+00 -0.00000000000E+00 -0.10360872472E+04  0.10360872472E+04  0.00000000000E+00 0. -1.
    2000013    1    1    2    0    0 -0.69265727502E+03  0.99884476546E+02 -0.32294996547E+03  0.12233346596E+04  0.95000000000E+03 0.  0.
   -2000013    1    1    2    0    0  0.69265727502E+03 -0.99884476546E+02  0.10607647339E+04  0.15866546032E+04  0.95000000000E+03 0.  0.
<mgrwt>
<rscale>  0 0.27113961E+04</rscale>
<asrwt>0</asrwt>
<pdfrwt beam="1">  1        2 0.27290800E+00 0.27113961E+04</pdfrwt>
<pdfrwt beam="2">  1       -2 0.15939804E+00 0.27113961E+04</pdfrwt>
<totfact> 0.19903274E+00</totfact>
</mgrwt>
</event>
<event>
 4    1  0.1295381E-008  0.3301728E+04  0.7816531E-02  0.8162456E-01
          2   -1    0    0  501    0  0.00000000000E+00  0.00000000000E+00  0.30495078536E+04  0.30495078536E+04  0.00000000000E+00 0.  1.
         -2   -1    0    0    0  501 -0.00000000000E+00 -0.00000000000E+00 -0.89370200455E+03  0.89370200455E+03  0.00000000000E+00 0. -1.
    2000013    1    1    2    0    0 -0.12757003660E+04 -0.35590111966E+03  0.76470304579E+03  0.18003743441E+04  0.95000000000E+03 0.  0.
   -2000013    1    1    2    0    0  0.12757003660E+04  0.35590111966E+03  0.13911028032E+04  0.21428355140E+04  0.95000000000E+03 0.  0.
<mgrwt>
<rscale>  0 0.33017276E+04</rscale>
<asrwt>0</asrwt>
<pdfrwt beam="1">  1        2 0.46915505E+00 0.33017276E+04</pdfrwt>
<pdfrwt beam="2">  1       -2 0.13749262E+00 0.33017276E+04</pdfrwt>
<totfact> 0.50894591E-01</totfact>
</mgrwt>
</event>
<event>
 4    1  0.1295381E-008  0.2076623E+04  0.7816531E-02  0.8571612E-01
         -1   -1    0    0    0  501 -0.00000000000E+00  0.00000000000E+00  0.35381943347E+03  0.35381943347E+03  0.00000000000E+00 0. -1.
          1   -1    0    0  501    0  0.00000000000E+00 -0.00000000000E+00 -0.30470082848E+04  0.30470082848E+04  0.00000000000E+00 0.  1.
    2000013    1    1    2    0    0 -0.30227964345E+03  0.28935186387E+03 -0.13829662788E+04  0.17292175145E+04  0.95000000000E+03 0.  0.
   -2000013    1    1    2    0    0  0.30227964345E+03 -0.28935186387E+03 -0.13102225725E+04  0.16716102038E+04  0.95000000000E+03 0.  0.
<mgrwt>
<rscale>  0 0.20766230E+04</rscale>
<asrwt>0</asrwt>
<pdfrwt beam="2">  1        1 0.46877050E+00 0.20766230E+04</pdfrwt>
<pdfrwt beam="1">  1       -1 0.54433759E-01 0.20766230E+04</pdfrwt>
<totfact> 0.17375120E+00</totfact>
</mgrwt>
</event>
<event>
 4    1  0.1295381E-008  0.2750805E+04  0.7816531E-02  0.8318706E-01
          2   -1    0    0  501    0  0.00000000000E+00  0.00000000000E+00  0.28940427966E+04  0.28940427966E+04  0.00000000000E+00 0.  1.
         -2   -1    0    0    0  501 -0.00000000000E+00 -0.00000000000E+00 -0.65366415657E+03  0.65366415657E+03  0.00000000000E+00 0. -1.
    2000013    1    1    2    0    0  0.59175661422E+03 -0.53544188834E+03  0.35462781743E+03  0.12904010211E+04  0.95000000000E+03 0.  0.
   -2000013    1    1    2    0    0 -0.59175661422E+03  0.53544188834E+03  0.18857508226E+04  0.22573059321E+04  0.95000000000E+03 0.  0.
<mgrwt>
<rscale>  0 0.27508050E+04</rscale>
<asrwt>0</asrwt>
<pdfrwt beam="1">  1        2 0.44523735E+00 0.27508050E+04</pdfrwt>
<pdfrwt beam="2">  1       -2 0.10056372E+00 0.27508050E+04</pdfrwt>
<totfact> 0.14422220E+00</totfact>
</mgrwt>
</event>
<event>
 4    1  0.1295381E-008  0.3191494E+04  0.7816531E-02  0.8191067E-01
         -1   -1    0    0    0  501 -0.00000000000E+00  0.00000000000E+00  0.10941351054E+04  0.10941351054E+04  0.00000000000E+00 0. -1.
          1   -1    0    0  501    0  0.00000000000E+00 -0.00000000000E+00 -0.23273248677E+04  0.23273248677E+04  0.00000000000E+00 0.  1.
    2000013    1    1    2    0    0 -0.20961209860E+03  0.10675324231E+04  0.11078161708E+03  0.14485631753E+04  0.95000000000E+03 0.  0.
   -2000013    1    1    2    0    0  0.20961209860E+03 -0.10675324231E+04 -0.13439713794E+04  0.19728967978E+04  0.95000000000E+03 0.  0.
<mgrwt>
<rscale>  0 0.31914936E+04</rscale>
<asrwt>0</asrwt>
<pdfrwt beam="2">  1        1 0.35804997E+00 0.31914936E+04</pdfrwt>
<pdfrwt beam="1">  1       -1 0.16832848E+00 0.31914936E+04</pdfrwt>
<totfact> 0.37774883E-01</totfact>
</mgrwt>
</event>
<event>
 4    1  0.1295381E-008  0.2393389E+04  0.7816531E-02  0.8441983E-01
         -2   -1    0    0    0  501 -0.00000000000E+00  0.00000000000E+00  0.76156742515E+03  0.76156742515E+03  0.00000000000E+00 0.  1.
          2   -1    0    0  501    0  0.00000000000E+00 -0.00000000000E+00 -0.18804338814E+04  0.18804338814E+04  0.00000000000E+00 0. -1.
    2000013    1    1    2    0    0  0.26133555500E+03 -0.65904548835E+03 -0.37824987127E+03  0.12442709484E+04  0.95000000000E+03 0.  0.
   -2000013    1    1    2    0    0 -0.26133555500E+03  0.65904548835E+03 -0.74061658496E+03  0.13977303581E+04  0.95000000000E+03 0.  0.
<mgrwt>
<rscale>  0 0.23933886E+04</rscale>
<asrwt>0</asrwt>
<pdfrwt beam="2">  1        2 0.28929752E+00 0.23933886E+04</pdfrwt>
<pdfrwt beam="1">  1       -2 0.11716422E+00 0.23933886E+04</pdfrwt>
<totfact> 0.39463451E+00</totfact>
</mgrwt>
</event>
<event>
 4    1  0.1295381E-008  0.2215074E+04  0.7816531E-02  0.8512180E-01
          2   -1    0    0  501    0  0.00000000000E+00  0.00000000000E+00  0.65820979158E+03  0.65820979158E+03  0.00000000000E+00 0.  1.
         -2   -1    0    0    0  501 -0.00000000000E+00 -0.00000000000E+00 -0.18635970554E+04  0.18635970554E+04  0.00000000000E+00 0. -1.
    2000013    1    1    2    0    0 -0.24941490689E+03 -0.45303195536E+03 -0.87376574838E+03  0.13904719815E+04  0.95000000000E+03 0.  0.
   -2000013    1    1    2    0    0  0.24941490689E+03  0.45303195536E+03 -0.33162151549E+03  0.11313348655E+04  0.95000000000E+03 0.  0.
<mgrwt>
<rscale>  0 0.22150737E+04</rscale>
<asrwt>0</asrwt>
<pdfrwt beam="1">  1        2 0.10126304E+00 0.22150737E+04</pdfrwt>
<pdfrwt beam="2">  1       -2 0.28670724E+00 0.22150737E+04</pdfrwt>
<totfact> 0.15492154E+00</totfact>
</mgrwt>
</event>
<event>
 4    1  0.1295381E-008  0.1994152E+04  0.7816531E-02  0.8609360E-01
          2   -1    0    0  501    0  0.00000000000E+00  0.00000000000E+00  0.12686564131E+04  0.12686564131E+04  0.00000000000E+00 0.  1.
         -2   -1    0    0    0  501 -0.00000000000E+00 -0.00000000000E+00 -0.78363237295E+03  0.78363237295E+03  0.00000000000E+00 0. -1.
    2000013    1    1    2    0    0 -0.29015833296E+03  0.72691976705E+01  0.15388797741E+03  0.10051995867E+04  0.95000000000E+03 0.  0.
   -2000013    1    1    2    0    0  0.29015833296E+03 -0.72691976705E+01  0.33113606274E+03  0.10470891994E+04  0.95000000000E+03 0.  0.
<mgrwt>
<rscale>  0 0.19941517E+04</rscale>
<asrwt>0</asrwt>
<pdfrwt beam="1">  1        2 0.19517791E+00 0.19941517E+04</pdfrwt>
<pdfrwt beam="2">  1       -2 0.12055883E+00 0.19941517E+04</pdfrwt>
<totfact> 0.84153840E+00</totfact>
</mgrwt>
</event>
<event>
 4    1  0.1295381E-008  0.2904887E+04  0.7816531E-02  0.8271425E-01
         -2   -1    0    0    0  501 -0.00000000000E+00  0.00000000000E+00  0.14374706651E+04  0.14374706651E+04  0.00000000000E+00 0. -1.
          2   -1    0    0  501    0  0.00000000000E+00 -0.00000000000E+00 -0.14675722737E+04  0.14675722737E+04  0.00000000000E+00 0.  1.
    2000013    1    1    2    0    0  0.21877525726E+03 -0.10744549006E+04  0.54062570598E+02  0.14518053272E+04  0.95000000000E+03 0.  0.
   -2000013    1    1    2    0    0 -0.21877525726E+03  0.10744549006E+04 -0.84164179182E+02  0.14532376115E+04  0.95000000000E+03 0.  0.
<mgrwt>
<rscale>  0 0.29048870E+04</rscale>
<asrwt>0</asrwt>
<pdfrwt beam="2">  1        2 0.22578035E+00 0.29048870E+04</pdfrwt>
<pdfrwt beam="1">  1       -2 0.22114933E+00 0.29048870E+04</pdfrwt>
<totfact> 0.11104196E+00</totfact>
</mgrwt>
</event>
<event>
 4    1  0.1295381E-008  0.2351251E+04  0.7816531E-02  0.8457983E-01
          1   -1    0    0  501    0  0.00000000000E+00  0.00000000000E+00  0.19857379311E+04  0.19857379311E+04  0.00000000000E+00 0.  1.
         -1   -1    0    0    0  501 -0.00000000000E+00 -0.00000000000E+00 -0.69601077784E+03  0.69601077784E+03  0.00000000000E+00 0. -1.
    2000013    1    1    2    0    0  0.42351727491E+03  0.54387711250E+03  0.72074148343E+03  0.13773661393E+04  0.95000000000E+03 0.  0.
   -2000013    1    1    2    0    0 -0.42351727491E+03 -0.54387711250E+03  0.56898566983E+03  0.13043825697E+04  0.95000000000E+03 0.  0.
<mgrwt>
<rscale>  0 0.23512507E+04</rscale>
<asrwt>0</asrwt>
<pdfrwt beam="1">  1        1 0.30549814E+00 0.23512507E+04</pdfrwt>
<pdfrwt beam="2">  1       -1 0.10707858E+00 0.23512507E+04</pdfrwt>
<totfact> 0.22294648E+00</totfact>
</mgrwt>
</event>
<event>
 4    1  0.1295381E-008  0.2310344E+04  0.7816531E-02  0.8473854E-01
         -2   -1    0    0    0  501 -0.00000000000E+00  0.00000000000E+00  0.63560174375E+03  0.63560174375E+03  0.00000000000E+00 0. -1.
          2   -1    0    0  501    0  0.00000000000E+00 -0.00000000000E+00 -0.20994626005E+04  0.20994626005E+04  0.00000000000E+00 0.  1.
    2000013    1    1    2    0    0  0.51581008854E+03  0.30205842565E+03 -0.40854044404E+03  0.11944474180E+04  0.95000000000E+03 0.  0.
   -2000013    1    1    2    0    0 -0.51581008854E+03 -0.30205842565E+03 -0.10553204127E+04  0.15406169262E+04  0.95000000000E+03 0.  0.
<mgrwt>
<rscale>  0 0.23103438E+04</rscale>
<asrwt>0</asrwt>
<pdfrwt beam="2">  1        2 0.32299424E+00 0.23103438E+04</pdfrwt>
<pdfrwt beam="1">  1       -2 0.97784885E-01 0.23103438E+04</pdfrwt>
<totfact> 0.46382008E+00</totfact>
</mgrwt>
</event>
<event>
 4    1  0.1295381E-008  0.2260065E+04  0.7816531E-02  0.8493835E-01
          2   -1    0    0  501    0  0.00000000000E+00  0.00000000000E+00  0.12502030121E+04  0.12502030121E+04  0.00000000000E+00 0.  1.
         -2   -1    0    0    0  501 -0.00000000000E+00 -0.00000000000E+00 -0.10214130312E+04  0.10214130312E+04  0.00000000000E+00 0. -1.
    2000013    1    1    2    0    0 -0.16092687479E+03 -0.54345680843E+03 -0.11750237449E+03  0.11124520527E+04  0.95000000000E+03 0.  0.
   -2000013    1    1    2    0    0  0.16092687479E+03  0.54345680843E+03  0.34629235535E+03  0.11591639906E+04  0.95000000000E+03 0.  0.
<mgrwt>
<rscale>  0 0.22600652E+04</rscale>
<asrwt>0</asrwt>
<pdfrwt beam="1">  1        2 0.19233892E+00 0.22600652E+04</pdfrwt>
<pdfrwt beam="2">  1       -2 0.15714047E+00 0.22600652E+04</pdfrwt>
<totfact> 0.42552094E+00</totfact>
</mgrwt>
</event>
<event>
 4    1  0.1295381E-008  0.2180311E+04  0.7816531E-02  0.8526668E-01
          2   -1    0    0  501    0  0.00000000000E+00  0.00000000000E+00  0.30794515188E+04  0.30794515188E+04  0.00000000000E+00 0.  1.
         -2   -1    0    0    0  501 -0.00000000000E+00 -0.00000000000E+00 -0.38592556623E+03  0.38592556623E+03  0.00000000000E+00 0. -1.
    2000013    1    1    2    0    0 -0.48970045550E+03  0.18124937308E+03  0.15299314374E+04  0.18750594856E+04  0.95000000000E+03 0.  0.
   -2000013    1    1    2    0    0  0.48970045550E+03 -0.18124937308E+03  0.11635945152E+04  0.15903175995E+04  0.95000000000E+03 0.  0.
<mgrwt>
<rscale>  0 0.21803111E+04</rscale>
<asrwt>0</asrwt>
<pdfrwt beam="1">  1        2 0.47376176E+00 0.21803111E+04</pdfrwt>
<pdfrwt beam="2">  1       -2 0.59373166E-01 0.21803111E+04</pdfrwt>
<totfact> 0.37663776E+00</totfact>
</mgrwt>
</event>
<event>
 4    1  0.1295381E-008  0.2304131E+04  0.7816531E-02  0.8476294E-01
          1   -1    0    0  501    0  0.00000000000E+00  0.00000000000E+00  0.11575451524E+04  0.11575451524E+04  0.00000000000E+00 0.  1.
         -1   -1    0    0    0  501 -0.00000000000E+00 -0.00000000000E+00 -0.11466117039E+04  0.11466117039E+04  0.00000000000E+00 0. -1.
    2000013    1    1    2    0    0  0.60783682566E+02  0.64752235661E+03  0.47597486561E+02  0.11522783427E+04  0.95000000000E+03 0.  0.
   -2000013    1    1    2    0    0 -0.60783682566E+02 -0.64752235661E+03 -0.36664038028E+02  0.11518785136E+04  0.95000000000E+03 0.  0.
<mgrwt>
<rscale>  0 0.23041309E+04</rscale>
<asrwt>0</asrwt>
<pdfrwt beam="1">  1        1 0.17808387E+00 0.23041309E+04</pdfrwt>
<pdfrwt beam="2">  1       -1 0.17640180E+00 0.23041309E+04</pdfrwt>
<totfact> 0.22926251E+00</totfact>
</mgrwt>
</event>
<event>
 4    1  0.1295381E-008  0.2398391E+04  0.7816531E-02  0.8440106E-01
          2   -1    0    0  501    0  0.00000000000E+00  0.00000000000E+00  0.18018344364E+04  0.18018344364E+04  0.00000000000E+00 0.  1.
         -2   -1    0    0    0  501 -0.00000000000E+00 -0.00000000000E+00 -0.79811452808E+03  0.79811452808E+03  0.00000000000E+00 0. -1.
    2000013    1    1    2    0    0  0.66386226030E+03  0.22392213316E+03  0.73109253384E+03  0.13884705670E+04  0.95000000000E+03 0.  0.
   -2000013    1    1    2    0    0 -0.66386226030E+03 -0.22392213316E+03  0.27262737452E+03  0.12114783975E+04  0.95000000000E+03 0.  0.
<mgrwt>
<rscale>  0 0.23983913E+04</rscale>
<asrwt>0</asrwt>
<pdfrwt beam="1">  1        2 0.27720530E+00 0.23983913E+04</pdfrwt>
<pdfrwt beam="2">  1       -2 0.12278685E+00 0.23983913E+04</pdfrwt>
<totfact> 0.38825668E+00</totfact>
</mgrwt>
</event>
<event>
 4    1  0.1295381E-008  0.2069440E+04  0.7816531E-02  0.8574826E-01
         -2   -1    0    0    0  501 -0.00000000000E+00  0.00000000000E+00  0.45457103850E+03  0.45457103850E+03  0.00000000000E+00 0. -1.
          2   -1    0    0  501    0  0.00000000000E+00 -0.00000000000E+00 -0.23552881986E+04  0.23552881986E+04  0.00000000000E+00 0.  1.
    2000013    1    1    2    0    0 -0.12829007757E+03  0.38912691877E+03 -0.92814311423E+03  0.13899020625E+04  0.95000000000E+03 0.  0.
   -2000013    1    1    2    0    0  0.12829007757E+03 -0.38912691877E+03 -0.97257404583E+03  0.14199571745E+04  0.95000000000E+03 0.  0.
<mgrwt>
<rscale>  0 0.20694403E+04</rscale>
<asrwt>0</asrwt>
<pdfrwt beam="2">  1        2 0.36235204E+00 0.20694403E+04</pdfrwt>
<pdfrwt beam="1">  1       -2 0.69934004E-01 0.20694403E+04</pdfrwt>
<totfact> 0.72574236E+00</totfact>
</mgrwt>
</event>
<event>
 4    1  0.1295381E-008  0.2625771E+04  0.7816531E-02  0.8359500E-01
          1   -1    0    0  501    0  0.00000000000E+00  0.00000000000E+00  0.21352219661E+04  0.21352219661E+04  0.00000000000E+00 0.  1.
         -1   -1    0    0    0  501 -0.00000000000E+00 -0.00000000000E+00 -0.80725507264E+03  0.80725507264E+03  0.00000000000E+00 0. -1.
    2000013    1    1    2    0    0  0.55672764886E+03 -0.61852159202E+03  0.10659297558E+04  0.16526405777E+04  0.95000000000E+03 0.  0.
   -2000013    1    1    2    0    0 -0.55672764886E+03  0.61852159202E+03  0.26203713772E+03  0.12898364611E+04  0.95000000000E+03 0.  0.
<mgrwt>
<rscale>  0 0.26257713E+04</rscale>
<asrwt>0</asrwt>
<pdfrwt beam="1">  1        1 0.32849568E+00 0.26257713E+04</pdfrwt>
<pdfrwt beam="2">  1       -1 0.12419309E+00 0.26257713E+04</pdfrwt>
<totfact> 0.12050064E+00</totfact>
</mgrwt>
</event>
<event>
 4    1  0.1295381E-008  0.2935809E+04  0.7816531E-02  0.8262302E-01
         -2   -1    0    0    0  501 -0.00000000000E+00  0.00000000000E+00  0.17207227346E+04  0.17207227346E+04  0.00000000000E+00 0.  1.
          2   -1    0    0  501    0  0.00000000000E+00 -0.00000000000E+00 -0.12522320024E+04  0.12522320024E+04  0.00000000000E+00 0. -1.
    2000013    1    1    2    0    0  0.56202169399E+03 -0.84824738008E+03  0.70581110357E+03  0.15607886840E+04  0.95000000000E+03 0.  0.
   -2000013    1    1    2    0    0 -0.56202169399E+03  0.84824738008E+03 -0.23732037138E+03  0.14121660529E+04  0.95000000000E+03 0.  0.
<mgrwt>
<rscale>  0 0.29358093E+04</rscale>
<asrwt>0</asrwt>
<pdfrwt beam="2">  1        2 0.19265108E+00 0.29358093E+04</pdfrwt>
<pdfrwt beam="1">  1       -2 0.26472657E+00 0.29358093E+04</pdfrwt>
<totfact> 0.79211915E-01</totfact>
</mgrwt>
</event>
<event>
 4    1  0.1295381E-008  0.3428738E+04  0.7816531E-02  0.8130889E-01
         -2   -1    0    0    0  501 -0.00000000000E+00  0.00000000000E+00  0.19658235112E+04  0.19658235112E+04  0.00000000000E+00 0. -1.
          2   -1    0    0  501    0  0.00000000000E+00 -0.00000000000E+00 -0.14950791813E+04  0.14950791813E+04  0.00000000000E+00 0.  1.
    2000013    1    1    2    0    0 -0.97414465018E+03 -0.45590556872E+03 -0.71137865065E+03  0.16016763942E+04  0.95000000000E+03 0.  0.
   -2000013    1    1    2    0    0  0.97414465018E+03  0.45590556872E+03  0.11821229806E+04  0.18592262983E+04  0.95000000000E+03 0.  0.
<mgrwt>
<rscale>  0 0.34287384E+04</rscale>
<asrwt>0</asrwt>
<pdfrwt beam="2">  1        2 0.23001218E+00 0.34287384E+04</pdfrwt>
<pdfrwt beam="1">  1       -2 0.30243439E+00 0.34287384E+04</pdfrwt>
<totfact> 0.32423370E-01</totfact>
</mgrwt>
</event>
<event>
 4    1  0.1295381E-008  0.2894069E+04  0.7816531E-02  0.8274644E-01
         -2   -1    0    0    0  501 -0.00000000000E+00  0.00000000000E+00  0.10137065850E+04  0.10137065850E+04  0.00000000000E+00 0. -1.
          2   -1    0    0  501    0  0.00000000000E+00 -0.00000000000E+00 -0.20655971735E+04  0.20655971735E+04  0.00000000000E+00 0.  1.
    2000013    1    1    2    0    0 -0.10872101630E+04 -0.28206213814E+02 -0.62454775985E+03  0.15733344951E+04  0.95000000000E+03 0.  0.
   -2000013    1    1    2    0    0  0.10872101630E+04  0.28206213814E+02 -0.42734282870E+03  0.15059692634E+04  0.95000000000E+03 0.  0.
<mgrwt>
<rscale>  0 0.28940694E+04</rscale>
<asrwt>0</asrwt>
<pdfrwt beam="2">  1        2 0.31778418E+00 0.28940694E+04</pdfrwt>
<pdfrwt beam="1">  1       -2 0.15595486E+00 0.28940694E+04</pdfrwt>
<totfact> 0.14320448E+00</totfact>
</mgrwt>
</event>
<event>
 4    1  0.1295381E-008  0.2591261E+04  0.7816531E-02  0.8371176E-01
          2   -1    0    0  501    0  0.00000000000E+00  0.00000000000E+00  0.30053016626E+04  0.30053016626E+04  0.00000000000E+00 0.  1.
         -2   -1    0    0    0  501 -0.00000000000E+00 -0.00000000000E+00 -0.55856584240E+03  0.55856584240E+03  0.00000000000E+00 0. -1.
    2000013    1    1    2    0    0 -0.13626723156E+03 -0.86939313961E+03  0.12808312434E+04  0.18213846007E+04  0.95000000000E+03 0.  0.
   -2000013    1    1    2    0    0  0.13626723156E+03  0.86939313961E+03  0.11659045768E+04  0.17424829043E+04  0.95000000000E+03 0.  0.
<mgrwt>
<rscale>  0 0.25912614E+04</rscale>
<asrwt>0</asrwt>
<pdfrwt beam="1">  1        2 0.46235410E+00 0.25912614E+04</pdfrwt>
<pdfrwt beam="2">  1       -2 0.85933208E-01 0.25912614E+04</pdfrwt>
<totfact> 0.17974460E+00</totfact>
</mgrwt>
</event>
<event>
 4    1  0.1295381E-008  0.2208634E+04  0.7816531E-02  0.8514843E-01
          2   -1    0    0  501    0  0.00000000000E+00  0.00000000000E+00  0.35453424192E+04  0.35453424192E+04  0.00000000000E+00 0.  1.
         -2   -1    0    0    0  501 -0.00000000000E+00 -0.00000000000E+00 -0.34397693030E+03  0.34397693030E+03  0.00000000000E+00 0. -1.
    2000013    1    1    2    0    0 -0.40346575712E+03 -0.12474692595E+03  0.94492946397E+03  0.14048978983E+04  0.95000000000E+03 0.  0.
   -2000013    1    1    2    0    0  0.40346575712E+03  0.12474692595E+03  0.22564360249E+04  0.24844214512E+04  0.95000000000E+03 0.  0.
<mgrwt>
<rscale>  0 0.22086340E+04</rscale>
<asrwt>0</asrwt>
<pdfrwt beam="1">  1        2 0.54543727E+00 0.22086340E+04</pdfrwt>
<pdfrwt beam="2">  1       -2 0.52919530E-01 0.22086340E+04</pdfrwt>
<totfact> 0.23320380E+00</totfact>
</mgrwt>
</event>
<event>
 4    1  0.1295381E-008  0.2868413E+04  0.7816531E-02  0.8282338E-01
          2   -1    0    0  501    0  0.00000000000E+00  0.00000000000E+00  0.15030570968E+04  0.15030570968E+04  0.00000000000E+00 0.  1.
         -2   -1    0    0    0  501 -0.00000000000E+00 -0.00000000000E+00 -0.13685101700E+04  0.13685101700E+04  0.00000000000E+00 0. -1.
    2000013    1    1    2    0    0  0.57609140722E+03  0.30432966045E+03  0.92258458619E+03  0.14758591296E+04  0.95000000000E+03 0.  0.
   -2000013    1    1    2    0    0 -0.57609140722E+03 -0.30432966045E+03 -0.78803765933E+03  0.13957081372E+04  0.95000000000E+03 0.  0.
<mgrwt>
<rscale>  0 0.28684134E+04</rscale>
<asrwt>0</asrwt>
<pdfrwt beam="1">  1        2 0.23123955E+00 0.28684134E+04</pdfrwt>
<pdfrwt beam="2">  1       -2 0.21054003E+00 0.28684134E+04</pdfrwt>
<totfact> 0.12428877E+00</totfact>
</mgrwt>
</event>
<event>
 4    1  0.1295381E-008  0.2554320E+04  0.7816531E-02  0.8383885E-01
          2   -1    0    0  501    0  0.00000000000E+00  0.00000000000E+00  0.47041773727E+03  0.47041773727E+03  0.00000000000E+00 0.  1.
         -2   -1    0    0    0  501 -0.00000000000E+00 -0.00000000000E+00 -0.34674247298E+04  0.34674247298E+04  0.00000000000E+00 0. -1.
    2000013    1    1    2    0    0  0.21532754147E+03 -0.75716677017E+03 -0.98959734165E+03  0.15816037325E+04  0.95000000000E+03 0.  0.
   -2000013    1    1    2    0    0 -0.21532754147E+03  0.75716677017E+03 -0.20074096509E+04  0.23562387346E+04  0.95000000000E+03 0.  0.
<mgrwt>
<rscale>  0 0.25543203E+04</rscale>
<asrwt>0</asrwt>
<pdfrwt beam="1">  1        2 0.72371962E-01 0.25543203E+04</pdfrwt>
<pdfrwt beam="2">  1       -2 0.53344994E+00 0.25543203E+04</pdfrwt>
<totfact> 0.60931996E-02</totfact>
</mgrwt>
</event>
<event>
 4    1  0.1295381E-008  0.2589587E+04  0.7816531E-02  0.8371747E-01
         -1   -1    0    0    0  501 -0.00000000000E+00  0.00000000000E+00  0.63861768777E+03  0.63861768777E+03  0.00000000000E+00 0. -1.
          1   -1    0    0  501    0  0.00000000000E+00 -0.00000000000E+00 -0.26251853008E+04  0.26251853008E+04  0.00000000000E+00 0.  1.
    2000013    1    1    2    0    0 -0.22550445724E+03 -0.71509699594E+03 -0.15732859442E+04  0.19849293781E+04  0.95000000000E+03 0.  0.
   -2000013    1    1    2    0    0  0.22550445724E+03  0.71509699594E+03 -0.41328166889E+03  0.12788736105E+04  0.95000000000E+03 0.  0.
<mgrwt>
<rscale>  0 0.25895867E+04</rscale>
<asrwt>0</asrwt>
<pdfrwt beam="2">  1        1 0.40387466E+00 0.25895867E+04</pdfrwt>
<pdfrwt beam="1">  1       -1 0.98248876E-01 0.25895867E+04</pdfrwt>
<totfact> 0.96878944E-01</totfact>
</mgrwt>
</event>
<event>
 4    1  0.1295381E-008  0.2208741E+04  0.7816531E-02  0.8514799E-01
         -2   -1    0    0    0  501 -0.00000000000E+00  0.00000000000E+00  0.50843839396E+03  0.50843839396E+03  0.00000000000E+00 0. -1.
          2   -1    0    0  501    0  0.00000000000E+00 -0.00000000000E+00 -0.23987838403E+04  0.23987838403E+04  0.00000000000E+00 0.  1.
    2000013    1    1    2    0    0  0.23422296568E+03  0.43929925203E+03 -0.59870127521E+03  0.12283270930E+04  0.95000000000E+03 0.  0.
   -2000013    1    1    2    0    0 -0.23422296568E+03 -0.43929925203E+03 -0.12916441712E+04  0.16788951413E+04  0.95000000000E+03 0.  0.
<mgrwt>
<rscale>  0 0.22087406E+04</rscale>
<asrwt>0</asrwt>
<pdfrwt beam="2">  1        2 0.36904366E+00 0.22087406E+04</pdfrwt>
<pdfrwt beam="1">  1       -2 0.78221292E-01 0.22087406E+04</pdfrwt>
<totfact> 0.52876533E+00</totfact>
</mgrwt>
</event>
<event>
 4    1  0.1295381E-008  0.2640453E+04  0.7816531E-02  0.8354589E-01
         -2   -1    0    0    0  501 -0.00000000000E+00  0.00000000000E+00  0.12742614143E+04  0.12742614143E+04  0.00000000000E+00 0. -1.
          2   -1    0    0  501    0  0.00000000000E+00 -0.00000000000E+00 -0.13678496659E+04  0.13678496659E+04  0.00000000000E+00 0.  1.
    2000013    1    1    2    0    0 -0.39656266930E+03  0.82210176607E+03 -0.13278286189E+03  0.13241014134E+04  0.95000000000E+03 0.  0.
   -2000013    1    1    2    0    0  0.39656266930E+03 -0.82210176607E+03  0.39194610222E+02  0.13180096669E+04  0.95000000000E+03 0.  0.
<mgrwt>
<rscale>  0 0.26404530E+04</rscale>
<asrwt>0</asrwt>
<pdfrwt beam="2">  1        2 0.21043841E+00 0.26404530E+04</pdfrwt>
<pdfrwt beam="1">  1       -2 0.19604022E+00 0.26404530E+04</pdfrwt>
<totfact> 0.18804819E+00</totfact>
</mgrwt>
</event>
<event>
 4    1  0.1295381E-008  0.2592930E+04  0.7816531E-02  0.8370607E-01
         -1   -1    0    0    0  501 -0.00000000000E+00  0.00000000000E+00  0.18613734113E+04  0.18613734113E+04  0.00000000000E+00 0. -1.
          1   -1    0    0  501    0  0.00000000000E+00 -0.00000000000E+00 -0.90300085636E+03  0.90300085636E+03  0.00000000000E+00 0.  1.
    2000013    1    1    2    0    0  0.29257036115E+03 -0.75390585074E+03  0.10323679251E+03  0.12518503438E+04  0.95000000000E+03 0.  0.
   -2000013    1    1    2    0    0 -0.29257036115E+03  0.75390585074E+03  0.85513576242E+03  0.15125239238E+04  0.95000000000E+03 0.  0.
<mgrwt>
<rscale>  0 0.25929302E+04</rscale>
<asrwt>0</asrwt>
<pdfrwt beam="2">  1        1 0.13892321E+00 0.25929302E+04</pdfrwt>
<pdfrwt beam="1">  1       -1 0.28636514E+00 0.25929302E+04</pdfrwt>
<totfact> 0.64542777E-01</totfact>
</mgrwt>
</event>
<event>
 4    1  0.1295381E-008  0.2774620E+04  0.7816531E-02  0.8311191E-01
         -2   -1    0    0    0  501 -0.00000000000E+00  0.00000000000E+00  0.11004425376E+04  0.11004425376E+04  0.00000000000E+00 0. -1.
          2   -1    0    0  501    0  0.00000000000E+00 -0.00000000000E+00 -0.17489592161E+04  0.17489592161E+04  0.00000000000E+00 0.  1.
    2000013    1    1    2    0    0 -0.59444040675E+03 -0.68669956047E+03 -0.78031459109E+03  0.15284981337E+04  0.95000000000E+03 0.  0.
   -2000013    1    1    2    0    0  0.59444040675E+03  0.68669956047E+03  0.13179791261E+03  0.13209036200E+04  0.95000000000E+03 0.  0.
<mgrwt>
<rscale>  0 0.27746201E+04</rscale>
<asrwt>0</asrwt>
<pdfrwt beam="2">  1        2 0.26907065E+00 0.27746201E+04</pdfrwt>
<pdfrwt beam="1">  1       -2 0.16929885E+00 0.27746201E+04</pdfrwt>
<totfact> 0.17318725E+00</totfact>
</mgrwt>
</event>
<event>
 4    1  0.1295381E-008  0.2878276E+04  0.7816531E-02  0.8279371E-01
         -2   -1    0    0    0  501 -0.00000000000E+00  0.00000000000E+00  0.10956469425E+04  0.10956469425E+04  0.00000000000E+00 0. -1.
          2   -1    0    0  501    0  0.00000000000E+00 -0.00000000000E+00 -0.18903151011E+04  0.18903151011E+04  0.00000000000E+00 0.  1.
    2000013    1    1    2    0    0  0.59704552177E+03 -0.54356371639E+03 -0.11430410406E+04  0.16914395317E+04  0.95000000000E+03 0.  0.
   -2000013    1    1    2    0    0 -0.59704552177E+03  0.54356371639E+03  0.34837288200E+03  0.12945225119E+04  0.95000000000E+03 0.  0.
<mgrwt>
<rscale>  0 0.28782758E+04</rscale>
<asrwt>0</asrwt>
<pdfrwt beam="2">  1        2 0.29081770E+00 0.28782758E+04</pdfrwt>
<pdfrwt beam="1">  1       -2 0.16856107E+00 0.28782758E+04</pdfrwt>
<totfact> 0.14508003E+00</totfact>
</mgrwt>
</event>
<event>
 4    1  0.1295381E-008  0.2360307E+04  0.7816531E-02  0.8454515E-01
         -2   -1    0    0    0  501 -0.00000000000E+00  0.00000000000E+00  0.39841666817E+03  0.39841666817E+03  0.00000000000E+00 0. -1.
          2   -1    0    0  501    0  0.00000000000E+00 -0.00000000000E+00 -0.34957421016E+04  0.34957421016E+04  0.00000000000E+00 0.  1.
    2000013    1    1    2    0    0 -0.18914191316E+03  0.39952110652E+03 -0.65276048864E+03  0.12344991022E+04  0.95000000000E+03 0.  0.
   -2000013    1    1    2    0    0  0.18914191316E+03 -0.39952110652E+03 -0.24445649448E+04  0.26596596676E+04  0.95000000000E+03 0.  0.
<mgrwt>
<rscale>  0 0.23603067E+04</rscale>
<asrwt>0</asrwt>
<pdfrwt beam="2">  1        2 0.53780645E+00 0.23603067E+04</pdfrwt>
<pdfrwt beam="1">  1       -2 0.61294875E-01 0.23603067E+04</pdfrwt>
<totfact> 0.18319934E+00</totfact>
</mgrwt>
</event>
<event>
 4    1  0.1295381E-008  0.2188760E+04  0.7816531E-02  0.8523121E-01
          1   -1    0    0  501    0  0.00000000000E+00  0.00000000000E+00  0.70088710834E+03  0.70088710834E+03  0.00000000000E+00 0. -1.
         -1   -1    0    0    0  501 -0.00000000000E+00 -0.00000000000E+00 -0.17087888577E+04  0.17087888577E+04  0.00000000000E+00 0.  1.
    2000013    1    1    2    0    0  0.62071307806E+02 -0.24443805948E+03 -0.10337327839E+04  0.14264313095E+04  0.95000000000E+03 0.  0.
   -2000013    1    1    2    0    0 -0.62071307806E+02  0.24443805948E+03  0.25831034607E+02  0.98324465650E+03  0.95000000000E+03 0.  0.
<mgrwt>
<rscale>  0 0.21887605E+04</rscale>
<asrwt>0</asrwt>
<pdfrwt beam="1">  1        1 0.10782879E+00 0.21887605E+04</pdfrwt>
<pdfrwt beam="2">  1       -1 0.26289059E+00 0.21887605E+04</pdfrwt>
<totfact> 0.14259791E+00</totfact>
</mgrwt>
</event>
<event>
 4    1  0.1295381E-008  0.2573195E+04  0.7816531E-02  0.8377364E-01
          1   -1    0    0  501    0  0.00000000000E+00  0.00000000000E+00  0.25278963363E+04  0.25278963363E+04  0.00000000000E+00 0.  1.
         -1   -1    0    0    0  501 -0.00000000000E+00 -0.00000000000E+00 -0.65482633337E+03  0.65482633337E+03  0.00000000000E+00 0. -1.
    2000013    1    1    2    0    0 -0.57037459421E+03  0.57327998442E+03  0.13254257004E+04  0.18202281191E+04  0.95000000000E+03 0.  0.
   -2000013    1    1    2    0    0  0.57037459421E+03 -0.57327998442E+03  0.54764430250E+03  0.13624945506E+04  0.95000000000E+03 0.  0.
<mgrwt>
<rscale>  0 0.25731950E+04</rscale>
<asrwt>0</asrwt>
<pdfrwt beam="1">  1        1 0.38890712E+00 0.25731950E+04</pdfrwt>
<pdfrwt beam="2">  1       -1 0.10074251E+00 0.25731950E+04</pdfrwt>
<totfact> 0.10713430E+00</totfact>
</mgrwt>
</event>
<event>
 4    1  0.1295381E-008  0.2496623E+04  0.7816531E-02  0.8404190E-01
         -2   -1    0    0    0  501 -0.00000000000E+00  0.00000000000E+00  0.11318350208E+04  0.11318350208E+04  0.00000000000E+00 0. -1.
          2   -1    0    0  501    0  0.00000000000E+00 -0.00000000000E+00 -0.13767740783E+04  0.13767740783E+04  0.00000000000E+00 0.  1.
    2000013    1    1    2    0    0  0.60305230013E+03 -0.53641607279E+03 -0.18886884598E+03  0.12607877382E+04  0.95000000000E+03 0.  0.
   -2000013    1    1    2    0    0 -0.60305230013E+03  0.53641607279E+03 -0.56070211509E+02  0.12478213608E+04  0.95000000000E+03 0.  0.
<mgrwt>
<rscale>  0 0.24966226E+04</rscale>
<asrwt>0</asrwt>
<pdfrwt beam="2">  1        2 0.21181140E+00 0.24966226E+04</pdfrwt>
<pdfrwt beam="1">  1       -2 0.17412847E+00 0.24966226E+04</pdfrwt>
<totfact> 0.26530536E+00</totfact>
</mgrwt>
</event>
<event>
 4    1  0.1295381E-008  0.3132130E+04  0.7816531E-02  0.8206975E-01
          2   -1    0    0  501    0  0.00000000000E+00  0.00000000000E+00  0.15564248137E+04  0.15564248137E+04  0.00000000000E+00 0.  1.
         -2   -1    0    0    0  501 -0.00000000000E+00 -0.00000000000E+00 -0.15757650052E+04  0.15757650052E+04  0.00000000000E+00 0. -1.
    2000013    1    1    2    0    0  0.20510020285E+03 -0.12240334396E+04 -0.10834213547E+03  0.15667041752E+04  0.95000000000E+03 0.  0.
   -2000013    1    1    2    0    0 -0.20510020285E+03  0.12240334396E+04  0.89001943990E+02  0.15654856436E+04  0.95000000000E+03 0.  0.
<mgrwt>
<rscale>  0 0.31321301E+04</rscale>
<asrwt>0</asrwt>
<pdfrwt beam="1">  1        2 0.23944997E+00 0.31321301E+04</pdfrwt>
<pdfrwt beam="2">  1       -2 0.24242539E+00 0.31321301E+04</pdfrwt>
<totfact> 0.71489920E-01</totfact>
</mgrwt>
</event>
<event>
 4    1  0.1295381E-008  0.3048427E+04  0.7816531E-02  0.8230036E-01
         -2   -1    0    0    0  501 -0.00000000000E+00  0.00000000000E+00  0.20112701357E+04  0.20112701357E+04  0.00000000000E+00 0. -1.
          2   -1    0    0  501    0  0.00000000000E+00 -0.00000000000E+00 -0.11551040390E+04  0.11551040390E+04  0.00000000000E+00 0.  1.
    2000013    1    1    2    0    0  0.63634771946E+03  0.97449210743E+03  0.16092937018E+03  0.15109505451E+04  0.95000000000E+03 0.  0.
   -2000013    1    1    2    0    0 -0.63634771946E+03 -0.97449210743E+03  0.69523672654E+03  0.16554236296E+04  0.95000000000E+03 0.  0.
<mgrwt>
<rscale>  0 0.30484266E+04</rscale>
<asrwt>0</asrwt>
<pdfrwt beam="2">  1        2 0.17770831E+00 0.30484266E+04</pdfrwt>
<pdfrwt beam="1">  1       -2 0.30942618E+00 0.30484266E+04</pdfrwt>
<totfact> 0.47810056E-01</totfact>
</mgrwt>
</event>
<event>
 4    1  0.1295381E-008  0.2875961E+04  0.7816531E-02  0.8280066E-01
         -2   -1    0    0    0  501 -0.00000000000E+00  0.00000000000E+00  0.66910068488E+03  0.66910068488E+03  0.00000000000E+00 0. -1.
          2   -1    0    0  501    0  0.00000000000E+00 -0.00000000000E+00 -0.30903987630E+04  0.30903987630E+04  0.00000000000E+00 0.  1.
    2000013    1    1    2    0    0 -0.10663754130E+04  0.91051267782E+02 -0.10265168899E+04  0.17611597826E+04  0.95000000000E+03 0.  0.
   -2000013    1    1    2    0    0  0.10663754130E+04 -0.91051267782E+02 -0.13947811883E+04  0.19983396653E+04  0.95000000000E+03 0.  0.
<mgrwt>
<rscale>  0 0.28759610E+04</rscale>
<asrwt>0</asrwt>
<pdfrwt beam="2">  1        2 0.47544597E+00 0.28759610E+04</pdfrwt>
<pdfrwt beam="1">  1       -2 0.10293857E+00 0.28759610E+04</pdfrwt>
<totfact> 0.10169242E+00</totfact>
</mgrwt>
</event>
<event>
 4    1  0.1295381E-008  0.3065979E+04  0.7816531E-02  0.8225137E-01
          2   -1    0    0  501    0  0.00000000000E+00  0.00000000000E+00  0.15541606485E+04  0.15541606485E+04  0.00000000000E+00 0.  1.
         -2   -1    0    0    0  501 -0.00000000000E+00 -0.00000000000E+00 -0.15121062985E+04  0.15121062985E+04  0.00000000000E+00 0. -1.
    2000013    1    1    2    0    0 -0.11748785647E+04 -0.25848502782E+03  0.97649408935E+00  0.15328584751E+04  0.95000000000E+03 0.  0.
   -2000013    1    1    2    0    0  0.11748785647E+04  0.25848502782E+03  0.41077855855E+02  0.15334084718E+04  0.95000000000E+03 0.  0.
<mgrwt>
<rscale>  0 0.30659785E+04</rscale>
<asrwt>0</asrwt>
<pdfrwt beam="1">  1        2 0.23910164E+00 0.30659785E+04</pdfrwt>
<pdfrwt beam="2">  1       -2 0.23263174E+00 0.30659785E+04</pdfrwt>
<totfact> 0.82932009E-01</totfact>
</mgrwt>
</event>
<event>
 4    1  0.1295381E-008  0.2606087E+04  0.7816531E-02  0.8366137E-01
         -2   -1    0    0    0  501 -0.00000000000E+00  0.00000000000E+00  0.79108017720E+03  0.79108017720E+03  0.00000000000E+00 0. -1.
          2   -1    0    0  501    0  0.00000000000E+00 -0.00000000000E+00 -0.21463337227E+04  0.21463337227E+04  0.00000000000E+00 0.  1.
    2000013    1    1    2    0    0  0.79070873637E+03 -0.39328601348E+03 -0.81808014867E+03  0.15335088274E+04  0.95000000000E+03 0.  0.
   -2000013    1    1    2    0    0 -0.79070873637E+03  0.39328601348E+03 -0.53717339679E+03  0.14039050724E+04  0.95000000000E+03 0.  0.
<mgrwt>
<rscale>  0 0.26060868E+04</rscale>
<asrwt>0</asrwt>
<pdfrwt beam="2">  1        2 0.33020519E+00 0.26060868E+04</pdfrwt>
<pdfrwt beam="1">  1       -2 0.12170464E+00 0.26060868E+04</pdfrwt>
<totfact> 0.25086323E+00</totfact>
</mgrwt>
</event>
<event>
 4    1  0.1295381E-008  0.2006870E+04  0.7816531E-02  0.8603415E-01
         -2   -1    0    0    0  501 -0.00000000000E+00  0.00000000000E+00  0.14577460552E+04  0.14577460552E+04  0.00000000000E+00 0. -1.
          2   -1    0    0  501    0  0.00000000000E+00 -0.00000000000E+00 -0.69071171765E+03  0.69071171765E+03  0.00000000000E+00 0.  1.
    2000013    1    1    2    0    0 -0.14487786197E+03  0.55676174241E+02  0.80165830533E+02  0.96592752919E+03  0.95000000000E+03 0.  0.
   -2000013    1    1    2    0    0  0.14487786197E+03 -0.55676174241E+02  0.68686850706E+03  0.11825302437E+04  0.95000000000E+03 0.  0.
<mgrwt>
<rscale>  0 0.20068705E+04</rscale>
<asrwt>0</asrwt>
<pdfrwt beam="2">  1        2 0.10626334E+00 0.20068705E+04</pdfrwt>
<pdfrwt beam="1">  1       -2 0.22426862E+00 0.20068705E+04</pdfrwt>
<totfact> 0.35922251E+00</totfact>
</mgrwt>
</event>
<event>
 4    1  0.1295381E-008  0.2509105E+04  0.7816531E-02  0.8399749E-01
          2   -1    0    0  501    0  0.00000000000E+00  0.00000000000E+00  0.17809187930E+04  0.17809187930E+04  0.00000000000E+00 0.  1.
         -2   -1    0    0    0  501 -0.00000000000E+00 -0.00000000000E+00 -0.88375834565E+03  0.88375834565E+03  0.00000000000E+00 0. -1.
    2000013    1    1    2    0    0  0.66173897379E+03  0.25408650728E+03  0.12067986380E+02  0.11853708529E+04  0.95000000000E+03 0.  0.
   -2000013    1    1    2    0    0 -0.66173897379E+03 -0.25408650728E+03  0.88509246102E+03  0.14793062858E+04  0.95000000000E+03 0.  0.
<mgrwt>
<rscale>  0 0.25091049E+04</rscale>
<asrwt>0</asrwt>
<pdfrwt beam="1">  1        2 0.27398751E+00 0.25091049E+04</pdfrwt>
<pdfrwt beam="2">  1       -2 0.13596282E+00 0.25091049E+04</pdfrwt>
<totfact> 0.30531074E+00</totfact>
</mgrwt>
</event>
<event>
 4    1  0.1295381E-008  0.2336817E+04  0.7816531E-02  0.8463545E-01
         -2   -1    0    0    0  501 -0.00000000000E+00  0.00000000000E+00  0.98759141988E+03  0.98759141988E+03  0.00000000000E+00 0. -1.
          2   -1    0    0  501    0  0.00000000000E+00 -0.00000000000E+00 -0.13823310204E+04  0.13823310204E+04  0.00000000000E+00 0.  1.
    2000013    1    1    2    0    0  0.47122120574E+03  0.48882681329E+03 -0.23890333693E+03  0.11918791392E+04  0.95000000000E+03 0.  0.
   -2000013    1    1    2    0    0 -0.47122120574E+03 -0.48882681329E+03 -0.15583626361E+03  0.11780433011E+04  0.95000000000E+03 0.  0.
<mgrwt>
<rscale>  0 0.23368169E+04</rscale>
<asrwt>0</asrwt>
<pdfrwt beam="2">  1        2 0.21266631E+00 0.23368169E+04</pdfrwt>
<pdfrwt beam="1">  1       -2 0.15193714E+00 0.23368169E+04</pdfrwt>
<totfact> 0.38775742E+00</totfact>
</mgrwt>
</event>
<event>
 4    1  0.1295381E-008  0.2800833E+04  0.7816531E-02  0.8303010E-01
          2   -1    0    0  501    0  0.00000000000E+00  0.00000000000E+00  0.98370758453E+03  0.98370758453E+03  0.00000000000E+00 0.  1.
         -2   -1    0    0    0  501 -0.00000000000E+00 -0.00000000000E+00 -0.19936481021E+04  0.19936481021E+04  0.00000000000E+00 0. -1.
    2000013    1    1    2    0    0  0.83307214607E+03  0.34299270295E+03  0.23358028465E+02  0.13094650787E+04  0.95000000000E+03 0.  0.
   -2000013    1    1    2    0    0 -0.83307214607E+03 -0.34299270295E+03 -0.10332985461E+04  0.16678906080E+04  0.95000000000E+03 0.  0.
<mgrwt>
<rscale>  0 0.28008333E+04</rscale>
<asrwt>0</asrwt>
<pdfrwt beam="1">  1        2 0.15133963E+00 0.28008333E+04</pdfrwt>
<pdfrwt beam="2">  1       -2 0.30671509E+00 0.28008333E+04</pdfrwt>
<totfact> 0.64910131E-01</totfact>
</mgrwt>
</event>
<event>
 4    1  0.1295381E-008  0.2148111E+04  0.7816531E-02  0.8540341E-01
          2   -1    0    0  501    0  0.00000000000E+00  0.00000000000E+00  0.18529174534E+04  0.18529174534E+04  0.00000000000E+00 0.  1.
         -2   -1    0    0    0  501 -0.00000000000E+00 -0.00000000000E+00 -0.62258305555E+03  0.62258305555E+03  0.00000000000E+00 0. -1.
    2000013    1    1    2    0    0  0.14268574743E+03 -0.67782779894E+02  0.67147379923E+02  0.96538204790E+03  0.95000000000E+03 0.  0.
   -2000013    1    1    2    0    0 -0.14268574743E+03  0.67782779894E+02  0.11631870180E+04  0.15101184611E+04  0.95000000000E+03 0.  0.
<mgrwt>
<rscale>  0 0.21481108E+04</rscale>
<asrwt>0</asrwt>
<pdfrwt beam="1">  1        2 0.28506422E+00 0.21481108E+04</pdfrwt>
<pdfrwt beam="2">  1       -2 0.95782009E-01 0.21481108E+04</pdfrwt>
<totfact> 0.67679699E+00</totfact>
</mgrwt>
</event>
<event>
 4    1  0.1295381E-008  0.3054773E+04  0.7816531E-02  0.8228261E-01
         -2   -1    0    0    0  501 -0.00000000000E+00  0.00000000000E+00  0.96852798269E+03  0.96852798269E+03  0.00000000000E+00 0. -1.
          2   -1    0    0  501    0  0.00000000000E+00 -0.00000000000E+00 -0.24087169733E+04  0.24087169733E+04  0.00000000000E+00 0.  1.
    2000013    1    1    2    0    0 -0.28003321378E+02  0.80797050128E+03 -0.16945023902E+04  0.21041480146E+04  0.95000000000E+03 0.  0.
   -2000013    1    1    2    0    0  0.28003321378E+02 -0.80797050128E+03  0.25431339959E+03  0.12730969414E+04  0.95000000000E+03 0.  0.
<mgrwt>
<rscale>  0 0.30547732E+04</rscale>
<asrwt>0</asrwt>
<pdfrwt beam="2">  1        2 0.37057184E+00 0.30547732E+04</pdfrwt>
<pdfrwt beam="1">  1       -2 0.14900431E+00 0.30547732E+04</pdfrwt>
<totfact> 0.10211604E+00</totfact>
</mgrwt>
</event>
<event>
 4    1  0.1295381E-008  0.2370347E+04  0.7816531E-02  0.8450689E-01
          2   -1    0    0  501    0  0.00000000000E+00  0.00000000000E+00  0.29345097139E+04  0.29345097139E+04  0.00000000000E+00 0.  1.
         -2   -1    0    0    0  501 -0.00000000000E+00 -0.00000000000E+00 -0.47866127595E+03  0.47866127595E+03  0.00000000000E+00 0. -1.
    2000013    1    1    2    0    0  0.41552901656E+03 -0.57231639915E+03  0.12911137172E+04  0.17520516702E+04  0.95000000000E+03 0.  0.
   -2000013    1    1    2    0    0 -0.41552901656E+03  0.57231639915E+03  0.11647347207E+04  0.16611193196E+04  0.95000000000E+03 0.  0.
<mgrwt>
<rscale>  0 0.23703469E+04</rscale>
<asrwt>0</asrwt>
<pdfrwt beam="1">  1        2 0.45146302E+00 0.23703469E+04</pdfrwt>
<pdfrwt beam="2">  1       -2 0.73640198E-01 0.23703469E+04</pdfrwt>
<totfact> 0.28683809E+00</totfact>
</mgrwt>
</event>
<event>
 4    1  0.1295381E-008  0.2017260E+04  0.7816531E-02  0.8598594E-01
         -2   -1    0    0    0  501 -0.00000000000E+00  0.00000000000E+00  0.11339330275E+04  0.11339330275E+04  0.00000000000E+00 0. -1.
          2   -1    0    0  501    0  0.00000000000E+00 -0.00000000000E+00 -0.89717294618E+03  0.89717294618E+03  0.00000000000E+00 0.  1.
    2000013    1    1    2    0    0  0.33001610058E+03 -0.76951033145E+02  0.11697514632E+03  0.10153892224E+04  0.95000000000E+03 0.  0.
   -2000013    1    1    2    0    0 -0.33001610058E+03  0.76951033145E+02  0.11978493500E+03  0.10157167513E+04  0.95000000000E+03 0.  0.
<mgrwt>
<rscale>  0 0.20172596E+04</rscale>
<asrwt>0</asrwt>
<pdfrwt beam="2">  1        2 0.13802661E+00 0.20172596E+04</pdfrwt>
<pdfrwt beam="1">  1       -2 0.17445124E+00 0.20172596E+04</pdfrwt>
<totfact> 0.54145990E+00</totfact>
</mgrwt>
</event>
<event>
 4    1  0.1295381E-008  0.2504226E+04  0.7816531E-02  0.8401482E-01
          2   -1    0    0  501    0  0.00000000000E+00  0.00000000000E+00  0.44841767077E+04  0.44841767077E+04  0.00000000000E+00 0.  1.
         -2   -1    0    0    0  501 -0.00000000000E+00 -0.00000000000E+00 -0.34962650975E+03  0.34962650975E+03  0.00000000000E+00 0. -1.
    2000013    1    1    2    0    0  0.53720609325E+03 -0.59346161512E+03  0.17651420279E+04  0.21584747981E+04  0.95000000000E+03 0.  0.
   -2000013    1    1    2    0    0 -0.53720609325E+03  0.59346161512E+03  0.23694081700E+04  0.26753284194E+04  0.95000000000E+03 0.  0.
<mgrwt>
<rscale>  0 0.25042261E+04</rscale>
<asrwt>0</asrwt>
<pdfrwt beam="1">  1        2 0.68987330E+00 0.25042261E+04</pdfrwt>
<pdfrwt beam="2">  1       -2 0.53788697E-01 0.25042261E+04</pdfrwt>
<totfact> 0.37237750E-01</totfact>
</mgrwt>
</event>
<event>
 4    1  0.1295381E-008  0.3498347E+04  0.7816531E-02  0.8114182E-01
          2   -1    0    0  501    0  0.00000000000E+00  0.00000000000E+00  0.31821259991E+04  0.31821259991E+04  0.00000000000E+00 0.  1.
         -2   -1    0    0    0  501 -0.00000000000E+00 -0.00000000000E+00 -0.96149794182E+03  0.96149794182E+03  0.00000000000E+00 0. -1.
    2000013    1    1    2    0    0  0.54047797803E+03 -0.85333885676E+03 -0.15256066155E+03  0.13950191413E+04  0.95000000000E+03 0.  0.
   -2000013    1    1    2    0    0 -0.54047797803E+03  0.85333885676E+03  0.23731887188E+04  0.27486047996E+04  0.95000000000E+03 0.  0.
<mgrwt>
<rscale>  0 0.34983468E+04</rscale>
<asrwt>0</asrwt>
<pdfrwt beam="1">  1        2 0.48955784E+00 0.34983468E+04</pdfrwt>
<pdfrwt beam="2">  1       -2 0.14792276E+00 0.34983468E+04</pdfrwt>
<totfact> 0.33998352E-01</totfact>
</mgrwt>
</event>
<event>
 4    1  0.1295381E-008  0.3810517E+04  0.7816531E-02  0.8043902E-01
         -1   -1    0    0    0  501 -0.00000000000E+00  0.00000000000E+00  0.18374772364E+04  0.18374772364E+04  0.00000000000E+00 0.  1.
          1   -1    0    0  501    0  0.00000000000E+00 -0.00000000000E+00 -0.19755398840E+04  0.19755398840E+04  0.00000000000E+00 0. -1.
    2000013    1    1    2    0    0  0.21269438483E+03  0.16351557489E+04 -0.16148427513E+03  0.19098561191E+04  0.95000000000E+03 0.  0.
   -2000013    1    1    2    0    0 -0.21269438483E+03 -0.16351557489E+04  0.23421627583E+02  0.19031610013E+04  0.95000000000E+03 0.  0.
<mgrwt>
<rscale>  0 0.38105168E+04</rscale>
<asrwt>0</asrwt>
<pdfrwt beam="2">  1        1 0.30392921E+00 0.38105168E+04</pdfrwt>
<pdfrwt beam="1">  1       -1 0.28268881E+00 0.38105168E+04</pdfrwt>
<totfact> 0.10524544E-01</totfact>
</mgrwt>
</event>
<event>
 4    1  0.1295381E-008  0.2390830E+04  0.7816531E-02  0.8442945E-01
          2   -1    0    0  501    0  0.00000000000E+00  0.00000000000E+00  0.15670662291E+04  0.15670662291E+04  0.00000000000E+00 0.  1.
         -2   -1    0    0    0  501 -0.00000000000E+00 -0.00000000000E+00 -0.91190590935E+03  0.91190590935E+03  0.00000000000E+00 0. -1.
    2000013    1    1    2    0    0 -0.25804442252E+03  0.67648568033E+03  0.37727577924E+03  0.12526199796E+04  0.95000000000E+03 0.  0.
   -2000013    1    1    2    0    0  0.25804442252E+03 -0.67648568033E+03  0.27788454051E+03  0.12263521589E+04  0.95000000000E+03 0.  0.
<mgrwt>
<rscale>  0 0.23908299E+04</rscale>
<asrwt>0</asrwt>
<pdfrwt beam="1">  1        2 0.24108711E+00 0.23908299E+04</pdfrwt>
<pdfrwt beam="2">  1       -2 0.14029322E+00 0.23908299E+04</pdfrwt>
<totfact> 0.37412078E+00</totfact>
</mgrwt>
</event>
<event>
 4    1  0.1295381E-008  0.2738364E+04  0.7816531E-02  0.8322664E-01
          2   -1    0    0  501    0  0.00000000000E+00  0.00000000000E+00  0.19674591794E+04  0.19674591794E+04  0.00000000000E+00 0.  1.
         -2   -1    0    0    0  501 -0.00000000000E+00 -0.00000000000E+00 -0.95283258515E+03  0.95283258515E+03  0.00000000000E+00 0. -1.
    2000013    1    1    2    0    0  0.80116227534E+03  0.57457003002E+03  0.49351106626E+03  0.14553504332E+04  0.95000000000E+03 0.  0.
   -2000013    1    1    2    0    0 -0.80116227534E+03 -0.57457003002E+03  0.52111552796E+03  0.14649413313E+04  0.95000000000E+03 0.  0.
<mgrwt>
<rscale>  0 0.27383639E+04</rscale>
<asrwt>0</asrwt>
<pdfrwt beam="1">  1        2 0.30268603E+00 0.27383639E+04</pdfrwt>
<pdfrwt beam="2">  1       -2 0.14658963E+00 0.27383639E+04</pdfrwt>
<totfact> 0.19398263E+00</totfact>
</mgrwt>
</event>
<event>
 4    1  0.1295381E-008  0.2091190E+04  0.7816531E-02  0.8565134E-01
         -2   -1    0    0    0  501 -0.00000000000E+00  0.00000000000E+00  0.25626807892E+03  0.25626807892E+03  0.00000000000E+00 0. -1.
          2   -1    0    0  501    0  0.00000000000E+00 -0.00000000000E+00 -0.42661153719E+04  0.42661153719E+04  0.00000000000E+00 0.  1.
    2000013    1    1    2    0    0 -0.22651183850E+02  0.33646594792E+03 -0.14046475069E+04  0.17289467976E+04  0.95000000000E+03 0.  0.
   -2000013    1    1    2    0    0  0.22651183850E+02 -0.33646594792E+03 -0.26051997861E+04  0.27934366532E+04  0.95000000000E+03 0.  0.
<mgrwt>
<rscale>  0 0.20911903E+04</rscale>
<asrwt>0</asrwt>
<pdfrwt beam="2">  1        2 0.65632548E+00 0.20911903E+04</pdfrwt>
<pdfrwt beam="1">  1       -2 0.39425856E-01 0.20911903E+04</pdfrwt>
<totfact> 0.11546438E+00</totfact>
</mgrwt>
</event>
<event>
 4    1  0.1295381E-008  0.3629830E+04  0.7816531E-02  0.8083693E-01
          2   -1    0    0  501    0  0.00000000000E+00  0.00000000000E+00  0.16660527177E+04  0.16660527177E+04  0.00000000000E+00 0.  1.
         -2   -1    0    0    0  501 -0.00000000000E+00 -0.00000000000E+00 -0.19770779914E+04  0.19770779914E+04  0.00000000000E+00 0. -1.
    2000013    1    1    2    0    0  0.11087142957E+03  0.15256810067E+04  0.72080619917E+02  0.18021350182E+04  0.95000000000E+03 0.  0.
   -2000013    1    1    2    0    0 -0.11087142957E+03 -0.15256810067E+04 -0.38310589357E+03  0.18409956909E+04  0.95000000000E+03 0.  0.
<mgrwt>
<rscale>  0 0.36298298E+04</rscale>
<asrwt>0</asrwt>
<pdfrwt beam="1">  1        2 0.25631580E+00 0.36298298E+04</pdfrwt>
<pdfrwt beam="2">  1       -2 0.30416585E+00 0.36298298E+04</pdfrwt>
<totfact> 0.24957136E-01</totfact>
</mgrwt>
</event>
<event>
 4    1  0.1295381E-008  0.2175821E+04  0.7816531E-02  0.8528560E-01
         -2   -1    0    0    0  501 -0.00000000000E+00  0.00000000000E+00  0.48257359157E+03  0.48257359157E+03  0.00000000000E+00 0. -1.
          2   -1    0    0  501    0  0.00000000000E+00 -0.00000000000E+00 -0.24525781575E+04  0.24525781575E+04  0.00000000000E+00 0.  1.
    2000013    1    1    2    0    0  0.26739383723E+03  0.44287425358E+03 -0.82877376724E+03  0.13627189827E+04  0.95000000000E+03 0.  0.
   -2000013    1    1    2    0    0 -0.26739383723E+03 -0.44287425358E+03 -0.11412307987E+04  0.15724327663E+04  0.95000000000E+03 0.  0.
<mgrwt>
<rscale>  0 0.21758212E+04</rscale>
<asrwt>0</asrwt>
<pdfrwt beam="2">  1        2 0.37731971E+00 0.21758212E+04</pdfrwt>
<pdfrwt beam="1">  1       -2 0.74242092E-01 0.21758212E+04</pdfrwt>
<totfact> 0.55468497E+00</totfact>
</mgrwt>
</event>
<event>
 4    1  0.1295381E-008  0.2937711E+04  0.7816531E-02  0.8261745E-01
          2   -1    0    0  501    0  0.00000000000E+00  0.00000000000E+00  0.19558607618E+04  0.19558607618E+04  0.00000000000E+00 0.  1.
         -2   -1    0    0    0  501 -0.00000000000E+00 -0.00000000000E+00 -0.11031134624E+04  0.11031134624E+04  0.00000000000E+00 0. -1.
    2000013    1    1    2    0    0 -0.95002129577E+03 -0.44840613421E+03  0.21173508508E+02  0.14165298589E+04  0.95000000000E+03 0.  0.
   -2000013    1    1    2    0    0  0.95002129577E+03  0.44840613421E+03  0.83157379086E+03  0.16424443654E+04  0.95000000000E+03 0.  0.
<mgrwt>
<rscale>  0 0.29377109E+04</rscale>
<asrwt>0</asrwt>
<pdfrwt beam="1">  1        2 0.30090166E+00 0.29377109E+04</pdfrwt>
<pdfrwt beam="2">  1       -2 0.16970976E+00 0.29377109E+04</pdfrwt>
<totfact> 0.13027743E+00</totfact>
</mgrwt>
</event>
<event>
 4    1  0.1295381E-008  0.2372389E+04  0.7816531E-02  0.8449914E-01
          2   -1    0    0  501    0  0.00000000000E+00  0.00000000000E+00  0.84515821930E+03  0.84515821930E+03  0.00000000000E+00 0.  1.
         -2   -1    0    0    0  501 -0.00000000000E+00 -0.00000000000E+00 -0.16648446318E+04  0.16648446318E+04  0.00000000000E+00 0. -1.
    2000013    1    1    2    0    0  0.20237362441E+03  0.37892092205E+03  0.18867529074E+03  0.10595444844E+04  0.95000000000E+03 0.  0.
   -2000013    1    1    2    0    0 -0.20237362441E+03 -0.37892092205E+03 -0.10083617032E+04  0.14504583667E+04  0.95000000000E+03 0.  0.
<mgrwt>
<rscale>  0 0.23723888E+04</rscale>
<asrwt>0</asrwt>
<pdfrwt beam="1">  1        2 0.13002434E+00 0.23723888E+04</pdfrwt>
<pdfrwt beam="2">  1       -2 0.25612994E+00 0.23723888E+04</pdfrwt>
<totfact> 0.16985095E+00</totfact>
</mgrwt>
</event>
<event>
 4    1  0.1295381E-008  0.2688552E+04  0.7816531E-02  0.8338729E-01
          2   -1    0    0  501    0  0.00000000000E+00  0.00000000000E+00  0.15228625978E+04  0.15228625978E+04  0.00000000000E+00 0.  1.
         -2   -1    0    0    0  501 -0.00000000000E+00 -0.00000000000E+00 -0.11866322731E+04  0.11866322731E+04  0.00000000000E+00 0. -1.
    2000013    1    1    2    0    0 -0.51239948106E+03  0.40137047405E+03  0.86700579185E+03  0.14414751225E+04  0.95000000000E+03 0.  0.
   -2000013    1    1    2    0    0  0.51239948106E+03 -0.40137047405E+03 -0.53077546717E+03  0.12680197483E+04  0.95000000000E+03 0.  0.
<mgrwt>
<rscale>  0 0.26885520E+04</rscale>
<asrwt>0</asrwt>
<pdfrwt beam="1">  1        2 0.23428655E+00 0.26885520E+04</pdfrwt>
<pdfrwt beam="2">  1       -2 0.18255881E+00 0.26885520E+04</pdfrwt>
<totfact> 0.18842505E+00</totfact>
</mgrwt>
</event>
<event>
 4    1  0.1295381E-008  0.2052609E+04  0.7816531E-02  0.8582412E-01
         -2   -1    0    0    0  501 -0.00000000000E+00  0.00000000000E+00  0.12165064404E+04  0.12165064404E+04  0.00000000000E+00 0. -1.
          2   -1    0    0  501    0  0.00000000000E+00 -0.00000000000E+00 -0.86584042800E+03  0.86584042800E+03  0.00000000000E+00 0.  1.
    2000013    1    1    2    0    0 -0.34407834327E+03  0.63945695222E+02  0.34606112637E+03  0.10699239512E+04  0.95000000000E+03 0.  0.
   -2000013    1    1    2    0    0  0.34407834327E+03 -0.63945695222E+02  0.46048860482E+01  0.10124229172E+04  0.95000000000E+03 0.  0.
<mgrwt>
<rscale>  0 0.20526085E+04</rscale>
<asrwt>0</asrwt>
<pdfrwt beam="2">  1        2 0.13320622E+00 0.20526085E+04</pdfrwt>
<pdfrwt beam="1">  1       -2 0.18715484E+00 0.20526085E+04</pdfrwt>
<totfact> 0.46355919E+00</totfact>
</mgrwt>
</event>
<event>
 4    1  0.1295381E-008  0.2255633E+04  0.7816531E-02  0.8495623E-01
         -2   -1    0    0    0  501 -0.00000000000E+00  0.00000000000E+00  0.78796037122E+03  0.78796037122E+03  0.00000000000E+00 0. -1.
          2   -1    0    0  501    0  0.00000000000E+00 -0.00000000000E+00 -0.16142562204E+04  0.16142562204E+04  0.00000000000E+00 0.  1.
    2000013    1    1    2    0    0  0.21036123775E+03  0.41900262169E+03 -0.11555380032E+01  0.10593943471E+04  0.95000000000E+03 0.  0.
   -2000013    1    1    2    0    0 -0.21036123775E+03 -0.41900262169E+03 -0.82514031119E+03  0.13428222446E+04  0.95000000000E+03 0.  0.
<mgrwt>
<rscale>  0 0.22556329E+04</rscale>
<asrwt>0</asrwt>
<pdfrwt beam="2">  1        2 0.24834711E+00 0.22556329E+04</pdfrwt>
<pdfrwt beam="1">  1       -2 0.12122467E+00 0.22556329E+04</pdfrwt>
<totfact> 0.51586489E+00</totfact>
</mgrwt>
</event>
<event>
 4    1  0.1295381E-008  0.2696822E+04  0.7816531E-02  0.8336037E-01
          2   -1    0    0  501    0  0.00000000000E+00  0.00000000000E+00  0.11247389096E+04  0.11247389096E+04  0.00000000000E+00 0.  1.
         -2   -1    0    0    0  501 -0.00000000000E+00 -0.00000000000E+00 -0.16165638115E+04  0.16165638115E+04  0.00000000000E+00 0. -1.
    2000013    1    1    2    0    0  0.74077478277E+03 -0.17032062524E+03 -0.83684060691E+03  0.14766714582E+04  0.95000000000E+03 0.  0.
   -2000013    1    1    2    0    0 -0.74077478277E+03  0.17032062524E+03  0.34501570500E+03  0.12646312628E+04  0.95000000000E+03 0.  0.
<mgrwt>
<rscale>  0 0.26968220E+04</rscale>
<asrwt>0</asrwt>
<pdfrwt beam="1">  1        2 0.17303676E+00 0.26968220E+04</pdfrwt>
<pdfrwt beam="2">  1       -2 0.24870212E+00 0.26968220E+04</pdfrwt>
<totfact> 0.12082103E+00</totfact>
</mgrwt>
</event>
<event>
 4    1  0.1295381E-008  0.3665399E+04  0.7816531E-02  0.8075673E-01
          2   -1    0    0  501    0  0.00000000000E+00  0.00000000000E+00  0.25272176232E+04  0.25272176232E+04  0.00000000000E+00 0.  1.
         -2   -1    0    0    0  501 -0.00000000000E+00 -0.00000000000E+00 -0.13290455738E+04  0.13290455738E+04  0.00000000000E+00 0. -1.
    2000013    1    1    2    0    0 -0.91053371112E+03  0.29170676873E+03 -0.70740042653E+03  0.15221957303E+04  0.95000000000E+03 0.  0.
   -2000013    1    1    2    0    0  0.91053371112E+03 -0.29170676873E+03  0.19055724759E+04  0.23340674666E+04  0.95000000000E+03 0.  0.
<mgrwt>
<rscale>  0 0.36653990E+04</rscale>
<asrwt>0</asrwt>
<pdfrwt beam="1">  1        2 0.38880271E+00 0.36653990E+04</pdfrwt>
<pdfrwt beam="2">  1       -2 0.20446855E+00 0.36653990E+04</pdfrwt>
<totfact> 0.33833547E-01</totfact>
</mgrwt>
</event>
<event>
 4    1  0.1295381E-008  0.3125528E+04  0.7816531E-02  0.8208767E-01
         -1   -1    0    0    0  501 -0.00000000000E+00  0.00000000000E+00  0.11288445571E+04  0.11288445571E+04  0.00000000000E+00 0. -1.
          1   -1    0    0  501    0  0.00000000000E+00 -0.00000000000E+00 -0.21634781606E+04  0.21634781606E+04  0.00000000000E+00 0.  1.
    2000013    1    1    2    0    0  0.85340213213E+03 -0.10278903344E+02 -0.14661235357E+04  0.19443299815E+04  0.95000000000E+03 0.  0.
   -2000013    1    1    2    0    0 -0.85340213213E+03  0.10278903344E+02  0.43148993226E+03  0.13479927361E+04  0.95000000000E+03 0.  0.
<mgrwt>
<rscale>  0 0.31255275E+04</rscale>
<asrwt>0</asrwt>
<pdfrwt beam="2">  1        1 0.33284279E+00 0.31255275E+04</pdfrwt>
<pdfrwt beam="1">  1       -1 0.17366839E+00 0.31255275E+04</pdfrwt>
<totfact> 0.44928606E-01</totfact>
</mgrwt>
</event>
<event>
 4    1  0.1295381E-008  0.2598129E+04  0.7816531E-02  0.8368837E-01
          2   -1    0    0  501    0  0.00000000000E+00  0.00000000000E+00  0.18661911484E+04  0.18661911484E+04  0.00000000000E+00 0.  1.
         -2   -1    0    0    0  501 -0.00000000000E+00 -0.00000000000E+00 -0.90428464848E+03  0.90428464848E+03  0.00000000000E+00 0. -1.
    2000013    1    1    2    0    0 -0.40007405326E+03 -0.27737873683E+03  0.12703796703E+04  0.16593259832E+04  0.95000000000E+03 0.  0.
   -2000013    1    1    2    0    0  0.40007405326E+03  0.27737873683E+03 -0.30847317034E+03  0.11111498137E+04  0.95000000000E+03 0.  0.
<mgrwt>
<rscale>  0 0.25981286E+04</rscale>
<asrwt>0</asrwt>
<pdfrwt beam="1">  1        2 0.28710633E+00 0.25981286E+04</pdfrwt>
<pdfrwt beam="2">  1       -2 0.13912071E+00 0.25981286E+04</pdfrwt>
<totfact> 0.25612267E+00</totfact>
</mgrwt>
</event>
<event>
 4    1  0.1295381E-008  0.2439118E+04  0.7816531E-02  0.8425002E-01
         -1   -1    0    0    0  501 -0.00000000000E+00  0.00000000000E+00  0.11709371328E+04  0.11709371328E+04  0.00000000000E+00 0.  1.
          1   -1    0    0  501    0  0.00000000000E+00 -0.00000000000E+00 -0.12701993436E+04  0.12701993436E+04  0.00000000000E+00 0. -1.
    2000013    1    1    2    0    0 -0.80385840582E+02 -0.73779155410E+03 -0.23424331562E+03  0.12280749943E+04  0.95000000000E+03 0.  0.
   -2000013    1    1    2    0    0  0.80385840582E+02  0.73779155410E+03  0.13498110477E+03  0.12130614821E+04  0.95000000000E+03 0.  0.
<mgrwt>
<rscale>  0 0.24391175E+04</rscale>
<asrwt>0</asrwt>
<pdfrwt beam="2">  1        1 0.19541528E+00 0.24391175E+04</pdfrwt>
<pdfrwt beam="1">  1       -1 0.18014417E+00 0.24391175E+04</pdfrwt>
<totfact> 0.17620298E+00</totfact>
</mgrwt>
</event>
<event>
 4    1  0.1295381E-008  0.2302913E+04  0.7816531E-02  0.8476773E-01
          2   -1    0    0  501    0  0.00000000000E+00  0.00000000000E+00  0.26854295602E+04  0.26854295602E+04  0.00000000000E+00 0.  1.
         -2   -1    0    0    0  501 -0.00000000000E+00 -0.00000000000E+00 -0.49372063211E+03  0.49372063211E+03  0.00000000000E+00 0. -1.
    2000013    1    1    2    0    0  0.29508223148E+03 -0.49118674638E+03  0.67032717719E+03  0.12962162118E+04  0.95000000000E+03 0.  0.
   -2000013    1    1    2    0    0 -0.29508223148E+03  0.49118674638E+03  0.15213817509E+04  0.18829339806E+04  0.95000000000E+03 0.  0.
<mgrwt>
<rscale>  0 0.23029129E+04</rscale>
<asrwt>0</asrwt>
<pdfrwt beam="1">  1        2 0.41314300E+00 0.23029129E+04</pdfrwt>
<pdfrwt beam="2">  1       -2 0.75957022E-01 0.23029129E+04</pdfrwt>
<totfact> 0.38127040E+00</totfact>
</mgrwt>
</event>
<event>
 4    1  0.1295381E-008  0.2730382E+04  0.7816531E-02  0.8325214E-01
         -2   -1    0    0    0  501 -0.00000000000E+00  0.00000000000E+00  0.22772527748E+04  0.22772527748E+04  0.00000000000E+00 0.  1.
          2   -1    0    0  501    0  0.00000000000E+00 -0.00000000000E+00 -0.81841879771E+03  0.81841879771E+03  0.00000000000E+00 0. -1.
    2000013    1    1    2    0    0  0.20265285420E+03  0.95918295531E+03  0.71570065078E+03  0.15413719676E+04  0.95000000000E+03 0.  0.
   -2000013    1    1    2    0    0 -0.20265285420E+03 -0.95918295531E+03  0.74313332633E+03  0.15542996049E+04  0.95000000000E+03 0.  0.
<mgrwt>
<rscale>  0 0.27303820E+04</rscale>
<asrwt>0</asrwt>
<pdfrwt beam="2">  1        2 0.12591058E+00 0.27303820E+04</pdfrwt>
<pdfrwt beam="1">  1       -2 0.35034658E+00 0.27303820E+04</pdfrwt>
<totfact> 0.45264732E-01</totfact>
</mgrwt>
</event>
<event>
 4    1  0.1295381E-008  0.2857144E+04  0.7816531E-02  0.8285744E-01
         -2   -1    0    0    0  501 -0.00000000000E+00  0.00000000000E+00  0.64026219745E+03  0.64026219745E+03  0.00000000000E+00 0. -1.
          2   -1    0    0  501    0  0.00000000000E+00 -0.00000000000E+00 -0.31874723644E+04  0.31874723644E+04  0.00000000000E+00 0.  1.
    2000013    1    1    2    0    0  0.41295424679E+03  0.92272531217E+03 -0.81660047666E+03  0.16097482878E+04  0.95000000000E+03 0.  0.
   -2000013    1    1    2    0    0 -0.41295424679E+03 -0.92272531217E+03 -0.17306096903E+04  0.22179862741E+04  0.95000000000E+03 0.  0.
<mgrwt>
<rscale>  0 0.28571441E+04</rscale>
<asrwt>0</asrwt>
<pdfrwt beam="2">  1        2 0.49038036E+00 0.28571441E+04</pdfrwt>
<pdfrwt beam="1">  1       -2 0.98501878E-01 0.28571441E+04</pdfrwt>
<totfact> 0.97920672E-01</totfact>
</mgrwt>
</event>
<event>
 4    1  0.1295381E-008  0.3058378E+04  0.7816531E-02  0.8227255E-01
          2   -1    0    0  501    0  0.00000000000E+00  0.00000000000E+00  0.83295145890E+03  0.83295145890E+03  0.00000000000E+00 0.  1.
         -2   -1    0    0    0  501 -0.00000000000E+00 -0.00000000000E+00 -0.28073884758E+04  0.28073884758E+04  0.00000000000E+00 0. -1.
    2000013    1    1    2    0    0  0.11712700019E+04  0.22081167698E+03 -0.11343865713E+04  0.18999905545E+04  0.95000000000E+03 0.  0.
   -2000013    1    1    2    0    0 -0.11712700019E+04 -0.22081167698E+03 -0.84005044565E+03  0.17403493802E+04  0.95000000000E+03 0.  0.
<mgrwt>
<rscale>  0 0.30583776E+04</rscale>
<asrwt>0</asrwt>
<pdfrwt beam="1">  1        2 0.12814638E+00 0.30583776E+04</pdfrwt>
<pdfrwt beam="2">  1       -2 0.43190592E+00 0.30583776E+04</pdfrwt>
<totfact> 0.12697432E-01</totfact>
</mgrwt>
</event>
<event>
 4    1  0.1295381E-008  0.1935591E+04  0.7816531E-02  0.8637340E-01
          2   -1    0    0  501    0  0.00000000000E+00  0.00000000000E+00  0.27304112579E+04  0.27304112579E+04  0.00000000000E+00 0.  1.
         -2   -1    0    0    0  501 -0.00000000000E+00 -0.00000000000E+00 -0.34303570460E+03  0.34303570460E+03  0.00000000000E+00 0. -1.
    2000013    1    1    2    0    0  0.41279568040E+02  0.52458870103E+02  0.92016724348E+03  0.13242596769E+04  0.95000000000E+03 0.  0.
   -2000013    1    1    2    0    0 -0.41279568040E+02 -0.52458870103E+02  0.14672083098E+04  0.17491872856E+04  0.95000000000E+03 0.  0.
<mgrwt>
<rscale>  0 0.19355914E+04</rscale>
<asrwt>0</asrwt>
<pdfrwt beam="1">  1        2 0.42006326E+00 0.19355914E+04</pdfrwt>
<pdfrwt beam="2">  1       -2 0.52774726E-01 0.19355914E+04</pdfrwt>
<totfact> 0.80674948E+00</totfact>
</mgrwt>
</event>
<event>
 4    1  0.1295381E-008  0.2361168E+04  0.7816531E-02  0.8454186E-01
          1   -1    0    0  501    0  0.00000000000E+00  0.00000000000E+00  0.54496805304E+03  0.54496805304E+03  0.00000000000E+00 0.  1.
         -1   -1    0    0    0  501 -0.00000000000E+00 -0.00000000000E+00 -0.25575428329E+04  0.25575428329E+04  0.00000000000E+00 0. -1.
    2000013    1    1    2    0    0  0.65897158568E+03  0.23788480469E+03 -0.97852531448E+03  0.15332463997E+04  0.95000000000E+03 0.  0.
   -2000013    1    1    2    0    0 -0.65897158568E+03 -0.23788480469E+03 -0.10340494654E+04  0.15692644863E+04  0.95000000000E+03 0.  0.
<mgrwt>
<rscale>  0 0.23611685E+04</rscale>
<asrwt>0</asrwt>
<pdfrwt beam="1">  1        1 0.83841238E-01 0.23611685E+04</pdfrwt>
<pdfrwt beam="2">  1       -1 0.39346813E+00 0.23611685E+04</pdfrwt>
<totfact> 0.28023837E-01</totfact>
</mgrwt>
</event>
<event>
 4    1  0.1295381E-008  0.2547110E+04  0.7816531E-02  0.8386392E-01
          2   -1    0    0  501    0  0.00000000000E+00  0.00000000000E+00  0.15310149103E+04  0.15310149103E+04  0.00000000000E+00 0.  1.
         -2   -1    0    0    0  501 -0.00000000000E+00 -0.00000000000E+00 -0.10593902462E+04  0.10593902462E+04  0.00000000000E+00 0. -1.
    2000013    1    1    2    0    0  0.75044594068E+03  0.38003550904E+03  0.12512220397E+03  0.12750496712E+04  0.95000000000E+03 0.  0.
   -2000013    1    1    2    0    0 -0.75044594068E+03 -0.38003550904E+03  0.34650246010E+03  0.13153554854E+04  0.95000000000E+03 0.  0.
<mgrwt>
<rscale>  0 0.25471099E+04</rscale>
<asrwt>0</asrwt>
<pdfrwt beam="1">  1        2 0.23554076E+00 0.25471099E+04</pdfrwt>
<pdfrwt beam="2">  1       -2 0.16298311E+00 0.25471099E+04</pdfrwt>
<totfact> 0.25945161E+00</totfact>
</mgrwt>
</event>
<event>
 4    1  0.1295381E-008  0.1996193E+04  0.7816531E-02  0.8608403E-01
          2   -1    0    0  501    0  0.00000000000E+00  0.00000000000E+00  0.15504230957E+04  0.15504230957E+04  0.00000000000E+00 0.  1.
         -2   -1    0    0    0  501 -0.00000000000E+00 -0.00000000000E+00 -0.64253222541E+03  0.64253222541E+03  0.00000000000E+00 0. -1.
    2000013    1    1    2    0    0 -0.16196034310E+03  0.25738529383E+03  0.41559830947E+03  0.10806018217E+04  0.95000000000E+03 0.  0.
   -2000013    1    1    2    0    0  0.16196034310E+03 -0.25738529383E+03  0.49229256082E+03  0.11123534994E+04  0.95000000000E+03 0.  0.
<mgrwt>
<rscale>  0 0.19961932E+04</rscale>
<asrwt>0</asrwt>
<pdfrwt beam="1">  1        2 0.23852663E+00 0.19961932E+04</pdfrwt>
<pdfrwt beam="2">  1       -2 0.98851112E-01 0.19961932E+04</pdfrwt>
<totfact> 0.93808113E+00</totfact>
</mgrwt>
</event>
<event>
 4    1  0.1295381E-008  0.2079678E+04  0.7816531E-02  0.8570248E-01
          2   -1    0    0  501    0  0.00000000000E+00  0.00000000000E+00  0.23260339402E+04  0.23260339402E+04  0.00000000000E+00 0. -1.
         -2   -1    0    0    0  501 -0.00000000000E+00 -0.00000000000E+00 -0.46485364097E+03  0.46485364097E+03  0.00000000000E+00 0.  1.
    2000013    1    1    2    0    0  0.34094178962E+03 -0.53780452327E+00  0.12661490207E+04  0.16192204716E+04  0.95000000000E+03 0.  0.
   -2000013    1    1    2    0    0 -0.34094178962E+03  0.53780452327E+00  0.59503127852E+03  0.11716671095E+04  0.95000000000E+03 0.  0.
<mgrwt>
<rscale>  0 0.20796782E+04</rscale>
<asrwt>0</asrwt>
<pdfrwt beam="1">  1        2 0.35785137E+00 0.20796782E+04</pdfrwt>
<pdfrwt beam="2">  1       -2 0.71515946E-01 0.20796782E+04</pdfrwt>
<totfact> 0.71743479E+00</totfact>
</mgrwt>
</event>
<event>
 4    1  0.1295381E-008  0.2606696E+04  0.7816531E-02  0.8365930E-01
          2   -1    0    0  501    0  0.00000000000E+00  0.00000000000E+00  0.20543292051E+04  0.20543292051E+04  0.00000000000E+00 0.  1.
         -2   -1    0    0    0  501 -0.00000000000E+00 -0.00000000000E+00 -0.82689587837E+03  0.82689587837E+03  0.00000000000E+00 0. -1.
    2000013    1    1    2    0    0  0.61062717146E+03 -0.60497429739E+03  0.87843232021E+03  0.15533843002E+04  0.95000000000E+03 0.  0.
   -2000013    1    1    2    0    0 -0.61062717146E+03  0.60497429739E+03  0.34900100650E+03  0.13278407832E+04  0.95000000000E+03 0.  0.
<mgrwt>
<rscale>  0 0.26066963E+04</rscale>
<asrwt>0</asrwt>
<pdfrwt beam="1">  1        2 0.31605065E+00 0.26066963E+04</pdfrwt>
<pdfrwt beam="2">  1       -2 0.12721475E+00 0.26066963E+04</pdfrwt>
<totfact> 0.25272041E+00</totfact>
</mgrwt>
</event>
<event>
 4    1  0.1295381E-008  0.2716972E+04  0.7816531E-02  0.8329519E-01
         -1   -1    0    0    0  501 -0.00000000000E+00  0.00000000000E+00  0.12094670109E+04  0.12094670109E+04  0.00000000000E+00 0. -1.
          1   -1    0    0  501    0  0.00000000000E+00 -0.00000000000E+00 -0.15258656261E+04  0.15258656261E+04  0.00000000000E+00 0.  1.
    2000013    1    1    2    0    0 -0.82207543307E+03  0.42065211225E+03  0.14421021848E+03  0.13326863113E+04  0.95000000000E+03 0.  0.
   -2000013    1    1    2    0    0  0.82207543307E+03 -0.42065211225E+03 -0.46060883373E+03  0.14026463257E+04  0.95000000000E+03 0.  0.
<mgrwt>
<rscale>  0 0.27169719E+04</rscale>
<asrwt>0</asrwt>
<pdfrwt beam="2">  1        1 0.23474856E+00 0.27169719E+04</pdfrwt>
<pdfrwt beam="1">  1       -1 0.18607185E+00 0.27169719E+04</pdfrwt>
<totfact> 0.10308653E+00</totfact>
</mgrwt>
</event>
<event>
 4    1  0.1295381E-008  0.2271528E+04  0.7816531E-02  0.8489232E-01
          2   -1    0    0  501    0  0.00000000000E+00  0.00000000000E+00  0.24952652803E+04  0.24952652803E+04  0.00000000000E+00 0.  1.
         -2   -1    0    0    0  501 -0.00000000000E+00 -0.00000000000E+00 -0.51696323924E+03  0.51696323924E+03  0.00000000000E+00 0. -1.
    2000013    1    1    2    0    0  0.47888172931E+03 -0.95634347821E+01  0.46197583631E+03  0.11598882891E+04  0.95000000000E+03 0.  0.
   -2000013    1    1    2    0    0 -0.47888172931E+03  0.95634347821E+01  0.15163262047E+04  0.18523402304E+04  0.95000000000E+03 0.  0.
<mgrwt>
<rscale>  0 0.22715285E+04</rscale>
<asrwt>0</asrwt>
<pdfrwt beam="1">  1        2 0.38388696E+00 0.22715285E+04</pdfrwt>
<pdfrwt beam="2">  1       -2 0.79532808E-01 0.22715285E+04</pdfrwt>
<totfact> 0.44588088E+00</totfact>
</mgrwt>
</event>
<event>
 4    1  0.1295381E-008  0.2619188E+04  0.7816531E-02  0.8361713E-01
          2   -1    0    0  501    0  0.00000000000E+00  0.00000000000E+00  0.22408078385E+04  0.22408078385E+04  0.00000000000E+00 0.  1.
         -2   -1    0    0    0  501 -0.00000000000E+00 -0.00000000000E+00 -0.76536496573E+03  0.76536496573E+03  0.00000000000E+00 0. -1.
    2000013    1    1    2    0    0 -0.62178823520E+03 -0.17476158811E+03  0.16030620690E+02  0.11488773663E+04  0.95000000000E+03 0.  0.
   -2000013    1    1    2    0    0  0.62178823520E+03  0.17476158811E+03  0.14594122521E+04  0.18572954379E+04  0.95000000000E+03 0.  0.
<mgrwt>
<rscale>  0 0.26191875E+04</rscale>
<asrwt>0</asrwt>
<pdfrwt beam="1">  1        2 0.34473966E+00 0.26191875E+04</pdfrwt>
<pdfrwt beam="2">  1       -2 0.11774846E+00 0.26191875E+04</pdfrwt>
<totfact> 0.24066794E+00</totfact>
</mgrwt>
</event>
<event>
 4    1  0.1295381E-008  0.3006481E+04  0.7816531E-02  0.8241883E-01
          2   -1    0    0  501    0  0.00000000000E+00  0.00000000000E+00  0.62713335860E+03  0.62713335860E+03  0.00000000000E+00 0.  1.
         -2   -1    0    0    0  501 -0.00000000000E+00 -0.00000000000E+00 -0.36032708584E+04  0.36032708584E+04  0.00000000000E+00 0. -1.
    2000013    1    1    2    0    0  0.70565520816E+03  0.84482284910E+03 -0.20249017090E+04  0.24928702033E+04  0.95000000000E+03 0.  0.
   -2000013    1    1    2    0    0 -0.70565520816E+03 -0.84482284910E+03 -0.95123579076E+03  0.17375340137E+04  0.95000000000E+03 0.  0.
<mgrwt>
<rscale>  0 0.30064806E+04</rscale>
<asrwt>0</asrwt>
<pdfrwt beam="1">  1        2 0.96482056E-01 0.30064806E+04</pdfrwt>
<pdfrwt beam="2">  1       -2 0.55434936E+00 0.30064806E+04</pdfrwt>
<totfact> 0.32350962E-02</totfact>
</mgrwt>
</event>
<event>
 4    1  0.1295381E-008  0.2598183E+04  0.7816531E-02  0.8368819E-01
          2   -1    0    0  501    0  0.00000000000E+00  0.00000000000E+00  0.30594119413E+04  0.30594119413E+04  0.00000000000E+00 0.  1.
         -2   -1    0    0    0  501 -0.00000000000E+00 -0.00000000000E+00 -0.55162189916E+03  0.55162189916E+03  0.00000000000E+00 0. -1.
    2000013    1    1    2    0    0 -0.80203477344E+03 -0.31292984883E+03  0.96251495514E+03  0.16031593517E+04  0.95000000000E+03 0.  0.
   -2000013    1    1    2    0    0  0.80203477344E+03  0.31292984883E+03  0.15452750870E+04  0.20078744888E+04  0.95000000000E+03 0.  0.
<mgrwt>
<rscale>  0 0.25981829E+04</rscale>
<asrwt>0</asrwt>
<pdfrwt beam="1">  1        2 0.47067875E+00 0.25981829E+04</pdfrwt>
<pdfrwt beam="2">  1       -2 0.84864909E-01 0.25981829E+04</pdfrwt>
<totfact> 0.17086945E+00</totfact>
</mgrwt>
</event>
<event>
 4    1  0.1295381E-008  0.4619042E+04  0.7816531E-02  0.7890121E-01
          2   -1    0    0  501    0  0.00000000000E+00  0.00000000000E+00  0.24615144121E+04  0.24615144121E+04  0.00000000000E+00 0.  1.
         -2   -1    0    0    0  501 -0.00000000000E+00 -0.00000000000E+00 -0.21669130558E+04  0.21669130558E+04  0.00000000000E+00 0. -1.
    2000013    1    1    2    0    0 -0.18741121818E+04 -0.94162693663E+03 -0.33148426426E+02  0.23027280725E+04  0.95000000000E+03 0.  0.
   -2000013    1    1    2    0    0  0.18741121818E+04  0.94162693663E+03  0.32774978269E+03  0.23256993954E+04  0.95000000000E+03 0.  0.
<mgrwt>
<rscale>  0 0.46190422E+04</rscale>
<asrwt>0</asrwt>
<pdfrwt beam="1">  1        2 0.37869452E+00 0.46190422E+04</pdfrwt>
<pdfrwt beam="2">  1       -2 0.33337124E+00 0.46190422E+04</pdfrwt>
<totfact> 0.54392688E-02</totfact>
</mgrwt>
</event>
<event>
 4    1  0.1295381E-008  0.2399348E+04  0.7816531E-02  0.8439748E-01
          1   -1    0    0  501    0  0.00000000000E+00  0.00000000000E+00  0.86753888165E+03  0.86753888165E+03  0.00000000000E+00 0.  1.
         -1   -1    0    0    0  501 -0.00000000000E+00 -0.00000000000E+00 -0.16589662945E+04  0.16589662945E+04  0.00000000000E+00 0. -1.
    2000013    1    1    2    0    0 -0.73002087130E+03  0.36207886509E+02 -0.34331424345E+03  0.12468384632E+04  0.95000000000E+03 0.  0.
   -2000013    1    1    2    0    0  0.73002087130E+03 -0.36207886509E+02 -0.44811316938E+03  0.12796667129E+04  0.95000000000E+03 0.  0.
<mgrwt>
<rscale>  0 0.23993480E+04</rscale>
<asrwt>0</asrwt>
<pdfrwt beam="1">  1        1 0.13346752E+00 0.23993480E+04</pdfrwt>
<pdfrwt beam="2">  1       -1 0.25522558E+00 0.23993480E+04</pdfrwt>
<totfact> 0.11181644E+00</totfact>
</mgrwt>
</event>
<event>
 4    1  0.1295381E-008  0.2218174E+04  0.7816531E-02  0.8510902E-01
         -2   -1    0    0    0  501 -0.00000000000E+00  0.00000000000E+00  0.70528645653E+03  0.70528645653E+03  0.00000000000E+00 0. -1.
          2   -1    0    0  501    0  0.00000000000E+00 -0.00000000000E+00 -0.17440772935E+04  0.17440772935E+04  0.00000000000E+00 0.  1.
    2000013    1    1    2    0    0  0.30234465961E+02 -0.55137033715E+03 -0.35320779191E+03  0.11542006394E+04  0.95000000000E+03 0.  0.
   -2000013    1    1    2    0    0 -0.30234465961E+02  0.55137033715E+03 -0.68558304508E+03  0.12951631107E+04  0.95000000000E+03 0.  0.
<mgrwt>
<rscale>  0 0.22181741E+04</rscale>
<asrwt>0</asrwt>
<pdfrwt beam="2">  1        2 0.26831958E+00 0.22181741E+04</pdfrwt>
<pdfrwt beam="1">  1       -2 0.10850561E+00 0.22181741E+04</pdfrwt>
<totfact> 0.57453291E+00</totfact>
</mgrwt>
</event>
<event>
 4    1  0.1295381E-008  0.2152525E+04  0.7816531E-02  0.8538452E-01
         -2   -1    0    0    0  501 -0.00000000000E+00  0.00000000000E+00  0.48528936387E+03  0.48528936387E+03  0.00000000000E+00 0. -1.
          2   -1    0    0  501    0  0.00000000000E+00 -0.00000000000E+00 -0.23869068655E+04  0.23869068655E+04  0.00000000000E+00 0.  1.
    2000013    1    1    2    0    0  0.27405931428E+03 -0.35058150707E+03 -0.62994374235E+03  0.12236605000E+04  0.95000000000E+03 0.  0.
   -2000013    1    1    2    0    0 -0.27405931428E+03  0.35058150707E+03 -0.12716737593E+04  0.16485357294E+04  0.95000000000E+03 0.  0.
<mgrwt>
<rscale>  0 0.21525246E+04</rscale>
<asrwt>0</asrwt>
<pdfrwt beam="2">  1        2 0.36721644E+00 0.21525246E+04</pdfrwt>
<pdfrwt beam="1">  1       -2 0.74659903E-01 0.21525246E+04</pdfrwt>
<totfact> 0.59868799E+00</totfact>
</mgrwt>
</event>
<event>
 4    1  0.1295381E-008  0.2168143E+04  0.7816531E-02  0.8531806E-01
         -2   -1    0    0    0  501 -0.00000000000E+00  0.00000000000E+00  0.66147341501E+03  0.66147341501E+03  0.00000000000E+00 0. -1.
          2   -1    0    0  501    0  0.00000000000E+00 -0.00000000000E+00 -0.17766557023E+04  0.17766557023E+04  0.00000000000E+00 0.  1.
    2000013    1    1    2    0    0  0.43011661238E+03 -0.25608106841E+03 -0.72488734426E+03  0.12955846077E+04  0.95000000000E+03 0.  0.
   -2000013    1    1    2    0    0 -0.43011661238E+03  0.25608106841E+03 -0.39029494301E+03  0.11425445096E+04  0.95000000000E+03 0.  0.
<mgrwt>
<rscale>  0 0.21681425E+04</rscale>
<asrwt>0</asrwt>
<pdfrwt beam="2">  1        2 0.27333164E+00 0.21681425E+04</pdfrwt>
<pdfrwt beam="1">  1       -2 0.10176514E+00 0.21681425E+04</pdfrwt>
<totfact> 0.64551830E+00</totfact>
</mgrwt>
</event>
<event>
 4    1  0.1295381E-008  0.2026082E+04  0.7816531E-02  0.8594523E-01
         -2   -1    0    0    0  501 -0.00000000000E+00  0.00000000000E+00  0.92373992416E+03  0.92373992416E+03  0.00000000000E+00 0. -1.
          2   -1    0    0  501    0  0.00000000000E+00 -0.00000000000E+00 -0.11109752475E+04  0.11109752475E+04  0.00000000000E+00 0.  1.
    2000013    1    1    2    0    0  0.10113373543E+03  0.31133969958E+03 -0.22297547795E+03  0.10292611451E+04  0.95000000000E+03 0.  0.
   -2000013    1    1    2    0    0 -0.10113373543E+03 -0.31133969958E+03  0.35740154585E+02  0.10054540266E+04  0.95000000000E+03 0.  0.
<mgrwt>
<rscale>  0 0.20260821E+04</rscale>
<asrwt>0</asrwt>
<pdfrwt beam="2">  1        2 0.17091927E+00 0.20260821E+04</pdfrwt>
<pdfrwt beam="1">  1       -2 0.14211383E+00 0.20260821E+04</pdfrwt>
<totfact> 0.68687796E+00</totfact>
</mgrwt>
</event>
<event>
 4    1  0.1295381E-008  0.2604573E+04  0.7816531E-02  0.8366650E-01
          2   -1    0    0  501    0  0.00000000000E+00  0.00000000000E+00  0.13478800589E+04  0.13478800589E+04  0.00000000000E+00 0.  1.
         -2   -1    0    0    0  501 -0.00000000000E+00 -0.00000000000E+00 -0.12582350214E+04  0.12582350214E+04  0.00000000000E+00 0. -1.
    2000013    1    1    2    0    0  0.80667987629E+03 -0.33989995061E+03  0.20980039607E+03  0.13087324423E+04  0.95000000000E+03 0.  0.
   -2000013    1    1    2    0    0 -0.80667987629E+03  0.33989995061E+03 -0.12015535850E+03  0.12973826380E+04  0.95000000000E+03 0.  0.
<mgrwt>
<rscale>  0 0.26045728E+04</rscale>
<asrwt>0</asrwt>
<pdfrwt beam="1">  1        2 0.20736616E+00 0.26045728E+04</pdfrwt>
<pdfrwt beam="2">  1       -2 0.19357462E+00 0.26045728E+04</pdfrwt>
<totfact> 0.20113475E+00</totfact>
</mgrwt>
</event>
<event>
 4    1  0.1295381E-008  0.2398755E+04  0.7816531E-02  0.8439970E-01
          2   -1    0    0  501    0  0.00000000000E+00  0.00000000000E+00  0.10418971021E+04  0.10418971021E+04  0.00000000000E+00 0.  1.
         -2   -1    0    0    0  501 -0.00000000000E+00 -0.00000000000E+00 -0.13806608255E+04  0.13806608255E+04  0.00000000000E+00 0. -1.
    2000013    1    1    2    0    0 -0.49066722679E+03 -0.99710880666E+02  0.37006255092E+03  0.11358445663E+04  0.95000000000E+03 0.  0.
   -2000013    1    1    2    0    0  0.49066722679E+03  0.99710880666E+02 -0.70882627427E+03  0.12867133613E+04  0.95000000000E+03 0.  0.
<mgrwt>
<rscale>  0 0.23987551E+04</rscale>
<asrwt>0</asrwt>
<pdfrwt beam="1">  1        2 0.16029186E+00 0.23987551E+04</pdfrwt>
<pdfrwt beam="2">  1       -2 0.21240936E+00 0.23987551E+04</pdfrwt>
<totfact> 0.23532242E+00</totfact>
</mgrwt>
</event>
<event>
 4    1  0.1295381E-008  0.3854245E+04  0.7816531E-02  0.8034613E-01
          2   -1    0    0  501    0  0.00000000000E+00  0.00000000000E+00  0.19077881629E+04  0.19077881629E+04  0.00000000000E+00 0.  1.
         -2   -1    0    0    0  501 -0.00000000000E+00 -0.00000000000E+00 -0.19466526629E+04  0.19466526629E+04  0.00000000000E+00 0. -1.
    2000013    1    1    2    0    0 -0.14920320854E+04 -0.44640884283E+03 -0.64064038123E+03  0.19334840824E+04  0.95000000000E+03 0.  0.
   -2000013    1    1    2    0    0  0.14920320854E+04  0.44640884283E+03  0.60177588118E+03  0.19209567434E+04  0.95000000000E+03 0.  0.
<mgrwt>
<rscale>  0 0.38542449E+04</rscale>
<asrwt>0</asrwt>
<pdfrwt beam="1">  1        2 0.29350587E+00 0.38542449E+04</pdfrwt>
<pdfrwt beam="2">  1       -2 0.29948503E+00 0.38542449E+04</pdfrwt>
<totfact> 0.19213888E-01</totfact>
</mgrwt>
</event>
<event>
 4    1  0.1295381E-008  0.2473346E+04  0.7816531E-02  0.8412543E-01
         -2   -1    0    0    0  501 -0.00000000000E+00  0.00000000000E+00  0.94689080004E+03  0.94689080004E+03  0.00000000000E+00 0. -1.
          2   -1    0    0  501    0  0.00000000000E+00 -0.00000000000E+00 -0.16151387025E+04  0.16151387025E+04  0.00000000000E+00 0.  1.
    2000013    1    1    2    0    0  0.33552880225E+03  0.25271410015E+03 -0.10293181952E+04  0.14623405693E+04  0.95000000000E+03 0.  0.
   -2000013    1    1    2    0    0 -0.33552880225E+03 -0.25271410015E+03  0.36107029277E+03  0.10996889332E+04  0.95000000000E+03 0.  0.
<mgrwt>
<rscale>  0 0.24733459E+04</rscale>
<asrwt>0</asrwt>
<pdfrwt beam="2">  1        2 0.24848287E+00 0.24733459E+04</pdfrwt>
<pdfrwt beam="1">  1       -2 0.14567551E+00 0.24733459E+04</pdfrwt>
<totfact> 0.31647954E+00</totfact>
</mgrwt>
</event>
<event>
 4    1  0.1295381E-008  0.4030944E+04  0.7816531E-02  0.7998333E-01
          2   -1    0    0  501    0  0.00000000000E+00  0.00000000000E+00  0.20878785167E+04  0.20878785167E+04  0.00000000000E+00 0.  1.
         -2   -1    0    0    0  501 -0.00000000000E+00 -0.00000000000E+00 -0.19455763811E+04  0.19455763811E+04  0.00000000000E+00 0. -1.
    2000013    1    1    2    0    0 -0.80437926967E+03  0.14558525555E+04  0.69851408436E+03  0.20388611034E+04  0.95000000000E+03 0.  0.
   -2000013    1    1    2    0    0  0.80437926967E+03 -0.14558525555E+04 -0.55621194867E+03  0.19945937944E+04  0.95000000000E+03 0.  0.
<mgrwt>
<rscale>  0 0.40309439E+04</rscale>
<asrwt>0</asrwt>
<pdfrwt beam="1">  1        2 0.32121208E+00 0.40309439E+04</pdfrwt>
<pdfrwt beam="2">  1       -2 0.29931944E+00 0.40309439E+04</pdfrwt>
<totfact> 0.15071640E-01</totfact>
</mgrwt>
</event>
<event>
 4    1  0.1295381E-008  0.2127137E+04  0.7816531E-02  0.8549383E-01
         -2   -1    0    0    0  501 -0.00000000000E+00  0.00000000000E+00  0.12678135101E+04  0.12678135101E+04  0.00000000000E+00 0. -1.
          2   -1    0    0  501    0  0.00000000000E+00 -0.00000000000E+00 -0.89222741746E+03  0.89222741746E+03  0.00000000000E+00 0.  1.
    2000013    1    1    2    0    0  0.13367657463E+03 -0.33592662874E+03 -0.13003703410E+03  0.10247564378E+04  0.95000000000E+03 0.  0.
   -2000013    1    1    2    0    0 -0.13367657463E+03  0.33592662874E+03  0.50562312675E+03  0.11352844898E+04  0.95000000000E+03 0.  0.
<mgrwt>
<rscale>  0 0.21271370E+04</rscale>
<asrwt>0</asrwt>
<pdfrwt beam="2">  1        2 0.13726576E+00 0.21271370E+04</pdfrwt>
<pdfrwt beam="1">  1       -2 0.19504823E+00 0.21271370E+04</pdfrwt>
<totfact> 0.39124434E+00</totfact>
</mgrwt>
</event>
<event>
 4    1  0.1295381E-008  0.2482061E+04  0.7816531E-02  0.8409404E-01
          2   -1    0    0  501    0  0.00000000000E+00  0.00000000000E+00  0.14061200292E+04  0.14061200292E+04  0.00000000000E+00 0.  1.
         -2   -1    0    0    0  501 -0.00000000000E+00 -0.00000000000E+00 -0.10953236025E+04  0.10953236025E+04  0.00000000000E+00 0. -1.
    2000013    1    1    2    0    0  0.87531247622E+02  0.78405073943E+03  0.27989089625E+03  0.12661896363E+04  0.95000000000E+03 0.  0.
   -2000013    1    1    2    0    0 -0.87531247622E+02 -0.78405073943E+03  0.30905530394E+02  0.12352539954E+04  0.95000000000E+03 0.  0.
<mgrwt>
<rscale>  0 0.24820608E+04</rscale>
<asrwt>0</asrwt>
<pdfrwt beam="1">  1        2 0.21632616E+00 0.24820608E+04</pdfrwt>
<pdfrwt beam="2">  1       -2 0.16851132E+00 0.24820608E+04</pdfrwt>
<totfact> 0.28006951E+00</totfact>
</mgrwt>
</event>
<event>
 4    1  0.1295381E-008  0.2935603E+04  0.7816531E-02  0.8262363E-01
          1   -1    0    0  501    0  0.00000000000E+00  0.00000000000E+00  0.21983305893E+04  0.21983305893E+04  0.00000000000E+00 0.  1.
         -1   -1    0    0    0  501 -0.00000000000E+00 -0.00000000000E+00 -0.98003501769E+03  0.98003501769E+03  0.00000000000E+00 0. -1.
    2000013    1    1    2    0    0  0.86278255845E+03 -0.11291822001E+03 -0.15243996708E+03  0.12972595003E+04  0.95000000000E+03 0.  0.
   -2000013    1    1    2    0    0 -0.86278255845E+03  0.11291822001E+03  0.13707355387E+04  0.18811061067E+04  0.95000000000E+03 0.  0.
<mgrwt>
<rscale>  0 0.29356028E+04</rscale>
<asrwt>0</asrwt>
<pdfrwt beam="1">  1        1 0.33820470E+00 0.29356028E+04</pdfrwt>
<pdfrwt beam="2">  1       -1 0.15077462E+00 0.29356028E+04</pdfrwt>
<totfact> 0.64302953E-01</totfact>
</mgrwt>
</event>
<event>
 4    1  0.1295381E-008  0.2062404E+04  0.7816531E-02  0.8577988E-01
          2   -1    0    0  501    0  0.00000000000E+00  0.00000000000E+00  0.18939601429E+04  0.18939601429E+04  0.00000000000E+00 0. -1.
         -2   -1    0    0    0  501 -0.00000000000E+00 -0.00000000000E+00 -0.56145724272E+03  0.56145724272E+03  0.00000000000E+00 0.  1.
    2000013    1    1    2    0    0  0.17305987875E+03  0.35271184948E+03  0.76240181364E+03  0.12798874544E+04  0.95000000000E+03 0.  0.
   -2000013    1    1    2    0    0 -0.17305987875E+03 -0.35271184948E+03  0.57010108652E+03  0.11755299312E+04  0.95000000000E+03 0.  0.
<mgrwt>
<rscale>  0 0.20624041E+04</rscale>
<asrwt>0</asrwt>
<pdfrwt beam="1">  1        2 0.29137848E+00 0.20624041E+04</pdfrwt>
<pdfrwt beam="2">  1       -2 0.86378038E-01 0.20624041E+04</pdfrwt>
<totfact> 0.82151120E+00</totfact>
</mgrwt>
</event>
<event>
 4    1  0.1295381E-008  0.2247123E+04  0.7816531E-02  0.8499067E-01
          2   -1    0    0  501    0  0.00000000000E+00  0.00000000000E+00  0.30277805760E+04  0.30277805760E+04  0.00000000000E+00 0.  1.
         -2   -1    0    0    0  501 -0.00000000000E+00 -0.00000000000E+00 -0.41693573369E+03  0.41693573369E+03  0.00000000000E+00 0. -1.
    2000013    1    1    2    0    0  0.63762528642E+02 -0.58842234095E+03  0.14554899106E+04  0.18360984155E+04  0.95000000000E+03 0.  0.
   -2000013    1    1    2    0    0 -0.63762528642E+02  0.58842234095E+03  0.11553549317E+04  0.16086178942E+04  0.95000000000E+03 0.  0.
<mgrwt>
<rscale>  0 0.22471225E+04</rscale>
<asrwt>0</asrwt>
<pdfrwt beam="1">  1        2 0.46581238E+00 0.22471225E+04</pdfrwt>
<pdfrwt beam="2">  1       -2 0.64143961E-01 0.22471225E+04</pdfrwt>
<totfact> 0.34244719E+00</totfact>
</mgrwt>
</event>
<event>
 4    1  0.1295381E-008  0.2829845E+04  0.7816531E-02  0.8294062E-01
         -2   -1    0    0    0  501 -0.00000000000E+00  0.00000000000E+00  0.97616875599E+03  0.97616875599E+03  0.00000000000E+00 0. -1.
          2   -1    0    0  501    0  0.00000000000E+00 -0.00000000000E+00 -0.20508802058E+04  0.20508802058E+04  0.00000000000E+00 0.  1.
    2000013    1    1    2    0    0  0.69458116878E+03  0.72639811581E+03 -0.21750677001E+03  0.13999665773E+04  0.95000000000E+03 0.  0.
   -2000013    1    1    2    0    0 -0.69458116878E+03 -0.72639811581E+03 -0.85720467975E+03  0.16270823844E+04  0.95000000000E+03 0.  0.
<mgrwt>
<rscale>  0 0.28298446E+04</rscale>
<asrwt>0</asrwt>
<pdfrwt beam="2">  1        2 0.31552003E+00 0.28298446E+04</pdfrwt>
<pdfrwt beam="1">  1       -2 0.15017981E+00 0.28298446E+04</pdfrwt>
<totfact> 0.16227442E+00</totfact>
</mgrwt>
</event>
<event>
 4    1  0.1295381E-008  0.2183605E+04  0.7816531E-02  0.8525283E-01
         -2   -1    0    0    0  501 -0.00000000000E+00  0.00000000000E+00  0.45916292561E+03  0.45916292561E+03  0.00000000000E+00 0. -1.
          2   -1    0    0  501    0  0.00000000000E+00 -0.00000000000E+00 -0.25960995423E+04  0.25960995423E+04  0.00000000000E+00 0.  1.
    2000013    1    1    2    0    0  0.40936097974E+02 -0.49823221001E+03 -0.78995865852E+03  0.13328337411E+04  0.95000000000E+03 0.  0.
   -2000013    1    1    2    0    0 -0.40936097974E+02  0.49823221001E+03 -0.13469779582E+04  0.17224287269E+04  0.95000000000E+03 0.  0.
<mgrwt>
<rscale>  0 0.21836050E+04</rscale>
<asrwt>0</asrwt>
<pdfrwt beam="2">  1        2 0.39939993E+00 0.21836050E+04</pdfrwt>
<pdfrwt beam="1">  1       -2 0.70640450E-01 0.21836050E+04</pdfrwt>
<totfact> 0.51038894E+00</totfact>
</mgrwt>
</event>
<event>
 4    1  0.1295381E-008  0.3489552E+04  0.7816531E-02  0.8116270E-01
         -2   -1    0    0    0  501 -0.00000000000E+00  0.00000000000E+00  0.11512800653E+04  0.11512800653E+04  0.00000000000E+00 0. -1.
          2   -1    0    0  501    0  0.00000000000E+00 -0.00000000000E+00 -0.26442254352E+04  0.26442254352E+04  0.00000000000E+00 0.  1.
    2000013    1    1    2    0    0  0.95590827718E+02 -0.14569721549E+04 -0.63858651434E+03  0.18553162003E+04  0.95000000000E+03 0.  0.
   -2000013    1    1    2    0    0 -0.95590827718E+02  0.14569721549E+04 -0.85435885556E+03  0.19401893002E+04  0.95000000000E+03 0.  0.
<mgrwt>
<rscale>  0 0.34895524E+04</rscale>
<asrwt>0</asrwt>
<pdfrwt beam="2">  1        2 0.40680391E+00 0.34895524E+04</pdfrwt>
<pdfrwt beam="1">  1       -2 0.17712001E+00 0.34895524E+04</pdfrwt>
<totfact> 0.44742166E-01</totfact>
</mgrwt>
</event>
<event>
 4    1  0.1295381E-008  0.3728429E+04  0.7816531E-02  0.8061691E-01
          2   -1    0    0  501    0  0.00000000000E+00  0.00000000000E+00  0.20872879618E+04  0.20872879618E+04  0.00000000000E+00 0.  1.
         -2   -1    0    0    0  501 -0.00000000000E+00 -0.00000000000E+00 -0.16649812544E+04  0.16649812544E+04  0.00000000000E+00 0. -1.
    2000013    1    1    2    0    0  0.94452273237E+03  0.11089313706E+04 -0.46466367554E+03  0.18000734174E+04  0.95000000000E+03 0.  0.
   -2000013    1    1    2    0    0 -0.94452273237E+03 -0.11089313706E+04  0.88697038293E+03  0.19521957988E+04  0.95000000000E+03 0.  0.
<mgrwt>
<rscale>  0 0.37284288E+04</rscale>
<asrwt>0</asrwt>
<pdfrwt beam="1">  1        2 0.32112123E+00 0.37284288E+04</pdfrwt>
<pdfrwt beam="2">  1       -2 0.25615096E+00 0.37284288E+04</pdfrwt>
<totfact> 0.28378258E-01</totfact>
</mgrwt>
</event>
<event>
 4    1  0.1295381E-008  0.2605699E+04  0.7816531E-02  0.8366268E-01
         -2   -1    0    0    0  501 -0.00000000000E+00  0.00000000000E+00  0.13451532094E+04  0.13451532094E+04  0.00000000000E+00 0. -1.
          2   -1    0    0  501    0  0.00000000000E+00 -0.00000000000E+00 -0.12618762072E+04  0.12618762072E+04  0.00000000000E+00 0.  1.
    2000013    1    1    2    0    0 -0.42585297283E+03 -0.77654891035E+03 -0.61068017103E+02  0.13002339279E+04  0.95000000000E+03 0.  0.
   -2000013    1    1    2    0    0  0.42585297283E+03  0.77654891035E+03  0.14434501929E+03  0.13067954887E+04  0.95000000000E+03 0.  0.
<mgrwt>
<rscale>  0 0.26056990E+04</rscale>
<asrwt>0</asrwt>
<pdfrwt beam="2">  1        2 0.19413480E+00 0.26056990E+04</pdfrwt>
<pdfrwt beam="1">  1       -2 0.20694665E+00 0.26056990E+04</pdfrwt>
<totfact> 0.18439182E+00</totfact>
</mgrwt>
</event>
<event>
 4    1  0.1295381E-008  0.2484521E+04  0.7816531E-02  0.8408521E-01
         -2   -1    0    0    0  501 -0.00000000000E+00  0.00000000000E+00  0.11116883338E+04  0.11116883338E+04  0.00000000000E+00 0. -1.
          2   -1    0    0  501    0  0.00000000000E+00 -0.00000000000E+00 -0.13881689287E+04  0.13881689287E+04  0.00000000000E+00 0.  1.
    2000013    1    1    2    0    0  0.38967173890E+03  0.32636582219E+03  0.48392315164E+03  0.11811182543E+04  0.95000000000E+03 0.  0.
   -2000013    1    1    2    0    0 -0.38967173890E+03 -0.32636582219E+03 -0.76040374654E+03  0.13187390082E+04  0.95000000000E+03 0.  0.
<mgrwt>
<rscale>  0 0.24845210E+04</rscale>
<asrwt>0</asrwt>
<pdfrwt beam="2">  1        2 0.21356445E+00 0.24845210E+04</pdfrwt>
<pdfrwt beam="1">  1       -2 0.17102897E+00 0.24845210E+04</pdfrwt>
<totfact> 0.27512058E+00</totfact>
</mgrwt>
</event>
<event>
 4    1  0.1295381E-008  0.2491905E+04  0.7816531E-02  0.8405875E-01
         -2   -1    0    0    0  501 -0.00000000000E+00  0.00000000000E+00  0.64471512694E+03  0.64471512694E+03  0.00000000000E+00 0. -1.
          2   -1    0    0  501    0  0.00000000000E+00 -0.00000000000E+00 -0.24078816664E+04  0.24078816664E+04  0.00000000000E+00 0.  1.
    2000013    1    1    2    0    0 -0.46440878678E+03 -0.60940751603E+03 -0.11886779195E+04  0.17036749215E+04  0.95000000000E+03 0.  0.
   -2000013    1    1    2    0    0  0.46440878678E+03  0.60940751603E+03 -0.57448861994E+03  0.13489218718E+04  0.95000000000E+03 0.  0.
<mgrwt>
<rscale>  0 0.24919051E+04</rscale>
<asrwt>0</asrwt>
<pdfrwt beam="2">  1        2 0.37044333E+00 0.24919051E+04</pdfrwt>
<pdfrwt beam="1">  1       -2 0.99186943E-01 0.24919051E+04</pdfrwt>
<totfact> 0.29564378E+00</totfact>
</mgrwt>
</event>
<event>
 4    1  0.1295381E-008  0.2917178E+04  0.7816531E-02  0.8267785E-01
          2   -1    0    0  501    0  0.00000000000E+00  0.00000000000E+00  0.41405345089E+04  0.41405345089E+04  0.00000000000E+00 0.  1.
         -2   -1    0    0    0  501 -0.00000000000E+00 -0.00000000000E+00 -0.51381819546E+03  0.51381819546E+03  0.00000000000E+00 0. -1.
    2000013    1    1    2    0    0 -0.99746512236E+03  0.27795606855E+03  0.11897127353E+04  0.18412258522E+04  0.95000000000E+03 0.  0.
   -2000013    1    1    2    0    0  0.99746512236E+03 -0.27795606855E+03  0.24370035781E+04  0.28131268521E+04  0.95000000000E+03 0.  0.
<mgrwt>
<rscale>  0 0.29171781E+04</rscale>
<asrwt>0</asrwt>
<pdfrwt beam="1">  1        2 0.63700529E+00 0.29171781E+04</pdfrwt>
<pdfrwt beam="2">  1       -2 0.79048956E-01 0.29171781E+04</pdfrwt>
<totfact> 0.32010551E-01</totfact>
</mgrwt>
</event>
<event>
 4    1  0.1295381E-008  0.2404610E+04  0.7816531E-02  0.8437780E-01
         -2   -1    0    0    0  501 -0.00000000000E+00  0.00000000000E+00  0.75180629686E+03  0.75180629686E+03  0.00000000000E+00 0. -1.
          2   -1    0    0  501    0  0.00000000000E+00 -0.00000000000E+00 -0.19227530287E+04  0.19227530287E+04  0.00000000000E+00 0.  1.
    2000013    1    1    2    0    0 -0.41981047794E+03  0.58989360643E+03 -0.73807054582E+03  0.14040881151E+04  0.95000000000E+03 0.  0.
   -2000013    1    1    2    0    0  0.41981047794E+03 -0.58989360643E+03 -0.43287618604E+03  0.12704712105E+04  0.95000000000E+03 0.  0.
<mgrwt>
<rscale>  0 0.24046104E+04</rscale>
<asrwt>0</asrwt>
<pdfrwt beam="2">  1        2 0.29580815E+00 0.24046104E+04</pdfrwt>
<pdfrwt beam="1">  1       -2 0.11566251E+00 0.24046104E+04</pdfrwt>
<totfact> 0.38548894E+00</totfact>
</mgrwt>
</event>
<event>
 4    1  0.1295381E-008  0.2516608E+04  0.7816531E-02  0.8397093E-01
          2   -1    0    0  501    0  0.00000000000E+00  0.00000000000E+00  0.25569856815E+04  0.25569856815E+04  0.00000000000E+00 0.  1.
         -2   -1    0    0    0  501 -0.00000000000E+00 -0.00000000000E+00 -0.61921713236E+03  0.61921713236E+03  0.00000000000E+00 0. -1.
    2000013    1    1    2    0    0  0.18693410536E+03  0.57084192888E+03  0.16828612333E+04  0.20236913791E+04  0.95000000000E+03 0.  0.
   -2000013    1    1    2    0    0 -0.18693410536E+03 -0.57084192888E+03  0.25490731587E+03  0.11525114347E+04  0.95000000000E+03 0.  0.
<mgrwt>
<rscale>  0 0.25166083E+04</rscale>
<asrwt>0</asrwt>
<pdfrwt beam="1">  1        2 0.39338241E+00 0.25166083E+04</pdfrwt>
<pdfrwt beam="2">  1       -2 0.95264175E-01 0.25166083E+04</pdfrwt>
<totfact> 0.26593462E+00</totfact>
</mgrwt>
</event>
<event>
 4    1  0.1295381E-008  0.2572930E+04  0.7816531E-02  0.8377455E-01
         -2   -1    0    0    0  501 -0.00000000000E+00  0.00000000000E+00  0.20758289101E+04  0.20758289101E+04  0.00000000000E+00 0. -1.
          2   -1    0    0  501    0  0.00000000000E+00 -0.00000000000E+00 -0.79726815815E+03  0.79726815815E+03  0.00000000000E+00 0.  1.
    2000013    1    1    2    0    0  0.80773096232E+03  0.48573560335E+02  0.29023845969E+03  0.12812209262E+04  0.95000000000E+03 0.  0.
   -2000013    1    1    2    0    0 -0.80773096232E+03 -0.48573560335E+02  0.98832229224E+03  0.15918761420E+04  0.95000000000E+03 0.  0.
<mgrwt>
<rscale>  0 0.25729301E+04</rscale>
<asrwt>0</asrwt>
<pdfrwt beam="2">  1        2 0.12265664E+00 0.25729301E+04</pdfrwt>
<pdfrwt beam="1">  1       -2 0.31935829E+00 0.25729301E+04</pdfrwt>
<totfact> 0.74144529E-01</totfact>
</mgrwt>
</event>
<event>
 4    1  0.1295381E-008  0.2153183E+04  0.7816531E-02  0.8538171E-01
         -2   -1    0    0    0  501 -0.00000000000E+00  0.00000000000E+00  0.68657337226E+03  0.68657337226E+03  0.00000000000E+00 0. -1.
          2   -1    0    0  501    0  0.00000000000E+00 -0.00000000000E+00 -0.16881658052E+04  0.16881658052E+04  0.00000000000E+00 0.  1.
    2000013    1    1    2    0    0  0.40842241697E+03  0.27471045159E+02 -0.17179604146E+03  0.10486073664E+04  0.95000000000E+03 0.  0.
   -2000013    1    1    2    0    0 -0.40842241697E+03 -0.27471045159E+02 -0.82979639148E+03  0.13261318111E+04  0.95000000000E+03 0.  0.
<mgrwt>
<rscale>  0 0.21531834E+04</rscale>
<asrwt>0</asrwt>
<pdfrwt beam="2">  1        2 0.25971782E+00 0.21531834E+04</pdfrwt>
<pdfrwt beam="1">  1       -2 0.10562667E+00 0.21531834E+04</pdfrwt>
<totfact> 0.66207604E+00</totfact>
</mgrwt>
</event>
<event>
 4    1  0.1295381E-008  0.3458025E+04  0.7816531E-02  0.8123810E-01
         -2   -1    0    0    0  501 -0.00000000000E+00  0.00000000000E+00  0.12099765535E+04  0.12099765535E+04  0.00000000000E+00 0. -1.
          2   -1    0    0  501    0  0.00000000000E+00 -0.00000000000E+00 -0.24706954756E+04  0.24706954756E+04  0.00000000000E+00 0.  1.
    2000013    1    1    2    0    0  0.12075717713E+04  0.73568915147E+03 -0.94523686200E+03  0.19481891170E+04  0.95000000000E+03 0.  0.
   -2000013    1    1    2    0    0 -0.12075717713E+04 -0.73568915147E+03 -0.31548206009E+03  0.17324829121E+04  0.95000000000E+03 0.  0.
<mgrwt>
<rscale>  0 0.34580246E+04</rscale>
<asrwt>0</asrwt>
<pdfrwt beam="2">  1        2 0.38010699E+00 0.34580246E+04</pdfrwt>
<pdfrwt beam="1">  1       -2 0.18615024E+00 0.34580246E+04</pdfrwt>
<totfact> 0.49110765E-01</totfact>
</mgrwt>
</event>
<event>
 4    1  0.1295381E-008  0.2481389E+04  0.7816531E-02  0.8409646E-01
         -2   -1    0    0    0  501 -0.00000000000E+00  0.00000000000E+00  0.10546835239E+04  0.10546835239E+04  0.00000000000E+00 0. -1.
          2   -1    0    0  501    0  0.00000000000E+00 -0.00000000000E+00 -0.14595112776E+04  0.14595112776E+04  0.00000000000E+00 0.  1.
    2000013    1    1    2    0    0  0.21930518880E+03  0.72119063886E+03 -0.46781545896E+03  0.12998315303E+04  0.95000000000E+03 0.  0.
   -2000013    1    1    2    0    0 -0.21930518880E+03 -0.72119063886E+03  0.62987705228E+02  0.12143632712E+04  0.95000000000E+03 0.  0.
<mgrwt>
<rscale>  0 0.24813887E+04</rscale>
<asrwt>0</asrwt>
<pdfrwt beam="2">  1        2 0.22454020E+00 0.24813887E+04</pdfrwt>
<pdfrwt beam="1">  1       -2 0.16225900E+00 0.24813887E+04</pdfrwt>
<totfact> 0.28983305E+00</totfact>
</mgrwt>
</event>
<event>
 4    1  0.1295381E-008  0.2381654E+04  0.7816531E-02  0.8446404E-01
         -2   -1    0    0    0  501 -0.00000000000E+00  0.00000000000E+00  0.58819084345E+03  0.58819084345E+03  0.00000000000E+00 0. -1.
          2   -1    0    0  501    0  0.00000000000E+00 -0.00000000000E+00 -0.24108996499E+04  0.24108996499E+04  0.00000000000E+00 0.  1.
    2000013    1    1    2    0    0  0.70054665684E+02  0.66024002410E+03 -0.56708323584E+03  0.12903131178E+04  0.95000000000E+03 0.  0.
   -2000013    1    1    2    0    0 -0.70054665684E+02 -0.66024002410E+03 -0.12556255706E+04  0.17087773755E+04  0.95000000000E+03 0.  0.
<mgrwt>
<rscale>  0 0.23816541E+04</rscale>
<asrwt>0</asrwt>
<pdfrwt beam="2">  1        2 0.37090764E+00 0.23816541E+04</pdfrwt>
<pdfrwt beam="1">  1       -2 0.90490898E-01 0.23816541E+04</pdfrwt>
<totfact> 0.36824844E+00</totfact>
</mgrwt>
</event>
<event>
 4    1  0.1295381E-008  0.2898861E+04  0.7816531E-02  0.8273216E-01
         -2   -1    0    0    0  501 -0.00000000000E+00  0.00000000000E+00  0.77375606415E+03  0.77375606415E+03  0.00000000000E+00 0. -1.
          2   -1    0    0  501    0  0.00000000000E+00 -0.00000000000E+00 -0.27151309457E+04  0.27151309457E+04  0.00000000000E+00 0.  1.
    2000013    1    1    2    0    0  0.85421616966E+02  0.75940054187E+03 -0.19140356125E+04  0.22693651891E+04  0.95000000000E+03 0.  0.
   -2000013    1    1    2    0    0 -0.85421616966E+02 -0.75940054187E+03 -0.27339269054E+02  0.12195218207E+04  0.95000000000E+03 0.  0.
<mgrwt>
<rscale>  0 0.28988612E+04</rscale>
<asrwt>0</asrwt>
<pdfrwt beam="2">  1        2 0.41771246E+00 0.28988612E+04</pdfrwt>
<pdfrwt beam="1">  1       -2 0.11903939E+00 0.28988612E+04</pdfrwt>
<totfact> 0.12156698E+00</totfact>
</mgrwt>
</event>
<event>
 4    1  0.1295381E-008  0.2300094E+04  0.7816531E-02  0.8477884E-01
         -2   -1    0    0    0  501 -0.00000000000E+00  0.00000000000E+00  0.62572420391E+03  0.62572420391E+03  0.00000000000E+00 0. -1.
          2   -1    0    0  501    0  0.00000000000E+00 -0.00000000000E+00 -0.21137237523E+04  0.21137237523E+04  0.00000000000E+00 0.  1.
    2000013    1    1    2    0    0  0.57079973417E+03  0.29962402399E+01 -0.37828465795E+03  0.11710766826E+04  0.95000000000E+03 0.  0.
   -2000013    1    1    2    0    0 -0.57079973417E+03 -0.29962402399E+01 -0.11097148905E+04  0.15683712737E+04  0.95000000000E+03 0.  0.
<mgrwt>
<rscale>  0 0.23000940E+04</rscale>
<asrwt>0</asrwt>
<pdfrwt beam="2">  1        2 0.32518826E+00 0.23000940E+04</pdfrwt>
<pdfrwt beam="1">  1       -2 0.96265264E-01 0.23000940E+04</pdfrwt>
<totfact> 0.47284966E+00</totfact>
</mgrwt>
</event>
<event>
 4    1  0.1295381E-008  0.3176653E+04  0.7816531E-02  0.8195010E-01
          2   -1    0    0  501    0  0.00000000000E+00  0.00000000000E+00  0.25739900073E+04  0.25739900073E+04  0.00000000000E+00 0.  1.
         -2   -1    0    0    0  501 -0.00000000000E+00 -0.00000000000E+00 -0.98010525038E+03  0.98010525038E+03  0.00000000000E+00 0. -1.
    2000013    1    1    2    0    0  0.58086884752E+03  0.11271260566E+04  0.67205830347E+03  0.17210415825E+04  0.95000000000E+03 0.  0.
   -2000013    1    1    2    0    0 -0.58086884752E+03 -0.11271260566E+04  0.92182645343E+03  0.18330536751E+04  0.95000000000E+03 0.  0.
<mgrwt>
<rscale>  0 0.31766530E+04</rscale>
<asrwt>0</asrwt>
<pdfrwt beam="1">  1        2 0.39599846E+00 0.31766530E+04</pdfrwt>
<pdfrwt beam="2">  1       -2 0.15078542E+00 0.31766530E+04</pdfrwt>
<totfact> 0.78560423E-01</totfact>
</mgrwt>
</event>
<event>
 4    1  0.1295381E-008  0.2137541E+04  0.7816531E-02  0.8544884E-01
          2   -1    0    0  501    0  0.00000000000E+00  0.00000000000E+00  0.19974344915E+04  0.19974344915E+04  0.00000000000E+00 0.  1.
         -2   -1    0    0    0  501 -0.00000000000E+00 -0.00000000000E+00 -0.57186858386E+03  0.57186858386E+03  0.00000000000E+00 0. -1.
    2000013    1    1    2    0    0  0.77627049689E+02  0.46777375827E+03  0.56590492642E+03  0.12031569447E+04  0.95000000000E+03 0.  0.
   -2000013    1    1    2    0    0 -0.77627049689E+02 -0.46777375827E+03  0.85966098122E+03  0.13661461307E+04  0.95000000000E+03 0.  0.
<mgrwt>
<rscale>  0 0.21375407E+04</rscale>
<asrwt>0</asrwt>
<pdfrwt beam="1">  1        2 0.30729761E+00 0.21375407E+04</pdfrwt>
<pdfrwt beam="2">  1       -2 0.87979783E-01 0.21375407E+04</pdfrwt>
<totfact> 0.68571159E+00</totfact>
</mgrwt>
</event>
<event>
 4    1  0.1295381E-008  0.2198153E+04  0.7816531E-02  0.8519197E-01
         -2   -1    0    0    0  501 -0.00000000000E+00  0.00000000000E+00  0.82336384663E+03  0.82336384663E+03  0.00000000000E+00 0. -1.
          2   -1    0    0  501    0  0.00000000000E+00 -0.00000000000E+00 -0.14671144370E+04  0.14671144370E+04  0.00000000000E+00 0.  1.
    2000013    1    1    2    0    0 -0.37972300715E+03  0.38336182738E+03 -0.44653774307E+03  0.11802761579E+04  0.95000000000E+03 0.  0.
   -2000013    1    1    2    0    0  0.37972300715E+03 -0.38336182738E+03 -0.19721284729E+03  0.11102021257E+04  0.95000000000E+03 0.  0.
<mgrwt>
<rscale>  0 0.21981528E+04</rscale>
<asrwt>0</asrwt>
<pdfrwt beam="2">  1        2 0.22570991E+00 0.21981528E+04</pdfrwt>
<pdfrwt beam="1">  1       -2 0.12667136E+00 0.21981528E+04</pdfrwt>
<totfact> 0.56180599E+00</totfact>
</mgrwt>
</event>
<event>
 4    1  0.1295381E-008  0.3428624E+04  0.7816531E-02  0.8130917E-01
         -2   -1    0    0    0  501 -0.00000000000E+00  0.00000000000E+00  0.13680277602E+04  0.13680277602E+04  0.00000000000E+00 0. -1.
          2   -1    0    0  501    0  0.00000000000E+00 -0.00000000000E+00 -0.21482496639E+04  0.21482496639E+04  0.00000000000E+00 0.  1.
    2000013    1    1    2    0    0  0.34670320185E+03  0.13469061963E+04 -0.71765948750E+03  0.18308180008E+04  0.95000000000E+03 0.  0.
   -2000013    1    1    2    0    0 -0.34670320185E+03 -0.13469061963E+04 -0.62562416175E+02  0.16854594234E+04  0.95000000000E+03 0.  0.
<mgrwt>
<rscale>  0 0.34286237E+04</rscale>
<asrwt>0</asrwt>
<pdfrwt beam="2">  1        2 0.33049995E+00 0.34286237E+04</pdfrwt>
<pdfrwt beam="1">  1       -2 0.21046581E+00 0.34286237E+04</pdfrwt>
<totfact> 0.51898739E-01</totfact>
</mgrwt>
</event>
<event>
 4    1  0.1295381E-008  0.2918617E+04  0.7816531E-02  0.8267360E-01
          2   -1    0    0  501    0  0.00000000000E+00  0.00000000000E+00  0.27532609174E+04  0.27532609174E+04  0.00000000000E+00 0.  1.
         -2   -1    0    0    0  501 -0.00000000000E+00 -0.00000000000E+00 -0.77347586525E+03  0.77347586525E+03  0.00000000000E+00 0. -1.
    2000013    1    1    2    0    0  0.99009802199E+03  0.13605274936E+03  0.41255934823E+03  0.14392740043E+04  0.95000000000E+03 0.  0.
   -2000013    1    1    2    0    0 -0.99009802199E+03 -0.13605274936E+03  0.15672257039E+04  0.20874627783E+04  0.95000000000E+03 0.  0.
<mgrwt>
<rscale>  0 0.29186167E+04</rscale>
<asrwt>0</asrwt>
<pdfrwt beam="1">  1        2 0.42357860E+00 0.29186167E+04</pdfrwt>
<pdfrwt beam="2">  1       -2 0.11899629E+00 0.29186167E+04</pdfrwt>
<totfact> 0.11524949E+00</totfact>
</mgrwt>
</event>
<event>
 4    1  0.1295381E-008  0.2628080E+04  0.7816531E-02  0.8358725E-01
          2   -1    0    0  501    0  0.00000000000E+00  0.00000000000E+00  0.23445226565E+04  0.23445226565E+04  0.00000000000E+00 0.  1.
         -2   -1    0    0    0  501 -0.00000000000E+00 -0.00000000000E+00 -0.73648278627E+03  0.73648278627E+03  0.00000000000E+00 0. -1.
    2000013    1    1    2    0    0 -0.29954657054E+03 -0.60139923171E+03  0.88227849766E+02  0.11669161655E+04  0.95000000000E+03 0.  0.
   -2000013    1    1    2    0    0  0.29954657054E+03  0.60139923171E+03  0.15198120205E+04  0.19140892773E+04  0.95000000000E+03 0.  0.
<mgrwt>
<rscale>  0 0.26280796E+04</rscale>
<asrwt>0</asrwt>
<pdfrwt beam="1">  1        2 0.36069579E+00 0.26280796E+04</pdfrwt>
<pdfrwt beam="2">  1       -2 0.11330505E+00 0.26280796E+04</pdfrwt>
<totfact> 0.23072275E+00</totfact>
</mgrwt>
</event>
<event>
 4    1  0.1295381E-008  0.2278375E+04  0.7816531E-02  0.8486496E-01
          1   -1    0    0  501    0  0.00000000000E+00  0.00000000000E+00  0.25021476220E+04  0.25021476220E+04  0.00000000000E+00 0.  1.
         -1   -1    0    0    0  501 -0.00000000000E+00 -0.00000000000E+00 -0.51865388411E+03  0.51865388411E+03  0.00000000000E+00 0. -1.
    2000013    1    1    2    0    0 -0.21708209081E+03 -0.44294971040E+03  0.47496927349E+03  0.11710785161E+04  0.95000000000E+03 0.  0.
   -2000013    1    1    2    0    0  0.21708209081E+03  0.44294971040E+03  0.15085244644E+04  0.18497229900E+04  0.95000000000E+03 0.  0.
<mgrwt>
<rscale>  0 0.22783754E+04</rscale>
<asrwt>0</asrwt>
<pdfrwt beam="1">  1        1 0.38494578E+00 0.22783754E+04</pdfrwt>
<pdfrwt beam="2">  1       -1 0.79792907E-01 0.22783754E+04</pdfrwt>
<totfact> 0.19175537E+00</totfact>
</mgrwt>
</event>
<event>
 4    1  0.1295381E-008  0.3629542E+04  0.7816531E-02  0.8083758E-01
          2   -1    0    0  501    0  0.00000000000E+00  0.00000000000E+00  0.17862558882E+04  0.17862558882E+04  0.00000000000E+00 0.  1.
         -2   -1    0    0    0  501 -0.00000000000E+00 -0.00000000000E+00 -0.18437414709E+04  0.18437414709E+04  0.00000000000E+00 0. -1.
    2000013    1    1    2    0    0 -0.14424362881E+04  0.53380661904E+03  0.13040638087E+03  0.18124783518E+04  0.95000000000E+03 0.  0.
   -2000013    1    1    2    0    0  0.14424362881E+04 -0.53380661904E+03 -0.18789196353E+03  0.18175190072E+04  0.95000000000E+03 0.  0.
<mgrwt>
<rscale>  0 0.36295422E+04</rscale>
<asrwt>0</asrwt>
<pdfrwt beam="1">  1        2 0.27480860E+00 0.36295422E+04</pdfrwt>
<pdfrwt beam="2">  1       -2 0.28365253E+00 0.36295422E+04</pdfrwt>
<totfact> 0.28565364E-01</totfact>
</mgrwt>
</event>
<event>
 4    1  0.1295381E-008  0.2355050E+04  0.7816531E-02  0.8456526E-01
          2   -1    0    0  501    0  0.00000000000E+00  0.00000000000E+00  0.93227806431E+03  0.93227806431E+03  0.00000000000E+00 0.  1.
         -2   -1    0    0    0  501 -0.00000000000E+00 -0.00000000000E+00 -0.14872871813E+04  0.14872871813E+04  0.00000000000E+00 0. -1.
    2000013    1    1    2    0    0 -0.39273592615E+03  0.57428949517E+03 -0.28152093737E+03  0.12107039151E+04  0.95000000000E+03 0.  0.
   -2000013    1    1    2    0    0  0.39273592615E+03 -0.57428949517E+03 -0.27348817963E+03  0.12088613305E+04  0.95000000000E+03 0.  0.
<mgrwt>
<rscale>  0 0.23550501E+04</rscale>
<asrwt>0</asrwt>
<pdfrwt beam="1">  1        2 0.14342740E+00 0.23550501E+04</pdfrwt>
<pdfrwt beam="2">  1       -2 0.22881341E+00 0.23550501E+04</pdfrwt>
<totfact> 0.21891453E+00</totfact>
</mgrwt>
</event>
<event>
 4    1  0.1295381E-008  0.2283720E+04  0.7816531E-02  0.8484368E-01
          1   -1    0    0  501    0  0.00000000000E+00  0.00000000000E+00  0.18903534992E+04  0.18903534992E+04  0.00000000000E+00 0. -1.
         -1   -1    0    0    0  501 -0.00000000000E+00 -0.00000000000E+00 -0.68973558839E+03  0.68973558839E+03  0.00000000000E+00 0.  1.
    2000013    1    1    2    0    0  0.61406429916E+03  0.61661601364E+02  0.76193770569E+03  0.13652568198E+04  0.95000000000E+03 0.  0.
   -2000013    1    1    2    0    0 -0.61406429916E+03 -0.61661601364E+02  0.43868020511E+03  0.12148322678E+04  0.95000000000E+03 0.  0.
<mgrwt>
<rscale>  0 0.22837198E+04</rscale>
<asrwt>0</asrwt>
<pdfrwt beam="1">  1        1 0.29082361E+00 0.22837198E+04</pdfrwt>
<pdfrwt beam="2">  1       -1 0.10611317E+00 0.22837198E+04</pdfrwt>
<totfact> 0.26589135E+00</totfact>
</mgrwt>
</event>
<event>
 4    1  0.1295381E-008  0.2353135E+04  0.7816531E-02  0.8457261E-01
         -2   -1    0    0    0  501 -0.00000000000E+00  0.00000000000E+00  0.96984757750E+03  0.96984757750E+03  0.00000000000E+00 0. -1.
          2   -1    0    0  501    0  0.00000000000E+00 -0.00000000000E+00 -0.14273487532E+04  0.14273487532E+04  0.00000000000E+00 0.  1.
    2000013    1    1    2    0    0 -0.54675888245E+03  0.49605402046E+02 -0.66144452606E+03  0.12811771277E+04  0.95000000000E+03 0.  0.
   -2000013    1    1    2    0    0  0.54675888245E+03 -0.49605402046E+02  0.20394335032E+03  0.11160192031E+04  0.95000000000E+03 0.  0.
<mgrwt>
<rscale>  0 0.23531347E+04</rscale>
<asrwt>0</asrwt>
<pdfrwt beam="2">  1        2 0.21959212E+00 0.23531347E+04</pdfrwt>
<pdfrwt beam="1">  1       -2 0.14920732E+00 0.23531347E+04</pdfrwt>
<totfact> 0.38293652E+00</totfact>
</mgrwt>
</event>
<event>
 4    1  0.1295381E-008  0.4168779E+04  0.7816531E-02  0.7971338E-01
          2   -1    0    0  501    0  0.00000000000E+00  0.00000000000E+00  0.22311349164E+04  0.22311349164E+04  0.00000000000E+00 0.  1.
         -2   -1    0    0    0  501 -0.00000000000E+00 -0.00000000000E+00 -0.19472957545E+04  0.19472957545E+04  0.00000000000E+00 0. -1.
    2000013    1    1    2    0    0 -0.10460670582E+04  0.13477172689E+04 -0.58886475161E+03  0.20395734414E+04  0.95000000000E+03 0.  0.
   -2000013    1    1    2    0    0  0.10460670582E+04 -0.13477172689E+04  0.87270391350E+03  0.21388572294E+04  0.95000000000E+03 0.  0.
<mgrwt>
<rscale>  0 0.41687790E+04</rscale>
<asrwt>0</asrwt>
<pdfrwt beam="1">  1        2 0.34325153E+00 0.41687790E+04</pdfrwt>
<pdfrwt beam="2">  1       -2 0.29958396E+00 0.41687790E+04</pdfrwt>
<totfact> 0.12339352E-01</totfact>
</mgrwt>
</event>
<event>
 4    1  0.1295381E-008  0.3015476E+04  0.7816531E-02  0.8239325E-01
          2   -1    0    0  501    0  0.00000000000E+00  0.00000000000E+00  0.23138636570E+04  0.23138636570E+04  0.00000000000E+00 0.  1.
         -2   -1    0    0    0  501 -0.00000000000E+00 -0.00000000000E+00 -0.98245782634E+03  0.98245782634E+03  0.00000000000E+00 0. -1.
    2000013    1    1    2    0    0  0.10902677459E+04  0.19664989697E+03  0.10796800378E+04  0.18153688121E+04  0.95000000000E+03 0.  0.
   -2000013    1    1    2    0    0 -0.10902677459E+04 -0.19664989697E+03  0.25172579287E+03  0.14809526713E+04  0.95000000000E+03 0.  0.
<mgrwt>
<rscale>  0 0.30154757E+04</rscale>
<asrwt>0</asrwt>
<pdfrwt beam="1">  1        2 0.35597902E+00 0.30154757E+04</pdfrwt>
<pdfrwt beam="2">  1       -2 0.15114736E+00 0.30154757E+04</pdfrwt>
<totfact> 0.11174718E+00</totfact>
</mgrwt>
</event>
<event>
 4    1  0.1295381E-008  0.2221512E+04  0.7816531E-02  0.8509528E-01
         -2   -1    0    0    0  501 -0.00000000000E+00  0.00000000000E+00  0.17805827978E+04  0.17805827978E+04  0.00000000000E+00 0. -1.
          2   -1    0    0  501    0  0.00000000000E+00 -0.00000000000E+00 -0.69290704987E+03  0.69290704987E+03  0.00000000000E+00 0.  1.
    2000013    1    1    2    0    0 -0.40625377092E+03  0.37220637102E+03  0.72914451098E+03  0.13182304150E+04  0.95000000000E+03 0.  0.
   -2000013    1    1    2    0    0  0.40625377092E+03 -0.37220637102E+03  0.35853123697E+03  0.11552594327E+04  0.95000000000E+03 0.  0.
<mgrwt>
<rscale>  0 0.22215115E+04</rscale>
<asrwt>0</asrwt>
<pdfrwt beam="2">  1        2 0.10660109E+00 0.22215115E+04</pdfrwt>
<pdfrwt beam="1">  1       -2 0.27393581E+00 0.22215115E+04</pdfrwt>
<totfact> 0.17367934E+00</totfact>
</mgrwt>
</event>
<event>
 4    1  0.1295381E-008  0.2133917E+04  0.7816531E-02  0.8546448E-01
         -2   -1    0    0    0  501 -0.00000000000E+00  0.00000000000E+00  0.97672457869E+03  0.97672457869E+03  0.00000000000E+00 0. -1.
          2   -1    0    0  501    0  0.00000000000E+00 -0.00000000000E+00 -0.11655285075E+04  0.11655285075E+04  0.00000000000E+00 0.  1.
    2000013    1    1    2    0    0  0.12824457645E+03  0.46159236376E+03 -0.17462759318E+03  0.10781970961E+04  0.95000000000E+03 0.  0.
   -2000013    1    1    2    0    0 -0.12824457645E+03 -0.46159236376E+03 -0.14176335656E+02  0.10640559901E+04  0.95000000000E+03 0.  0.
<mgrwt>
<rscale>  0 0.21339169E+04</rscale>
<asrwt>0</asrwt>
<pdfrwt beam="2">  1        2 0.17931208E+00 0.21339169E+04</pdfrwt>
<pdfrwt beam="1">  1       -2 0.15026532E+00 0.21339169E+04</pdfrwt>
<totfact> 0.54451152E+00</totfact>
</mgrwt>
</event>
<event>
 4    1  0.1295381E-008  0.3045801E+04  0.7816531E-02  0.8230772E-01
          2   -1    0    0  501    0  0.00000000000E+00  0.00000000000E+00  0.34011398032E+04  0.34011398032E+04  0.00000000000E+00 0.  1.
         -2   -1    0    0    0  501 -0.00000000000E+00 -0.00000000000E+00 -0.68189668606E+03  0.68189668606E+03  0.00000000000E+00 0. -1.
    2000013    1    1    2    0    0 -0.18149974148E+03  0.11533882896E+04  0.16696306426E+04  0.22479798009E+04  0.95000000000E+03 0.  0.
   -2000013    1    1    2    0    0  0.18149974148E+03 -0.11533882896E+04  0.10496124746E+04  0.18350566883E+04  0.95000000000E+03 0.  0.
<mgrwt>
<rscale>  0 0.30458010E+04</rscale>
<asrwt>0</asrwt>
<pdfrwt beam="1">  1        2 0.52325227E+00 0.30458010E+04</pdfrwt>
<pdfrwt beam="2">  1       -2 0.10490718E+00 0.30458010E+04</pdfrwt>
<totfact> 0.59733691E-01</totfact>
</mgrwt>
</event>
<event>
 4    1  0.1295381E-008  0.2548035E+04  0.7816531E-02  0.8386070E-01
          2   -1    0    0  501    0  0.00000000000E+00  0.00000000000E+00  0.14293700131E+04  0.14293700131E+04  0.00000000000E+00 0.  1.
         -2   -1    0    0    0  501 -0.00000000000E+00 -0.00000000000E+00 -0.11355493652E+04  0.11355493652E+04  0.00000000000E+00 0. -1.
    2000013    1    1    2    0    0 -0.25764766796E+03  0.53906515481E+03 -0.46011690905E+03  0.12129225581E+04  0.95000000000E+03 0.  0.
   -2000013    1    1    2    0    0  0.25764766796E+03 -0.53906515481E+03  0.75393755699E+03  0.13519968202E+04  0.95000000000E+03 0.  0.
<mgrwt>
<rscale>  0 0.25480347E+04</rscale>
<asrwt>0</asrwt>
<pdfrwt beam="1">  1        2 0.21990308E+00 0.25480347E+04</pdfrwt>
<pdfrwt beam="2">  1       -2 0.17469990E+00 0.25480347E+04</pdfrwt>
<totfact> 0.24421083E+00</totfact>
</mgrwt>
</event>
<event>
 4    1  0.1295381E-008  0.2570921E+04  0.7816531E-02  0.8378146E-01
          2   -1    0    0  501    0  0.00000000000E+00  0.00000000000E+00  0.23606006749E+04  0.23606006749E+04  0.00000000000E+00 0.  1.
         -2   -1    0    0    0  501 -0.00000000000E+00 -0.00000000000E+00 -0.69999496604E+03  0.69999496604E+03  0.00000000000E+00 0. -1.
    2000013    1    1    2    0    0 -0.79755457272E+03 -0.23722965476E+03  0.54474619493E+03  0.13753616333E+04  0.95000000000E+03 0.  0.
   -2000013    1    1    2    0    0  0.79755457272E+03  0.23722965476E+03  0.11158595140E+04  0.16852340076E+04  0.95000000000E+03 0.  0.
<mgrwt>
<rscale>  0 0.25709209E+04</rscale>
<asrwt>0</asrwt>
<pdfrwt beam="1">  1        2 0.36316933E+00 0.25709209E+04</pdfrwt>
<pdfrwt beam="2">  1       -2 0.10769153E+00 0.25709209E+04</pdfrwt>
<totfact> 0.25673842E+00</totfact>
</mgrwt>
</event>
<event>
 4    1  0.1295381E-008  0.2460140E+04  0.7816531E-02  0.8417325E-01
         -2   -1    0    0    0  501 -0.00000000000E+00  0.00000000000E+00  0.87483239878E+03  0.87483239878E+03  0.00000000000E+00 0. -1.
          2   -1    0    0  501    0  0.00000000000E+00 -0.00000000000E+00 -0.17295568637E+04  0.17295568637E+04  0.00000000000E+00 0.  1.
    2000013    1    1    2    0    0 -0.48842468552E+03  0.35001038759E+03 -0.95615672619E+03  0.14757376562E+04  0.95000000000E+03 0.  0.
   -2000013    1    1    2    0    0  0.48842468552E+03 -0.35001038759E+03  0.10143226125E+03  0.11286516063E+04  0.95000000000E+03 0.  0.
<mgrwt>
<rscale>  0 0.24601401E+04</rscale>
<asrwt>0</asrwt>
<pdfrwt beam="2">  1        2 0.26608567E+00 0.24601401E+04</pdfrwt>
<pdfrwt beam="1">  1       -2 0.13458960E+00 0.24601401E+04</pdfrwt>
<totfact> 0.33598352E+00</totfact>
</mgrwt>
</event>
<event>
 4    1  0.1295381E-008  0.2568795E+04  0.7816531E-02  0.8378879E-01
         -2   -1    0    0    0  501 -0.00000000000E+00  0.00000000000E+00  0.47907046113E+03  0.47907046113E+03  0.00000000000E+00 0. -1.
          2   -1    0    0  501    0  0.00000000000E+00 -0.00000000000E+00 -0.34434961807E+04  0.34434961807E+04  0.00000000000E+00 0.  1.
    2000013    1    1    2    0    0 -0.77548831496E+03  0.38135044527E+03 -0.15114666676E+04  0.19833914833E+04  0.95000000000E+03 0.  0.
   -2000013    1    1    2    0    0  0.77548831496E+03 -0.38135044527E+03 -0.14529590519E+04  0.19391751585E+04  0.95000000000E+03 0.  0.
<mgrwt>
<rscale>  0 0.25687953E+04</rscale>
<asrwt>0</asrwt>
<pdfrwt beam="2">  1        2 0.52976865E+00 0.25687953E+04</pdfrwt>
<pdfrwt beam="1">  1       -2 0.73703146E-01 0.25687953E+04</pdfrwt>
<totfact> 0.13109684E+00</totfact>
</mgrwt>
</event>
<event>
 4    1  0.1295381E-008  0.2449279E+04  0.7816531E-02  0.8421281E-01
          1   -1    0    0  501    0  0.00000000000E+00  0.00000000000E+00  0.17703980560E+04  0.17703980560E+04  0.00000000000E+00 0.  1.
         -1   -1    0    0    0  501 -0.00000000000E+00 -0.00000000000E+00 -0.84712153227E+03  0.84712153227E+03  0.00000000000E+00 0. -1.
    2000013    1    1    2    0    0 -0.46441298737E+03 -0.13087719963E+02  0.11216280041E+04  0.15415576832E+04  0.95000000000E+03 0.  0.
   -2000013    1    1    2    0    0  0.46441298737E+03  0.13087719963E+02 -0.19835148036E+03  0.10759619050E+04  0.95000000000E+03 0.  0.
<mgrwt>
<rscale>  0 0.24492793E+04</rscale>
<asrwt>0</asrwt>
<pdfrwt beam="1">  1        1 0.27236893E+00 0.24492793E+04</pdfrwt>
<pdfrwt beam="2">  1       -1 0.13032639E+00 0.24492793E+04</pdfrwt>
<totfact> 0.19187781E+00</totfact>
</mgrwt>
</event>
<event>
 4    1  0.1295381E-008  0.2506665E+04  0.7816531E-02  0.8400615E-01
         -2   -1    0    0    0  501 -0.00000000000E+00  0.00000000000E+00  0.15338933119E+04  0.15338933119E+04  0.00000000000E+00 0. -1.
          2   -1    0    0  501    0  0.00000000000E+00 -0.00000000000E+00 -0.10240886534E+04  0.10240886534E+04  0.00000000000E+00 0.  1.
    2000013    1    1    2    0    0  0.63745565474E+03  0.40331144038E+03  0.57652577488E+03  0.13430903912E+04  0.95000000000E+03 0.  0.
   -2000013    1    1    2    0    0 -0.63745565474E+03 -0.40331144038E+03 -0.66721116342E+02  0.12148915742E+04  0.95000000000E+03 0.  0.
<mgrwt>
<rscale>  0 0.25066653E+04</rscale>
<asrwt>0</asrwt>
<pdfrwt beam="2">  1        2 0.15755210E+00 0.25066653E+04</pdfrwt>
<pdfrwt beam="1">  1       -2 0.23598359E+00 0.25066653E+04</pdfrwt>
<totfact> 0.16998064E+00</totfact>
</mgrwt>
</event>
<event>
 4    1  0.1295381E-008  0.3019451E+04  0.7816531E-02  0.8238198E-01
         -2   -1    0    0    0  501 -0.00000000000E+00  0.00000000000E+00  0.57658228863E+03  0.57658228863E+03  0.00000000000E+00 0. -1.
          2   -1    0    0  501    0  0.00000000000E+00 -0.00000000000E+00 -0.39530714238E+04  0.39530714238E+04  0.00000000000E+00 0.  1.
    2000013    1    1    2    0    0 -0.23560054355E+03  0.11181476195E+04 -0.12884890187E+04  0.19668415458E+04  0.95000000000E+03 0.  0.
   -2000013    1    1    2    0    0  0.23560054355E+03 -0.11181476195E+04 -0.20880001165E+04  0.25628121666E+04  0.95000000000E+03 0.  0.
<mgrwt>
<rscale>  0 0.30194509E+04</rscale>
<asrwt>0</asrwt>
<pdfrwt beam="2">  1        2 0.60816482E+00 0.30194509E+04</pdfrwt>
<pdfrwt beam="1">  1       -2 0.88704970E-01 0.30194509E+04</pdfrwt>
<totfact> 0.34825794E-01</totfact>
</mgrwt>
</event>
<event>
 4    1  0.1295381E-008  0.3162198E+04  0.7816531E-02  0.8198873E-01
          1   -1    0    0  501    0  0.00000000000E+00  0.00000000000E+00  0.19133657797E+04  0.19133657797E+04  0.00000000000E+00 0.  1.
         -1   -1    0    0    0  501 -0.00000000000E+00 -0.00000000000E+00 -0.13065321830E+04  0.13065321830E+04  0.00000000000E+00 0. -1.
    2000013    1    1    2    0    0 -0.11622489050E+03  0.11838486697E+04  0.73825476742E+03  0.16919001151E+04  0.95000000000E+03 0.  0.
   -2000013    1    1    2    0    0  0.11622489050E+03 -0.11838486697E+04 -0.13142117078E+03  0.15279978475E+04  0.95000000000E+03 0.  0.
<mgrwt>
<rscale>  0 0.31621980E+04</rscale>
<asrwt>0</asrwt>
<pdfrwt beam="1">  1        1 0.29436397E+00 0.31621980E+04</pdfrwt>
<pdfrwt beam="2">  1       -1 0.20100495E+00 0.31621980E+04</pdfrwt>
<totfact> 0.42423167E-01</totfact>
</mgrwt>
</event>
<event>
 4    1  0.1295381E-008  0.2925633E+04  0.7816531E-02  0.8265291E-01
         -2   -1    0    0    0  501 -0.00000000000E+00  0.00000000000E+00  0.55507519884E+03  0.55507519884E+03  0.00000000000E+00 0. -1.
          2   -1    0    0  501    0  0.00000000000E+00 -0.00000000000E+00 -0.38550315007E+04  0.38550315007E+04  0.00000000000E+00 0.  1.
    2000013    1    1    2    0    0 -0.92070835751E+03 -0.43448634807E+03 -0.97441607467E+03  0.16995496324E+04  0.95000000000E+03 0.  0.
   -2000013    1    1    2    0    0  0.92070835751E+03  0.43448634807E+03 -0.23255402272E+04  0.27105570672E+04  0.95000000000E+03 0.  0.
<mgrwt>
<rscale>  0 0.29256332E+04</rscale>
<asrwt>0</asrwt>
<pdfrwt beam="2">  1        2 0.59308176E+00 0.29256332E+04</pdfrwt>
<pdfrwt beam="1">  1       -2 0.85396186E-01 0.29256332E+04</pdfrwt>
<totfact> 0.45740774E-01</totfact>
</mgrwt>
</event>
<event>
 4    1  0.1295381E-008  0.2453134E+04  0.7816531E-02  0.8419874E-01
         -2   -1    0    0    0  501 -0.00000000000E+00  0.00000000000E+00  0.60928283643E+03  0.60928283643E+03  0.00000000000E+00 0. -1.
          2   -1    0    0  501    0  0.00000000000E+00 -0.00000000000E+00 -0.24692425683E+04  0.24692425683E+04  0.00000000000E+00 0.  1.
    2000013    1    1    2    0    0 -0.42071157763E+03  0.56610406938E+03 -0.13356465019E+04  0.17843552412E+04  0.95000000000E+03 0.  0.
   -2000013    1    1    2    0    0  0.42071157763E+03 -0.56610406938E+03 -0.52431322999E+03  0.12941701635E+04  0.95000000000E+03 0.  0.
<mgrwt>
<rscale>  0 0.24531344E+04</rscale>
<asrwt>0</asrwt>
<pdfrwt beam="2">  1        2 0.37988347E+00 0.24531344E+04</pdfrwt>
<pdfrwt beam="1">  1       -2 0.93735822E-01 0.24531344E+04</pdfrwt>
<totfact> 0.31221102E+00</totfact>
</mgrwt>
</event>
<event>
 4    1  0.1295381E-008  0.2658550E+04  0.7816531E-02  0.8348581E-01
         -2   -1    0    0    0  501 -0.00000000000E+00  0.00000000000E+00  0.46794578845E+04  0.46794578845E+04  0.00000000000E+00 0. -1.
          2   -1    0    0  501    0  0.00000000000E+00 -0.00000000000E+00 -0.37760200356E+03  0.37760200356E+03  0.00000000000E+00 0.  1.
    2000013    1    1    2    0    0 -0.13019884829E+03 -0.85784867913E+03  0.15154250455E+04  0.19879308753E+04  0.95000000000E+03 0.  0.
   -2000013    1    1    2    0    0  0.13019884829E+03  0.85784867913E+03  0.27864308355E+04  0.30691290128E+04  0.95000000000E+03 0.  0.
<mgrwt>
<rscale>  0 0.26585505E+04</rscale>
<asrwt>0</asrwt>
<pdfrwt beam="2">  1        2 0.58092619E-01 0.26585505E+04</pdfrwt>
<pdfrwt beam="1">  1       -2 0.71991655E+00 0.26585505E+04</pdfrwt>
<totfact> 0.14244933E-02</totfact>
</mgrwt>
</event>
<event>
 4    1  0.1295381E-008  0.2092224E+04  0.7816531E-02  0.8564676E-01
         -2   -1    0    0    0  501 -0.00000000000E+00  0.00000000000E+00  0.55685145541E+03  0.55685145541E+03  0.00000000000E+00 0. -1.
          2   -1    0    0  501    0  0.00000000000E+00 -0.00000000000E+00 -0.19652470334E+04  0.19652470334E+04  0.00000000000E+00 0.  1.
    2000013    1    1    2    0    0 -0.11015192362E+03  0.41688041081E+03 -0.61138539632E+03  0.12092207516E+04  0.95000000000E+03 0.  0.
   -2000013    1    1    2    0    0  0.11015192362E+03 -0.41688041081E+03 -0.79701018163E+03  0.13128777372E+04  0.95000000000E+03 0.  0.
<mgrwt>
<rscale>  0 0.20922243E+04</rscale>
<asrwt>0</asrwt>
<pdfrwt beam="2">  1        2 0.30234570E+00 0.20922243E+04</pdfrwt>
<pdfrwt beam="1">  1       -2 0.85669455E-01 0.20922243E+04</pdfrwt>
<totfact> 0.76230012E+00</totfact>
</mgrwt>
</event>
<event>
 4    1  0.1295381E-008  0.2113804E+04  0.7816531E-02  0.8555187E-01
         -2   -1    0    0    0  501 -0.00000000000E+00  0.00000000000E+00  0.68463382459E+03  0.68463382459E+03  0.00000000000E+00 0. -1.
          2   -1    0    0  501    0  0.00000000000E+00 -0.00000000000E+00 -0.16315904857E+04  0.16315904857E+04  0.00000000000E+00 0.  1.
    2000013    1    1    2    0    0 -0.39000727634E+03  0.24134827905E+03 -0.54438488387E+03  0.11871013306E+04  0.95000000000E+03 0.  0.
   -2000013    1    1    2    0    0  0.39000727634E+03 -0.24134827905E+03 -0.40257177725E+03  0.11291229797E+04  0.95000000000E+03 0.  0.
<mgrwt>
<rscale>  0 0.21138042E+04</rscale>
<asrwt>0</asrwt>
<pdfrwt beam="2">  1        2 0.25101392E+00 0.21138042E+04</pdfrwt>
<pdfrwt beam="1">  1       -2 0.10532828E+00 0.21138042E+04</pdfrwt>
<totfact> 0.71916114E+00</totfact>
</mgrwt>
</event>
<event>
 4    1  0.1295381E-008  0.2376078E+04  0.7816531E-02  0.8448514E-01
          2   -1    0    0  501    0  0.00000000000E+00  0.00000000000E+00  0.32487535885E+04  0.32487535885E+04  0.00000000000E+00 0.  1.
         -2   -1    0    0    0  501 -0.00000000000E+00 -0.00000000000E+00 -0.43445472931E+03  0.43445472931E+03  0.00000000000E+00 0. -1.
    2000013    1    1    2    0    0 -0.14570414131E+03  0.57968226786E+03  0.20108517258E+04  0.23028864261E+04  0.95000000000E+03 0.  0.
   -2000013    1    1    2    0    0  0.14570414131E+03 -0.57968226786E+03  0.80344713334E+03  0.13803218916E+04  0.95000000000E+03 0.  0.
<mgrwt>
<rscale>  0 0.23760777E+04</rscale>
<asrwt>0</asrwt>
<pdfrwt beam="1">  1        2 0.49980823E+00 0.23760777E+04</pdfrwt>
<pdfrwt beam="2">  1       -2 0.66839191E-01 0.23760777E+04</pdfrwt>
<totfact> 0.22336562E+00</totfact>
</mgrwt>
</event>
<event>
 4    1  0.1295381E-008  0.1970483E+04  0.7816531E-02  0.8620547E-01
         -4   -1    0    0    0  501 -0.00000000000E+00  0.00000000000E+00  0.59228597300E+03  0.59228597300E+03  0.00000000000E+00 0. -1.
          4   -1    0    0  501    0  0.00000000000E+00 -0.00000000000E+00 -0.16389050200E+04  0.16389050200E+04  0.00000000000E+00 0.  1.
    2000013    1    1    2    0    0 -0.92991357488E+02  0.24401574689E+03 -0.51984216629E+03  0.11139690100E+04  0.95000000000E+03 0.  0.
   -2000013    1    1    2    0    0  0.92991357488E+02 -0.24401574689E+03 -0.52677688067E+03  0.11172219830E+04  0.95000000000E+03 0.  0.
<mgrwt>
<rscale>  0 0.19704826E+04</rscale>
<asrwt>0</asrwt>
<pdfrwt beam="2">  1        4 0.25213924E+00 0.19704826E+04</pdfrwt>
<pdfrwt beam="1">  1       -4 0.91120918E-01 0.19704826E+04</pdfrwt>
<totfact> 0.11736561E-01</totfact>
</mgrwt>
</event>
<event>
 4    1  0.1295381E-008  0.2717520E+04  0.7816531E-02  0.8329343E-01
         -1   -1    0    0    0  501 -0.00000000000E+00  0.00000000000E+00  0.15071358985E+04  0.15071358985E+04  0.00000000000E+00 0. -1.
          1   -1    0    0  501    0  0.00000000000E+00 -0.00000000000E+00 -0.12249913429E+04  0.12249913429E+04  0.00000000000E+00 0.  1.
    2000013    1    1    2    0    0  0.87501859123E+03 -0.37862566505E+03  0.32838936879E+03  0.13854077042E+04  0.95000000000E+03 0.  0.
   -2000013    1    1    2    0    0 -0.87501859123E+03  0.37862566505E+03 -0.46244813208E+02  0.13467195372E+04  0.95000000000E+03 0.  0.
<mgrwt>
<rscale>  0 0.27175198E+04</rscale>
<asrwt>0</asrwt>
<pdfrwt beam="2">  1        1 0.18846021E+00 0.27175198E+04</pdfrwt>
<pdfrwt beam="1">  1       -1 0.23186706E+00 0.27175198E+04</pdfrwt>
<totfact> 0.81950264E-01</totfact>
</mgrwt>
</event>
<event>
 4    1  0.1295381E-008  0.2868652E+04  0.7816531E-02  0.8282266E-01
          2   -1    0    0  501    0  0.00000000000E+00  0.00000000000E+00  0.32523372318E+04  0.32523372318E+04  0.00000000000E+00 0.  1.
         -2   -1    0    0    0  501 -0.00000000000E+00 -0.00000000000E+00 -0.63255767799E+03  0.63255767799E+03  0.00000000000E+00 0. -1.
    2000013    1    1    2    0    0 -0.50681533897E+03 -0.93955632662E+03  0.14766506346E+04  0.20549026681E+04  0.95000000000E+03 0.  0.
   -2000013    1    1    2    0    0  0.50681533897E+03  0.93955632662E+03  0.11431289192E+04  0.18299922417E+04  0.95000000000E+03 0.  0.
<mgrwt>
<rscale>  0 0.28686519E+04</rscale>
<asrwt>0</asrwt>
<pdfrwt beam="1">  1        2 0.50035956E+00 0.28686519E+04</pdfrwt>
<pdfrwt beam="2">  1       -2 0.97316568E-01 0.28686519E+04</pdfrwt>
<totfact> 0.91263663E-01</totfact>
</mgrwt>
</event>
<event>
 4    1  0.1295381E-008  0.2617203E+04  0.7816531E-02  0.8362381E-01
          2   -1    0    0  501    0  0.00000000000E+00  0.00000000000E+00  0.26259622830E+04  0.26259622830E+04  0.00000000000E+00 0.  1.
         -2   -1    0    0    0  501 -0.00000000000E+00 -0.00000000000E+00 -0.65211804791E+03  0.65211804791E+03  0.00000000000E+00 0. -1.
    2000013    1    1    2    0    0  0.84331064481E+03  0.29978403017E+03  0.11050447157E+04  0.17101658200E+04  0.95000000000E+03 0.  0.
   -2000013    1    1    2    0    0 -0.84331064481E+03 -0.29978403017E+03  0.86879951937E+03  0.15679145108E+04  0.95000000000E+03 0.  0.
<mgrwt>
<rscale>  0 0.26172026E+04</rscale>
<asrwt>0</asrwt>
<pdfrwt beam="1">  1        2 0.40399419E+00 0.26172026E+04</pdfrwt>
<pdfrwt beam="2">  1       -2 0.10032585E+00 0.26172026E+04</pdfrwt>
<totfact> 0.21266036E+00</totfact>
</mgrwt>
</event>
<event>
 4    1  0.1295381E-008  0.2506478E+04  0.7816531E-02  0.8400681E-01
          2   -1    0    0  501    0  0.00000000000E+00  0.00000000000E+00  0.14108943262E+04  0.14108943262E+04  0.00000000000E+00 0.  1.
         -2   -1    0    0    0  501 -0.00000000000E+00 -0.00000000000E+00 -0.11132003534E+04  0.11132003534E+04  0.00000000000E+00 0. -1.
    2000013    1    1    2    0    0  0.33115292153E+03  0.74114107348E+03  0.24520500236E+03  0.12734118899E+04  0.95000000000E+03 0.  0.
   -2000013    1    1    2    0    0 -0.33115292153E+03 -0.74114107348E+03  0.52488970423E+02  0.12506827896E+04  0.95000000000E+03 0.  0.
<mgrwt>
<rscale>  0 0.25064781E+04</rscale>
<asrwt>0</asrwt>
<pdfrwt beam="1">  1        2 0.21706067E+00 0.25064781E+04</pdfrwt>
<pdfrwt beam="2">  1       -2 0.17126159E+00 0.25064781E+04</pdfrwt>
<totfact> 0.26550212E+00</totfact>
</mgrwt>
</event>
<event>
 4    1  0.1295381E-008  0.2413773E+04  0.7816531E-02  0.8434365E-01
         -2   -1    0    0    0  501 -0.00000000000E+00  0.00000000000E+00  0.15883093819E+04  0.15883093819E+04  0.00000000000E+00 0. -1.
          2   -1    0    0  501    0  0.00000000000E+00 -0.00000000000E+00 -0.91705987518E+03  0.91705987518E+03  0.00000000000E+00 0.  1.
    2000013    1    1    2    0    0  0.67474027759E+03  0.25259146162E+03  0.14144835717E+03  0.12006600378E+04  0.95000000000E+03 0.  0.
   -2000013    1    1    2    0    0 -0.67474027759E+03 -0.25259146162E+03  0.52980114951E+03  0.13047092192E+04  0.95000000000E+03 0.  0.
<mgrwt>
<rscale>  0 0.24137728E+04</rscale>
<asrwt>0</asrwt>
<pdfrwt beam="2">  1        2 0.14108613E+00 0.24137728E+04</pdfrwt>
<pdfrwt beam="1">  1       -2 0.24435529E+00 0.24137728E+04</pdfrwt>
<totfact> 0.17853844E+00</totfact>
</mgrwt>
</event>
<event>
 4    1  0.1295381E-008  0.2843828E+04  0.7816531E-02  0.8289789E-01
          2   -1    0    0  501    0  0.00000000000E+00  0.00000000000E+00  0.71378475432E+03  0.71378475432E+03  0.00000000000E+00 0.  1.
         -2   -1    0    0    0  501 -0.00000000000E+00 -0.00000000000E+00 -0.28325622444E+04  0.28325622444E+04  0.00000000000E+00 0. -1.
    2000013    1    1    2    0    0 -0.60440056998E+03 -0.52783270406E+03 -0.19192378115E+04  0.22868933490E+04  0.95000000000E+03 0.  0.
   -2000013    1    1    2    0    0  0.60440056998E+03  0.52783270406E+03 -0.19953967854E+03  0.12594536497E+04  0.95000000000E+03 0.  0.
<mgrwt>
<rscale>  0 0.28438282E+04</rscale>
<asrwt>0</asrwt>
<pdfrwt beam="1">  1        2 0.10981304E+00 0.28438282E+04</pdfrwt>
<pdfrwt beam="2">  1       -2 0.43577880E+00 0.28438282E+04</pdfrwt>
<totfact> 0.14923831E-01</totfact>
</mgrwt>
</event>
<event>
 4    1  0.1295381E-008  0.3290459E+04  0.7816531E-02  0.8165327E-01
          2   -1    0    0  501    0  0.00000000000E+00  0.00000000000E+00  0.16527873424E+04  0.16527873424E+04  0.00000000000E+00 0.  1.
         -2   -1    0    0    0  501 -0.00000000000E+00 -0.00000000000E+00 -0.16377058749E+04  0.16377058749E+04  0.00000000000E+00 0. -1.
    2000013    1    1    2    0    0  0.31685454700E+03  0.11556738774E+04 -0.59934340897E+03  0.16424650489E+04  0.95000000000E+03 0.  0.
   -2000013    1    1    2    0    0 -0.31685454700E+03 -0.11556738774E+04  0.61442487646E+03  0.16480281684E+04  0.95000000000E+03 0.  0.
<mgrwt>
<rscale>  0 0.32904587E+04</rscale>
<asrwt>0</asrwt>
<pdfrwt beam="1">  1        2 0.25427498E+00 0.32904587E+04</pdfrwt>
<pdfrwt beam="2">  1       -2 0.25195475E+00 0.32904587E+04</pdfrwt>
<totfact> 0.54440122E-01</totfact>
</mgrwt>
</event>
<event>
 4    1  0.1295381E-008  0.2187703E+04  0.7816531E-02  0.8523564E-01
          2   -1    0    0  501    0  0.00000000000E+00  0.00000000000E+00  0.11271803801E+04  0.11271803801E+04  0.00000000000E+00 0.  1.
         -2   -1    0    0    0  501 -0.00000000000E+00 -0.00000000000E+00 -0.10615084649E+04  0.10615084649E+04  0.00000000000E+00 0. -1.
    2000013    1    1    2    0    0 -0.51021124255E+03 -0.13897269274E+03  0.15281743141E+03  0.10979444834E+04  0.95000000000E+03 0.  0.
   -2000013    1    1    2    0    0  0.51021124255E+03  0.13897269274E+03 -0.87145516190E+02  0.10907443616E+04  0.95000000000E+03 0.  0.
<mgrwt>
<rscale>  0 0.21877034E+04</rscale>
<asrwt>0</asrwt>
<pdfrwt beam="1">  1        2 0.17341237E+00 0.21877034E+04</pdfrwt>
<pdfrwt beam="2">  1       -2 0.16330899E+00 0.21877034E+04</pdfrwt>
<totfact> 0.45682832E+00</totfact>
</mgrwt>
</event>
<event>
 4    1  0.1295381E-008  0.2497038E+04  0.7816531E-02  0.8404041E-01
         -2   -1    0    0    0  501 -0.00000000000E+00  0.00000000000E+00  0.44643910643E+03  0.44643910643E+03  0.00000000000E+00 0. -1.
          2   -1    0    0  501    0  0.00000000000E+00 -0.00000000000E+00 -0.34916302257E+04  0.34916302257E+04  0.00000000000E+00 0.  1.
    2000013    1    1    2    0    0  0.75763366079E+03 -0.26043714800E+03 -0.13329239105E+04  0.18223672581E+04  0.95000000000E+03 0.  0.
   -2000013    1    1    2    0    0 -0.75763366079E+03  0.26043714800E+03 -0.17122672087E+04  0.21157020740E+04  0.95000000000E+03 0.  0.
<mgrwt>
<rscale>  0 0.24970385E+04</rscale>
<asrwt>0</asrwt>
<pdfrwt beam="2">  1        2 0.53717386E+00 0.24970385E+04</pdfrwt>
<pdfrwt beam="1">  1       -2 0.68682942E-01 0.24970385E+04</pdfrwt>
<totfact> 0.14261757E+00</totfact>
</mgrwt>
</event>
<event>
 4    1  0.1295381E-008  0.2723408E+04  0.7816531E-02  0.8327450E-01
         -2   -1    0    0    0  501 -0.00000000000E+00  0.00000000000E+00  0.71798863200E+03  0.71798863200E+03  0.00000000000E+00 0. -1.
          2   -1    0    0  501    0  0.00000000000E+00 -0.00000000000E+00 -0.25825455002E+04  0.25825455002E+04  0.00000000000E+00 0.  1.
    2000013    1    1    2    0    0 -0.35777029143E+03  0.84167764506E+03 -0.52073183924E+03  0.14177737789E+04  0.95000000000E+03 0.  0.
   -2000013    1    1    2    0    0  0.35777029143E+03 -0.84167764506E+03 -0.13438250289E+04  0.18827603533E+04  0.95000000000E+03 0.  0.
<mgrwt>
<rscale>  0 0.27234084E+04</rscale>
<asrwt>0</asrwt>
<pdfrwt beam="2">  1        2 0.39731469E+00 0.27234084E+04</pdfrwt>
<pdfrwt beam="1">  1       -2 0.11045979E+00 0.27234084E+04</pdfrwt>
<totfact> 0.17740331E+00</totfact>
</mgrwt>
</event>
<event>
 4    1  0.1295381E-008  0.2608950E+04  0.7816531E-02  0.8365167E-01
         -2   -1    0    0    0  501 -0.00000000000E+00  0.00000000000E+00  0.15526395588E+04  0.15526395588E+04  0.00000000000E+00 0. -1.
          2   -1    0    0  501    0  0.00000000000E+00 -0.00000000000E+00 -0.10959754783E+04  0.10959754783E+04  0.00000000000E+00 0.  1.
    2000013    1    1    2    0    0 -0.27546273332E+03 -0.85036119590E+03  0.21545046618E+03  0.13220865268E+04  0.95000000000E+03 0.  0.
   -2000013    1    1    2    0    0  0.27546273332E+03  0.85036119590E+03  0.24121361433E+03  0.13265285103E+04  0.95000000000E+03 0.  0.
<mgrwt>
<rscale>  0 0.26089499E+04</rscale>
<asrwt>0</asrwt>
<pdfrwt beam="2">  1        2 0.16861161E+00 0.26089499E+04</pdfrwt>
<pdfrwt beam="1">  1       -2 0.23886762E+00 0.26089499E+04</pdfrwt>
<totfact> 0.14579287E+00</totfact>
</mgrwt>
</event>
<event>
 4    1  0.1295381E-008  0.2864577E+04  0.7816531E-02  0.8283496E-01
          1   -1    0    0  501    0  0.00000000000E+00  0.00000000000E+00  0.25296408579E+04  0.25296408579E+04  0.00000000000E+00 0.  1.
         -1   -1    0    0    0  501 -0.00000000000E+00 -0.00000000000E+00 -0.81096508055E+03  0.81096508055E+03  0.00000000000E+00 0. -1.
    2000013    1    1    2    0    0 -0.99096571230E+03 -0.15474801430E+03  0.41835859251E+03  0.14434278308E+04  0.95000000000E+03 0.  0.
   -2000013    1    1    2    0    0  0.99096571230E+03  0.15474801430E+03  0.13003171849E+04  0.18971781076E+04  0.95000000000E+03 0.  0.
<mgrwt>
<rscale>  0 0.28645770E+04</rscale>
<asrwt>0</asrwt>
<pdfrwt beam="1">  1        1 0.38917551E+00 0.28645770E+04</pdfrwt>
<pdfrwt beam="2">  1       -1 0.12476386E+00 0.28645770E+04</pdfrwt>
<totfact> 0.62515468E-01</totfact>
</mgrwt>
</event>
<event>
 4    1  0.1295381E-008  0.3031662E+04  0.7816531E-02  0.8234747E-01
         -2   -1    0    0    0  501 -0.00000000000E+00  0.00000000000E+00  0.87884115484E+03  0.87884115484E+03  0.00000000000E+00 0. -1.
          2   -1    0    0  501    0  0.00000000000E+00 -0.00000000000E+00 -0.26145146845E+04  0.26145146845E+04  0.00000000000E+00 0.  1.
    2000013    1    1    2    0    0 -0.19862305051E+03 -0.10554830035E+04 -0.30128030444E+03  0.14651843941E+04  0.95000000000E+03 0.  0.
   -2000013    1    1    2    0    0  0.19862305051E+03  0.10554830035E+04 -0.14343932252E+04  0.20281714453E+04  0.95000000000E+03 0.  0.
<mgrwt>
<rscale>  0 0.30316617E+04</rscale>
<asrwt>0</asrwt>
<pdfrwt beam="2">  1        2 0.40223302E+00 0.30316617E+04</pdfrwt>
<pdfrwt beam="1">  1       -2 0.13520633E+00 0.30316617E+04</pdfrwt>
<totfact> 0.10008899E+00</totfact>
</mgrwt>
</event>
<event>
 4    1  0.1295381E-008  0.2882965E+04  0.7816531E-02  0.8277964E-01
         -2   -1    0    0    0  501 -0.00000000000E+00  0.00000000000E+00  0.74902492696E+03  0.74902492696E+03  0.00000000000E+00 0. -1.
          2   -1    0    0  501    0  0.00000000000E+00 -0.00000000000E+00 -0.27741021624E+04  0.27741021624E+04  0.00000000000E+00 0.  1.
    2000013    1    1    2    0    0  0.40793319918E+03  0.30064238719E+03  0.15870322228E+03  0.10883391258E+04  0.95000000000E+03 0.  0.
   -2000013    1    1    2    0    0 -0.40793319918E+03 -0.30064238719E+03 -0.21837804578E+04  0.24347879636E+04  0.95000000000E+03 0.  0.
<mgrwt>
<rscale>  0 0.28829649E+04</rscale>
<asrwt>0</asrwt>
<pdfrwt beam="2">  1        2 0.42678495E+00 0.28829649E+04</pdfrwt>
<pdfrwt beam="1">  1       -2 0.11523460E+00 0.28829649E+04</pdfrwt>
<totfact> 0.12151301E+00</totfact>
</mgrwt>
</event>
<event>
 4    1  0.1295381E-008  0.2736384E+04  0.7816531E-02  0.8323295E-01
          2   -1    0    0  501    0  0.00000000000E+00  0.00000000000E+00  0.16723142593E+04  0.16723142593E+04  0.00000000000E+00 0.  1.
         -2   -1    0    0    0  501 -0.00000000000E+00 -0.00000000000E+00 -0.11193767377E+04  0.11193767377E+04  0.00000000000E+00 0. -1.
    2000013    1    1    2    0    0 -0.61421495854E+03  0.18743385127E+03 -0.48497977734E+03  0.12450288544E+04  0.95000000000E+03 0.  0.
   -2000013    1    1    2    0    0  0.61421495854E+03 -0.18743385127E+03  0.10379172989E+04  0.15466621426E+04  0.95000000000E+03 0.  0.
<mgrwt>
<rscale>  0 0.27363842E+04</rscale>
<asrwt>0</asrwt>
<pdfrwt beam="1">  1        2 0.25727912E+00 0.27363842E+04</pdfrwt>
<pdfrwt beam="2">  1       -2 0.17221181E+00 0.27363842E+04</pdfrwt>
<totfact> 0.18274412E+00</totfact>
</mgrwt>
</event>
<event>
 4    1  0.1295381E-008  0.2011106E+04  0.7816531E-02  0.8601446E-01
          2   -1    0    0  501    0  0.00000000000E+00  0.00000000000E+00  0.12894155599E+04  0.12894155599E+04  0.00000000000E+00 0.  1.
         -2   -1    0    0    0  501 -0.00000000000E+00 -0.00000000000E+00 -0.78418196425E+03  0.78418196425E+03  0.00000000000E+00 0. -1.
    2000013    1    1    2    0    0 -0.31930035420E+03 -0.59029509744E+02  0.19429751983E+03  0.10225892261E+04  0.95000000000E+03 0.  0.
   -2000013    1    1    2    0    0  0.31930035420E+03  0.59029509744E+02  0.31093607580E+03  0.10510082980E+04  0.95000000000E+03 0.  0.
<mgrwt>
<rscale>  0 0.20111056E+04</rscale>
<asrwt>0</asrwt>
<pdfrwt beam="1">  1        2 0.19837162E+00 0.20111056E+04</pdfrwt>
<pdfrwt beam="2">  1       -2 0.12064338E+00 0.20111056E+04</pdfrwt>
<totfact> 0.81572371E+00</totfact>
</mgrwt>
</event>
<event>
 4    1  0.1295381E-008  0.4778551E+04  0.7816531E-02  0.7863606E-01
          1   -1    0    0  501    0  0.00000000000E+00  0.00000000000E+00  0.31782478301E+04  0.31782478301E+04  0.00000000000E+00 0.  1.
         -1   -1    0    0    0  501 -0.00000000000E+00 -0.00000000000E+00 -0.17961583636E+04  0.17961583636E+04  0.00000000000E+00 0. -1.
    2000013    1    1    2    0    0  0.34817158641E+03  0.20802884933E+04  0.13133010531E+04  0.26600908490E+04  0.95000000000E+03 0.  0.
   -2000013    1    1    2    0    0 -0.34817158641E+03 -0.20802884933E+04  0.68788413426E+02  0.23143153447E+04  0.95000000000E+03 0.  0.
<mgrwt>
<rscale>  0 0.47785506E+04</rscale>
<asrwt>0</asrwt>
<pdfrwt beam="1">  1        1 0.48896121E+00 0.47785506E+04</pdfrwt>
<pdfrwt beam="2">  1       -1 0.27633206E+00 0.47785506E+04</pdfrwt>
<totfact> 0.15236842E-02</totfact>
</mgrwt>
</event>
<event>
 4    1  0.1295381E-008  0.2097548E+04  0.7816531E-02  0.8562324E-01
         -2   -1    0    0    0  501 -0.00000000000E+00  0.00000000000E+00  0.14312664040E+04  0.14312664040E+04  0.00000000000E+00 0. -1.
          2   -1    0    0  501    0  0.00000000000E+00 -0.00000000000E+00 -0.76849916898E+03  0.76849916898E+03  0.00000000000E+00 0.  1.
    2000013    1    1    2    0    0 -0.20457158303E+03  0.11776641018E+03 -0.63403108491E+02  0.98093751795E+03  0.95000000000E+03 0.  0.
   -2000013    1    1    2    0    0  0.20457158303E+03 -0.11776641018E+03  0.72617034353E+03  0.12188280550E+04  0.95000000000E+03 0.  0.
<mgrwt>
<rscale>  0 0.20975481E+04</rscale>
<asrwt>0</asrwt>
<pdfrwt beam="2">  1        2 0.11823064E+00 0.20975481E+04</pdfrwt>
<pdfrwt beam="1">  1       -2 0.22019483E+00 0.20975481E+04</pdfrwt>
<totfact> 0.32983872E+00</totfact>
</mgrwt>
</event>
<event>
 4    1  0.1295381E-008  0.1948332E+04  0.7816531E-02  0.8631165E-01
         -1   -1    0    0    0  501 -0.00000000000E+00  0.00000000000E+00  0.93445520093E+03  0.93445520093E+03  0.00000000000E+00 0. -1.
          1   -1    0    0  501    0  0.00000000000E+00 -0.00000000000E+00 -0.10155648373E+04  0.10155648373E+04  0.00000000000E+00 0.  1.
    2000013    1    1    2    0    0  0.20559522787E+03  0.16634636934E+02 -0.10348801564E+03  0.97762767875E+03  0.95000000000E+03 0.  0.
   -2000013    1    1    2    0    0 -0.20559522787E+03 -0.16634636934E+02  0.22378379309E+02  0.97239235946E+03  0.95000000000E+03 0.  0.
<mgrwt>
<rscale>  0 0.19483325E+04</rscale>
<asrwt>0</asrwt>
<pdfrwt beam="2">  1        1 0.15624074E+00 0.19483325E+04</pdfrwt>
<pdfrwt beam="1">  1       -1 0.14376234E+00 0.19483325E+04</pdfrwt>
<totfact> 0.53593192E+00</totfact>
</mgrwt>
</event>
<event>
 4    1  0.1295381E-008  0.2031892E+04  0.7816531E-02  0.8591854E-01
          2   -1    0    0  501    0  0.00000000000E+00  0.00000000000E+00  0.96787297601E+03  0.96787297601E+03  0.00000000000E+00 0. -1.
         -2   -1    0    0    0  501 -0.00000000000E+00 -0.00000000000E+00 -0.10664066008E+04  0.10664066008E+04  0.00000000000E+00 0.  1.
    2000013    1    1    2    0    0  0.23344618276E+03 -0.24714076396E+03  0.69491519093E+02  0.10113875363E+04  0.95000000000E+03 0.  0.
   -2000013    1    1    2    0    0 -0.23344618276E+03  0.24714076396E+03 -0.16802514388E+03  0.10228920405E+04  0.95000000000E+03 0.  0.
<mgrwt>
<rscale>  0 0.20318919E+04</rscale>
<asrwt>0</asrwt>
<pdfrwt beam="1">  1        2 0.14890353E+00 0.20318919E+04</pdfrwt>
<pdfrwt beam="2">  1       -2 0.16406255E+00 0.20318919E+04</pdfrwt>
<totfact> 0.57579217E+00</totfact>
</mgrwt>
</event>
<event>
 4    1  0.1295381E-008  0.2074424E+04  0.7816531E-02  0.8572594E-01
          1   -1    0    0  501    0  0.00000000000E+00  0.00000000000E+00  0.28258178132E+04  0.28258178132E+04  0.00000000000E+00 0.  1.
         -1   -1    0    0    0  501 -0.00000000000E+00 -0.00000000000E+00 -0.38070686194E+03  0.38070686194E+03  0.00000000000E+00 0. -1.
    2000013    1    1    2    0    0 -0.13700569736E+03  0.30880684688E+03  0.15985746316E+04  0.18899928790E+04  0.95000000000E+03 0.  0.
   -2000013    1    1    2    0    0  0.13700569736E+03 -0.30880684688E+03  0.84653631963E+03  0.13165317961E+04  0.95000000000E+03 0.  0.
<mgrwt>
<rscale>  0 0.20744235E+04</rscale>
<asrwt>0</asrwt>
<pdfrwt beam="1">  1        1 0.43474119E+00 0.20744235E+04</pdfrwt>
<pdfrwt beam="2">  1       -1 0.58570288E-01 0.20744235E+04</pdfrwt>
<totfact> 0.21769626E+00</totfact>
</mgrwt>
</event>
<event>
 4    1  0.1295381E-008  0.2268287E+04  0.7816531E-02  0.8490531E-01
          2   -1    0    0  501    0  0.00000000000E+00  0.00000000000E+00  0.39305291808E+04  0.39305291808E+04  0.00000000000E+00 0.  1.
         -2   -1    0    0    0  501 -0.00000000000E+00 -0.00000000000E+00 -0.32725412038E+03  0.32725412038E+03  0.00000000000E+00 0. -1.
    2000013    1    1    2    0    0 -0.18049421024E+03 -0.47074704612E+03  0.24773929549E+04  0.27007696670E+04  0.95000000000E+03 0.  0.
   -2000013    1    1    2    0    0  0.18049421024E+03  0.47074704612E+03  0.11258821055E+04  0.15570136341E+04  0.95000000000E+03 0.  0.
<mgrwt>
<rscale>  0 0.22682873E+04</rscale>
<asrwt>0</asrwt>
<pdfrwt beam="1">  1        2 0.60469677E+00 0.22682873E+04</pdfrwt>
<pdfrwt beam="2">  1       -2 0.50346790E-01 0.22682873E+04</pdfrwt>
<totfact> 0.13264873E+00</totfact>
</mgrwt>
</event>
<event>
 4    1  0.1295381E-008  0.2442901E+04  0.7816531E-02  0.8423614E-01
          2   -1    0    0  501    0  0.00000000000E+00  0.00000000000E+00  0.19473785404E+04  0.19473785404E+04  0.00000000000E+00 0.  1.
         -2   -1    0    0    0  501 -0.00000000000E+00 -0.00000000000E+00 -0.76612811194E+03  0.76612811194E+03  0.00000000000E+00 0. -1.
    2000013    1    1    2    0    0 -0.76674783102E+03  0.25388230865E+02  0.62384911009E+03  0.13712164347E+04  0.95000000000E+03 0.  0.
   -2000013    1    1    2    0    0  0.76674783102E+03 -0.25388230865E+02  0.55740131838E+03  0.13422902176E+04  0.95000000000E+03 0.  0.
<mgrwt>
<rscale>  0 0.24429011E+04</rscale>
<asrwt>0</asrwt>
<pdfrwt beam="1">  1        2 0.29959670E+00 0.24429011E+04</pdfrwt>
<pdfrwt beam="2">  1       -2 0.11786586E+00 0.24429011E+04</pdfrwt>
<totfact> 0.35553019E+00</totfact>
</mgrwt>
</event>
<event>
 4    1  0.1295381E-008  0.3268207E+04  0.7816531E-02  0.8171033E-01
         -1   -1    0    0    0  501 -0.00000000000E+00  0.00000000000E+00  0.15520577968E+04  0.15520577968E+04  0.00000000000E+00 0. -1.
          1   -1    0    0  501    0  0.00000000000E+00 -0.00000000000E+00 -0.17204862429E+04  0.17204862429E+04  0.00000000000E+00 0.  1.
    2000013    1    1    2    0    0 -0.51346221297E+03  0.10858603537E+04  0.48668091377E+03  0.16068896862E+04  0.95000000000E+03 0.  0.
   -2000013    1    1    2    0    0  0.51346221297E+03 -0.10858603537E+04 -0.65510935986E+03  0.16656543534E+04  0.95000000000E+03 0.  0.
<mgrwt>
<rscale>  0 0.32682069E+04</rscale>
<asrwt>0</asrwt>
<pdfrwt beam="2">  1        1 0.26469019E+00 0.32682069E+04</pdfrwt>
<pdfrwt beam="1">  1       -1 0.23877812E+00 0.32682069E+04</pdfrwt>
<totfact> 0.31706598E-01</totfact>
</mgrwt>
</event>
<event>
 4    1  0.1295381E-008  0.2793027E+04  0.7816531E-02  0.8305437E-01
          2   -1    0    0  501    0  0.00000000000E+00  0.00000000000E+00  0.34089537199E+04  0.34089537199E+04  0.00000000000E+00 0.  1.
         -2   -1    0    0    0  501 -0.00000000000E+00 -0.00000000000E+00 -0.57209620340E+03  0.57209620340E+03  0.00000000000E+00 0. -1.
    2000013    1    1    2    0    0 -0.76606670802E+03 -0.60501138819E+03  0.97944653567E+03  0.16777104927E+04  0.95000000000E+03 0.  0.
   -2000013    1    1    2    0    0  0.76606670802E+03  0.60501138819E+03  0.18574109808E+04  0.23033394306E+04  0.95000000000E+03 0.  0.
<mgrwt>
<rscale>  0 0.27930267E+04</rscale>
<asrwt>0</asrwt>
<pdfrwt beam="1">  1        2 0.52445440E+00 0.27930267E+04</pdfrwt>
<pdfrwt beam="2">  1       -2 0.88014803E-01 0.27930267E+04</pdfrwt>
<totfact> 0.91034339E-01</totfact>
</mgrwt>
</event>
<event>
 4    1  0.1295381E-008  0.2849326E+04  0.7816531E-02  0.8288116E-01
          2   -1    0    0  501    0  0.00000000000E+00  0.00000000000E+00  0.14112470955E+04  0.14112470955E+04  0.00000000000E+00 0.  1.
         -2   -1    0    0    0  501 -0.00000000000E+00 -0.00000000000E+00 -0.14382063348E+04  0.14382063348E+04  0.00000000000E+00 0. -1.
    2000013    1    1    2    0    0  0.31929306475E+03  0.75334847719E+03 -0.69003227561E+03  0.14311277129E+04  0.95000000000E+03 0.  0.
   -2000013    1    1    2    0    0 -0.31929306475E+03 -0.75334847719E+03  0.66307303629E+03  0.14183257174E+04  0.95000000000E+03 0.  0.
<mgrwt>
<rscale>  0 0.28493259E+04</rscale>
<asrwt>0</asrwt>
<pdfrwt beam="1">  1        2 0.21711494E+00 0.28493259E+04</pdfrwt>
<pdfrwt beam="2">  1       -2 0.22126251E+00 0.28493259E+04</pdfrwt>
<totfact> 0.11990347E+00</totfact>
</mgrwt>
</event>
<event>
 4    1  0.1295381E-008  0.2550957E+04  0.7816531E-02  0.8385053E-01
          1   -1    0    0  501    0  0.00000000000E+00  0.00000000000E+00  0.16498900937E+04  0.16498900937E+04  0.00000000000E+00 0. -1.
         -1   -1    0    0    0  501 -0.00000000000E+00 -0.00000000000E+00 -0.98603247721E+03  0.98603247721E+03  0.00000000000E+00 0.  1.
    2000013    1    1    2    0    0 -0.77702650600E+02 -0.80147715612E+03  0.47174557917E+02  0.12462458717E+04  0.95000000000E+03 0.  0.
   -2000013    1    1    2    0    0  0.77702650600E+02  0.80147715612E+03  0.61668305856E+03  0.13896766992E+04  0.95000000000E+03 0.  0.
<mgrwt>
<rscale>  0 0.25509569E+04</rscale>
<asrwt>0</asrwt>
<pdfrwt beam="1">  1        1 0.25382924E+00 0.25509569E+04</pdfrwt>
<pdfrwt beam="2">  1       -1 0.15169730E+00 0.25509569E+04</pdfrwt>
<totfact> 0.15437971E+00</totfact>
</mgrwt>
</event>
<event>
 4    1  0.1295381E-008  0.2188936E+04  0.7816531E-02  0.8523047E-01
         -2   -1    0    0    0  501 -0.00000000000E+00  0.00000000000E+00  0.68856404455E+03  0.68856404455E+03  0.00000000000E+00 0. -1.
          2   -1    0    0  501    0  0.00000000000E+00 -0.00000000000E+00 -0.17396494388E+04  0.17396494388E+04  0.00000000000E+00 0.  1.
    2000013    1    1    2    0    0 -0.73322096584E+02 -0.48227699698E+03 -0.25978697800E+03  0.10990707464E+04  0.95000000000E+03 0.  0.
   -2000013    1    1    2    0    0  0.73322096584E+02  0.48227699698E+03 -0.79129841629E+03  0.13291427370E+04  0.95000000000E+03 0.  0.
<mgrwt>
<rscale>  0 0.21889359E+04</rscale>
<asrwt>0</asrwt>
<pdfrwt beam="2">  1        2 0.26763837E+00 0.21889359E+04</pdfrwt>
<pdfrwt beam="1">  1       -2 0.10593293E+00 0.21889359E+04</pdfrwt>
<totfact> 0.61369903E+00</totfact>
</mgrwt>
</event>
<event>
 4    1  0.1295381E-008  0.2075873E+04  0.7816531E-02  0.8571947E-01
         -2   -1    0    0    0  501 -0.00000000000E+00  0.00000000000E+00  0.53191462323E+03  0.53191462323E+03  0.00000000000E+00 0.  1.
          2   -1    0    0  501    0  0.00000000000E+00 -0.00000000000E+00 -0.20253470119E+04  0.20253470119E+04  0.00000000000E+00 0. -1.
    2000013    1    1    2    0    0  0.40376384900E+03 -0.26069590107E+02 -0.61688788089E+03  0.12028115093E+04  0.95000000000E+03 0.  0.
   -2000013    1    1    2    0    0 -0.40376384900E+03  0.26069590107E+02 -0.87654450778E+03  0.13544501258E+04  0.95000000000E+03 0.  0.
<mgrwt>
<rscale>  0 0.20758725E+04</rscale>
<asrwt>0</asrwt>
<pdfrwt beam="2">  1        2 0.31159185E+00 0.20758725E+04</pdfrwt>
<pdfrwt beam="1">  1       -2 0.81833019E-01 0.20758725E+04</pdfrwt>
<totfact> 0.78427909E+00</totfact>
</mgrwt>
</event>
<event>
 4    1  0.1295381E-008  0.2938035E+04  0.7816531E-02  0.8261650E-01
         -2   -1    0    0    0  501 -0.00000000000E+00  0.00000000000E+00  0.71004088399E+03  0.71004088399E+03  0.00000000000E+00 0. -1.
          2   -1    0    0  501    0  0.00000000000E+00 -0.00000000000E+00 -0.30392792397E+04  0.30392792397E+04  0.00000000000E+00 0.  1.
    2000013    1    1    2    0    0  0.21611937268E+03 -0.97566431541E+03 -0.18114104356E+04  0.22764745125E+04  0.95000000000E+03 0.  0.
   -2000013    1    1    2    0    0 -0.21611937268E+03  0.97566431541E+03 -0.51782792006E+03  0.14728456112E+04  0.95000000000E+03 0.  0.
<mgrwt>
<rscale>  0 0.29380351E+04</rscale>
<asrwt>0</asrwt>
<pdfrwt beam="2">  1        2 0.46758143E+00 0.29380351E+04</pdfrwt>
<pdfrwt beam="1">  1       -2 0.10923706E+00 0.29380351E+04</pdfrwt>
<totfact> 0.94502020E-01</totfact>
</mgrwt>
</event>
<event>
 4    1  0.1295381E-008  0.2320905E+04  0.7816531E-02  0.8469724E-01
         -2   -1    0    0    0  501 -0.00000000000E+00  0.00000000000E+00  0.10302251530E+04  0.10302251530E+04  0.00000000000E+00 0. -1.
          2   -1    0    0  501    0  0.00000000000E+00 -0.00000000000E+00 -0.13071419320E+04  0.13071419320E+04  0.00000000000E+00 0.  1.
    2000013    1    1    2    0    0 -0.15815080778E+03  0.63981882793E+03 -0.38910509334E+02  0.11568897261E+04  0.95000000000E+03 0.  0.
   -2000013    1    1    2    0    0  0.15815080778E+03 -0.63981882793E+03 -0.23800626969E+03  0.11804773589E+04  0.95000000000E+03 0.  0.
<mgrwt>
<rscale>  0 0.23209054E+04</rscale>
<asrwt>0</asrwt>
<pdfrwt beam="2">  1        2 0.20109876E+00 0.23209054E+04</pdfrwt>
<pdfrwt beam="1">  1       -2 0.15849618E+00 0.23209054E+04</pdfrwt>
<totfact> 0.38304377E+00</totfact>
</mgrwt>
</event>
<event>
 4    1  0.1295381E-008  0.3964322E+04  0.7816531E-02  0.8011783E-01
          2   -1    0    0  501    0  0.00000000000E+00  0.00000000000E+00  0.21513380680E+04  0.21513380680E+04  0.00000000000E+00 0.  1.
         -2   -1    0    0    0  501 -0.00000000000E+00 -0.00000000000E+00 -0.18262876173E+04  0.18262876173E+04  0.00000000000E+00 0. -1.
    2000013    1    1    2    0    0  0.16485894362E+04 -0.55273193321E+03  0.10663951872E+03  0.19842458785E+04  0.95000000000E+03 0.  0.
   -2000013    1    1    2    0    0 -0.16485894362E+04  0.55273193321E+03  0.21841093200E+03  0.19933798069E+04  0.95000000000E+03 0.  0.
<mgrwt>
<rscale>  0 0.39643219E+04</rscale>
<asrwt>0</asrwt>
<pdfrwt beam="1">  1        2 0.33097509E+00 0.39643219E+04</pdfrwt>
<pdfrwt beam="2">  1       -2 0.28096733E+00 0.39643219E+04</pdfrwt>
<totfact> 0.18076629E-01</totfact>
</mgrwt>
</event>
<event>
 4    1  0.1295381E-008  0.2485162E+04  0.7816531E-02  0.8408291E-01
          2   -1    0    0  501    0  0.00000000000E+00  0.00000000000E+00  0.34090851617E+04  0.34090851617E+04  0.00000000000E+00 0.  1.
         -2   -1    0    0    0  501 -0.00000000000E+00 -0.00000000000E+00 -0.45290962821E+03  0.45290962821E+03  0.00000000000E+00 0. -1.
    2000013    1    1    2    0    0 -0.72296350302E+02 -0.72949111541E+03  0.19795419365E+04  0.23148369982E+04  0.95000000000E+03 0.  0.
   -2000013    1    1    2    0    0  0.72296350302E+02  0.72949111541E+03  0.97663359697E+03  0.15471577917E+04  0.95000000000E+03 0.  0.
<mgrwt>
<rscale>  0 0.24851620E+04</rscale>
<asrwt>0</asrwt>
<pdfrwt beam="1">  1        2 0.52447462E+00 0.24851620E+04</pdfrwt>
<pdfrwt beam="2">  1       -2 0.69678406E-01 0.24851620E+04</pdfrwt>
<totfact> 0.15776429E+00</totfact>
</mgrwt>
</event>
<event>
 4    1  0.1295381E-008  0.2529538E+04  0.7816531E-02  0.8392537E-01
         -2   -1    0    0    0  501 -0.00000000000E+00  0.00000000000E+00  0.95910479600E+03  0.95910479600E+03  0.00000000000E+00 0. -1.
          2   -1    0    0  501    0  0.00000000000E+00 -0.00000000000E+00 -0.16678475694E+04  0.16678475694E+04  0.00000000000E+00 0.  1.
    2000013    1    1    2    0    0  0.60110624454E+03 -0.57679937741E+03 -0.29641575252E+03  0.12978399506E+04  0.95000000000E+03 0.  0.
   -2000013    1    1    2    0    0 -0.60110624454E+03  0.57679937741E+03 -0.41232702086E+03  0.13291124148E+04  0.95000000000E+03 0.  0.
<mgrwt>
<rscale>  0 0.25295380E+04</rscale>
<asrwt>0</asrwt>
<pdfrwt beam="2">  1        2 0.25659193E+00 0.25295380E+04</pdfrwt>
<pdfrwt beam="1">  1       -2 0.14755459E+00 0.25295380E+04</pdfrwt>
<totfact> 0.28459788E+00</totfact>
</mgrwt>
</event>
<event>
 4    1  0.1295381E-008  0.3157365E+04  0.7816531E-02  0.8200169E-01
         -2   -1    0    0    0  501 -0.00000000000E+00  0.00000000000E+00  0.10059095956E+04  0.10059095956E+04  0.00000000000E+00 0. -1.
          2   -1    0    0  501    0  0.00000000000E+00 -0.00000000000E+00 -0.24775962959E+04  0.24775962959E+04  0.00000000000E+00 0.  1.
    2000013    1    1    2    0    0 -0.36184530076E+03  0.62727846816E+03  0.40291977066E+03  0.12606564321E+04  0.95000000000E+03 0.  0.
   -2000013    1    1    2    0    0  0.36184530076E+03 -0.62727846816E+03 -0.18746064709E+04  0.22228494594E+04  0.95000000000E+03 0.  0.
<mgrwt>
<rscale>  0 0.31573647E+04</rscale>
<asrwt>0</asrwt>
<pdfrwt beam="2">  1        2 0.38116866E+00 0.31573647E+04</pdfrwt>
<pdfrwt beam="1">  1       -2 0.15475532E+00 0.31573647E+04</pdfrwt>
<totfact> 0.83542782E-01</totfact>
</mgrwt>
</event>
<event>
 4    1  0.1295381E-008  0.2707067E+04  0.7816531E-02  0.8332716E-01
          2   -1    0    0  501    0  0.00000000000E+00  0.00000000000E+00  0.62734961465E+03  0.62734961465E+03  0.00000000000E+00 0.  1.
         -2   -1    0    0    0  501 -0.00000000000E+00 -0.00000000000E+00 -0.29203066847E+04  0.29203066847E+04  0.00000000000E+00 0. -1.
    2000013    1    1    2    0    0 -0.41436654294E+03 -0.82935179370E+03 -0.14932810287E+04  0.19979770420E+04  0.95000000000E+03 0.  0.
   -2000013    1    1    2    0    0  0.41436654294E+03  0.82935179370E+03 -0.79967604134E+03  0.15496792574E+04  0.95000000000E+03 0.  0.
<mgrwt>
<rscale>  0 0.27070672E+04</rscale>
<asrwt>0</asrwt>
<pdfrwt beam="1">  1        2 0.96515327E-01 0.27070672E+04</pdfrwt>
<pdfrwt beam="2">  1       -2 0.44927794E+00 0.27070672E+04</pdfrwt>
<totfact> 0.14434167E-01</totfact>
</mgrwt>
</event>
<event>
 4    1  0.1295381E-008  0.4487970E+04  0.7816531E-02  0.7912746E-01
         -2   -1    0    0    0  501 -0.00000000000E+00  0.00000000000E+00  0.13504959598E+04  0.13504959598E+04  0.00000000000E+00 0. -1.
          2   -1    0    0  501    0  0.00000000000E+00 -0.00000000000E+00 -0.37286073531E+04  0.37286073531E+04  0.00000000000E+00 0.  1.
    2000013    1    1    2    0    0  0.19692217250E+04 -0.23278485349E+03 -0.68174157290E+03  0.23020196703E+04  0.95000000000E+03 0.  0.
   -2000013    1    1    2    0    0 -0.19692217250E+04  0.23278485349E+03 -0.16963698204E+04  0.27770836426E+04  0.95000000000E+03 0.  0.
<mgrwt>
<rscale>  0 0.44879702E+04</rscale>
<asrwt>0</asrwt>
<pdfrwt beam="2">  1        2 0.57363190E+00 0.44879702E+04</pdfrwt>
<pdfrwt beam="1">  1       -2 0.20776861E+00 0.44879702E+04</pdfrwt>
<totfact> 0.49760486E-02</totfact>
</mgrwt>
</event>
<event>
 4    1  0.1295381E-008  0.2375946E+04  0.7816531E-02  0.8448564E-01
         -2   -1    0    0    0  501 -0.00000000000E+00  0.00000000000E+00  0.98116099181E+03  0.98116099181E+03  0.00000000000E+00 0. -1.
          2   -1    0    0  501    0  0.00000000000E+00 -0.00000000000E+00 -0.14383769478E+04  0.14383769478E+04  0.00000000000E+00 0.  1.
    2000013    1    1    2    0    0  0.44962954787E+02  0.61833278620E+03 -0.58781512901E+03  0.12776477322E+04  0.95000000000E+03 0.  0.
   -2000013    1    1    2    0    0 -0.44962954787E+02 -0.61833278620E+03  0.13059917298E+03  0.11418902074E+04  0.95000000000E+03 0.  0.
<mgrwt>
<rscale>  0 0.23759456E+04</rscale>
<asrwt>0</asrwt>
<pdfrwt beam="2">  1        2 0.22128876E+00 0.23759456E+04</pdfrwt>
<pdfrwt beam="1">  1       -2 0.15094785E+00 0.23759456E+04</pdfrwt>
<totfact> 0.36530727E+00</totfact>
</mgrwt>
</event>
<event>
 4    1  0.1295381E-008  0.3617996E+04  0.7816531E-02  0.8086382E-01
         -2   -1    0    0    0  501 -0.00000000000E+00  0.00000000000E+00  0.23758954366E+04  0.23758954366E+04  0.00000000000E+00 0. -1.
          2   -1    0    0  501    0  0.00000000000E+00 -0.00000000000E+00 -0.13773641875E+04  0.13773641875E+04  0.00000000000E+00 0.  1.
    2000013    1    1    2    0    0  0.27328778304E+03  0.71721636931E+03  0.18836568246E+04  0.22449384325E+04  0.95000000000E+03 0.  0.
   -2000013    1    1    2    0    0 -0.27328778304E+03 -0.71721636931E+03 -0.88512557549E+03  0.15083211916E+04  0.95000000000E+03 0.  0.
<mgrwt>
<rscale>  0 0.36179957E+04</rscale>
<asrwt>0</asrwt>
<pdfrwt beam="2">  1        2 0.21190218E+00 0.36179957E+04</pdfrwt>
<pdfrwt beam="1">  1       -2 0.36552237E+00 0.36179957E+04</pdfrwt>
<totfact> 0.15039989E-01</totfact>
</mgrwt>
</event>
<event>
 4    1  0.1295381E-008  0.2735912E+04  0.7816531E-02  0.8323446E-01
         -2   -1    0    0    0  501 -0.00000000000E+00  0.00000000000E+00  0.10724689709E+04  0.10724689709E+04  0.00000000000E+00 0. -1.
          2   -1    0    0  501    0  0.00000000000E+00 -0.00000000000E+00 -0.17448558849E+04  0.17448558849E+04  0.00000000000E+00 0.  1.
    2000013    1    1    2    0    0  0.84925617147E+03 -0.48938745404E+03 -0.24370046027E+03  0.13865879126E+04  0.95000000000E+03 0.  0.
   -2000013    1    1    2    0    0 -0.84925617147E+03  0.48938745404E+03 -0.42868645377E+03  0.14307369432E+04  0.95000000000E+03 0.  0.
<mgrwt>
<rscale>  0 0.27359121E+04</rscale>
<asrwt>0</asrwt>
<pdfrwt beam="2">  1        2 0.26843936E+00 0.27359121E+04</pdfrwt>
<pdfrwt beam="1">  1       -2 0.16499523E+00 0.27359121E+04</pdfrwt>
<totfact> 0.18756030E+00</totfact>
</mgrwt>
</event>
<event>
 4    1  0.1295381E-008  0.2980541E+04  0.7816531E-02  0.8249309E-01
         -2   -1    0    0    0  501 -0.00000000000E+00  0.00000000000E+00  0.61319957232E+03  0.61319957232E+03  0.00000000000E+00 0. -1.
          2   -1    0    0  501    0  0.00000000000E+00 -0.00000000000E+00 -0.36218326747E+04  0.36218326747E+04  0.00000000000E+00 0.  1.
    2000013    1    1    2    0    0 -0.80665573526E+03 -0.81510578486E+03 -0.14225030293E+04  0.20593945188E+04  0.95000000000E+03 0.  0.
   -2000013    1    1    2    0    0  0.80665573526E+03  0.81510578486E+03 -0.15861300731E+04  0.21756377282E+04  0.95000000000E+03 0.  0.
<mgrwt>
<rscale>  0 0.29805411E+04</rscale>
<asrwt>0</asrwt>
<pdfrwt beam="2">  1        2 0.55720501E+00 0.29805411E+04</pdfrwt>
<pdfrwt beam="1">  1       -2 0.94338398E-01 0.29805411E+04</pdfrwt>
<totfact> 0.54041529E-01</totfact>
</mgrwt>
</event>
<event>
 4    1  0.1295381E-008  0.2270227E+04  0.7816531E-02  0.8489754E-01
         -1   -1    0    0    0  501 -0.00000000000E+00  0.00000000000E+00  0.61716074685E+03  0.61716074685E+03  0.00000000000E+00 0. -1.
          1   -1    0    0  501    0  0.00000000000E+00 -0.00000000000E+00 -0.20877579649E+04  0.20877579649E+04  0.00000000000E+00 0.  1.
    2000013    1    1    2    0    0  0.21106805783E+03 -0.58313701080E+03 -0.69097690985E+03  0.13283627473E+04  0.95000000000E+03 0.  0.
   -2000013    1    1    2    0    0 -0.21106805783E+03  0.58313701080E+03 -0.77962030824E+03  0.13765559645E+04  0.95000000000E+03 0.  0.
<mgrwt>
<rscale>  0 0.22702267E+04</rscale>
<asrwt>0</asrwt>
<pdfrwt beam="2">  1        1 0.32119354E+00 0.22702267E+04</pdfrwt>
<pdfrwt beam="1">  1       -1 0.94947806E-01 0.22702267E+04</pdfrwt>
<totfact> 0.25233155E+00</totfact>
</mgrwt>
</event>
<event>
 4    1  0.1295381E-008  0.3259407E+04  0.7816531E-02  0.8173302E-01
          2   -1    0    0  501    0  0.00000000000E+00  0.00000000000E+00  0.25699025848E+04  0.25699025848E+04  0.00000000000E+00 0. -1.
         -2   -1    0    0    0  501 -0.00000000000E+00 -0.00000000000E+00 -0.10334764698E+04  0.10334764698E+04  0.00000000000E+00 0.  1.
    2000013    1    1    2    0    0 -0.10437745648E+03 -0.99217247893E+03 -0.19438286759E+03  0.13912532410E+04  0.95000000000E+03 0.  0.
   -2000013    1    1    2    0    0  0.10437745648E+03  0.99217247893E+03  0.17308089826E+04  0.22121258137E+04  0.95000000000E+03 0.  0.
<mgrwt>
<rscale>  0 0.32594072E+04</rscale>
<asrwt>0</asrwt>
<pdfrwt beam="1">  1        2 0.39536963E+00 0.32594072E+04</pdfrwt>
<pdfrwt beam="2">  1       -2 0.15899638E+00 0.32594072E+04</pdfrwt>
<totfact> 0.68040175E-01</totfact>
</mgrwt>
</event>
<event>
 4    1  0.1295381E-008  0.2060223E+04  0.7816531E-02  0.8578971E-01
         -2   -1    0    0    0  501 -0.00000000000E+00  0.00000000000E+00  0.44328146972E+03  0.44328146972E+03  0.00000000000E+00 0. -1.
          2   -1    0    0  501    0  0.00000000000E+00 -0.00000000000E+00 -0.23938061691E+04  0.23938061691E+04  0.00000000000E+00 0.  1.
    2000013    1    1    2    0    0  0.60902610178E+00  0.39785010053E+03 -0.94969006827E+03  0.14009626330E+04  0.95000000000E+03 0.  0.
   -2000013    1    1    2    0    0 -0.60902610178E+00 -0.39785010053E+03 -0.10008346311E+04  0.14361250058E+04  0.95000000000E+03 0.  0.
<mgrwt>
<rscale>  0 0.20602232E+04</rscale>
<asrwt>0</asrwt>
<pdfrwt beam="2">  1        2 0.36827788E+00 0.20602232E+04</pdfrwt>
<pdfrwt beam="1">  1       -2 0.68197149E-01 0.20602232E+04</pdfrwt>
<totfact> 0.72932977E+00</totfact>
</mgrwt>
</event>
<event>
 4    1  0.1295381E-008  0.2176640E+04  0.7816531E-02  0.8528214E-01
          2   -1    0    0  501    0  0.00000000000E+00  0.00000000000E+00  0.25211126073E+04  0.25211126073E+04  0.00000000000E+00 0.  1.
         -2   -1    0    0    0  501 -0.00000000000E+00 -0.00000000000E+00 -0.46980856887E+03  0.46980856887E+03  0.00000000000E+00 0. -1.
    2000013    1    1    2    0    0 -0.44601117006E+03  0.14204092289E+03  0.13701066618E+04  0.17317025877E+04  0.95000000000E+03 0.  0.
   -2000013    1    1    2    0    0  0.44601117006E+03 -0.14204092289E+03  0.68119737664E+03  0.12592185885E+04  0.95000000000E+03 0.  0.
<mgrwt>
<rscale>  0 0.21766399E+04</rscale>
<asrwt>0</asrwt>
<pdfrwt beam="1">  1        2 0.38786347E+00 0.21766399E+04</pdfrwt>
<pdfrwt beam="2">  1       -2 0.72278243E-01 0.21766399E+04</pdfrwt>
<totfact> 0.53711797E+00</totfact>
</mgrwt>
</event>
<event>
 4    1  0.1295381E-008  0.2563787E+04  0.7816531E-02  0.8380607E-01
          2   -1    0    0  501    0  0.00000000000E+00  0.00000000000E+00  0.29513278493E+04  0.29513278493E+04  0.00000000000E+00 0.  1.
         -2   -1    0    0    0  501 -0.00000000000E+00 -0.00000000000E+00 -0.55678347419E+03  0.55678347419E+03  0.00000000000E+00 0. -1.
    2000013    1    1    2    0    0  0.80458499424E+03  0.16652183587E+03  0.84663718356E+03  0.15147214448E+04  0.95000000000E+03 0.  0.
   -2000013    1    1    2    0    0 -0.80458499424E+03 -0.16652183587E+03  0.15479071916E+04  0.19933898787E+04  0.95000000000E+03 0.  0.
<mgrwt>
<rscale>  0 0.25637867E+04</rscale>
<asrwt>0</asrwt>
<pdfrwt beam="1">  1        2 0.45405043E+00 0.25637867E+04</pdfrwt>
<pdfrwt beam="2">  1       -2 0.85658997E-01 0.25637867E+04</pdfrwt>
<totfact> 0.19612793E+00</totfact>
</mgrwt>
</event>
<event>
 4    1  0.1295381E-008  0.2260312E+04  0.7816531E-02  0.8493736E-01
          2   -1    0    0  501    0  0.00000000000E+00  0.00000000000E+00  0.16288072854E+04  0.16288072854E+04  0.00000000000E+00 0.  1.
         -2   -1    0    0    0  501 -0.00000000000E+00 -0.00000000000E+00 -0.78416401092E+03  0.78416401092E+03  0.00000000000E+00 0. -1.
    2000013    1    1    2    0    0  0.10685193480E+03  0.41154946152E+03 -0.47834285958E+02  0.10419109435E+04  0.95000000000E+03 0.  0.
   -2000013    1    1    2    0    0 -0.10685193480E+03 -0.41154946152E+03  0.89247756044E+03  0.13710603528E+04  0.95000000000E+03 0.  0.
<mgrwt>
<rscale>  0 0.22603115E+04</rscale>
<asrwt>0</asrwt>
<pdfrwt beam="1">  1        2 0.25058573E+00 0.22603115E+04</pdfrwt>
<pdfrwt beam="2">  1       -2 0.12064062E+00 0.22603115E+04</pdfrwt>
<totfact> 0.51222579E+00</totfact>
</mgrwt>
</event>
<event>
 4    1  0.1295381E-008  0.2342328E+04  0.7816531E-02  0.8461416E-01
          2   -1    0    0  501    0  0.00000000000E+00  0.00000000000E+00  0.24137625669E+04  0.24137625669E+04  0.00000000000E+00 0.  1.
         -2   -1    0    0    0  501 -0.00000000000E+00 -0.00000000000E+00 -0.56825188329E+03  0.56825188329E+03  0.00000000000E+00 0. -1.
    2000013    1    1    2    0    0 -0.68404931661E+03  0.31417213961E+02  0.94140593400E+03  0.15025497135E+04  0.95000000000E+03 0.  0.
   -2000013    1    1    2    0    0  0.68404931661E+03 -0.31417213961E+02  0.90410474960E+03  0.14794647367E+04  0.95000000000E+03 0.  0.
<mgrwt>
<rscale>  0 0.23423280E+04</rscale>
<asrwt>0</asrwt>
<pdfrwt beam="1">  1        2 0.37134808E+00 0.23423280E+04</pdfrwt>
<pdfrwt beam="2">  1       -2 0.87423368E-01 0.23423280E+04</pdfrwt>
<totfact> 0.39847504E+00</totfact>
</mgrwt>
</event>
<event>
 4    1  0.1295381E-008  0.3007414E+04  0.7816531E-02  0.8241617E-01
          2   -1    0    0  501    0  0.00000000000E+00  0.00000000000E+00  0.16682467012E+04  0.16682467012E+04  0.00000000000E+00 0.  1.
         -2   -1    0    0    0  501 -0.00000000000E+00 -0.00000000000E+00 -0.13553959071E+04  0.13553959071E+04  0.00000000000E+00 0. -1.
    2000013    1    1    2    0    0  0.99537881153E+03  0.14108950623E+03  0.74948092969E+03  0.15731836801E+04  0.95000000000E+03 0.  0.
   -2000013    1    1    2    0    0 -0.99537881153E+03 -0.14108950623E+03 -0.43663013566E+03  0.14504589283E+04  0.95000000000E+03 0.  0.
<mgrwt>
<rscale>  0 0.30074140E+04</rscale>
<asrwt>0</asrwt>
<pdfrwt beam="1">  1        2 0.25665334E+00 0.30074140E+04</pdfrwt>
<pdfrwt beam="2">  1       -2 0.20852245E+00 0.30074140E+04</pdfrwt>
<totfact> 0.10229347E+00</totfact>
</mgrwt>
</event>
<event>
 4    1  0.1295381E-008  0.2059609E+04  0.7816531E-02  0.8579248E-01
         -2   -1    0    0    0  501 -0.00000000000E+00  0.00000000000E+00  0.24999997689E+03  0.24999997689E+03  0.00000000000E+00 0. -1.
          2   -1    0    0  501    0  0.00000000000E+00 -0.00000000000E+00 -0.42419876025E+04  0.42419876025E+04  0.00000000000E+00 0.  1.
    2000013    1    1    2    0    0  0.38655889441E+02  0.28863814941E+03 -0.25860336785E+04  0.27703567361E+04  0.95000000000E+03 0.  0.
   -2000013    1    1    2    0    0 -0.38655889441E+02 -0.28863814941E+03 -0.14059539471E+04  0.17216308433E+04  0.95000000000E+03 0.  0.
<mgrwt>
<rscale>  0 0.20596085E+04</rscale>
<asrwt>0</asrwt>
<pdfrwt beam="2">  1        2 0.65261348E+00 0.20596085E+04</pdfrwt>
<pdfrwt beam="1">  1       -2 0.38461535E-01 0.20596085E+04</pdfrwt>
<totfact> 0.12767294E+00</totfact>
</mgrwt>
</event>
<event>
 4    1  0.1295381E-008  0.3270367E+04  0.7816531E-02  0.8170477E-01
          2   -1    0    0  501    0  0.00000000000E+00  0.00000000000E+00  0.26177847597E+04  0.26177847597E+04  0.00000000000E+00 0.  1.
         -2   -1    0    0    0  501 -0.00000000000E+00 -0.00000000000E+00 -0.10214074197E+04  0.10214074197E+04  0.00000000000E+00 0. -1.
    2000013    1    1    2    0    0  0.12814970535E+04 -0.29242640578E+03  0.10304819089E+04  0.19214944355E+04  0.95000000000E+03 0.  0.
   -2000013    1    1    2    0    0 -0.12814970535E+04  0.29242640578E+03  0.56589543107E+03  0.17176977440E+04  0.95000000000E+03 0.  0.
<mgrwt>
<rscale>  0 0.32703668E+04</rscale>
<asrwt>0</asrwt>
<pdfrwt beam="1">  1        2 0.40273611E+00 0.32703668E+04</pdfrwt>
<pdfrwt beam="2">  1       -2 0.15713960E+00 0.32703668E+04</pdfrwt>
<totfact> 0.65779234E-01</totfact>
</mgrwt>
</event>
<event>
 4    1  0.1295381E-008  0.2429296E+04  0.7816531E-02  0.8428616E-01
         -2   -1    0    0    0  501 -0.00000000000E+00  0.00000000000E+00  0.20185363803E+04  0.20185363803E+04  0.00000000000E+00 0. -1.
          2   -1    0    0  501    0  0.00000000000E+00 -0.00000000000E+00 -0.73091075673E+03  0.73091075673E+03  0.00000000000E+00 0.  1.
    2000013    1    1    2    0    0  0.31062283587E+03  0.47747893413E+03  0.12078897238E+04  0.16388929995E+04  0.95000000000E+03 0.  0.
   -2000013    1    1    2    0    0 -0.31062283587E+03 -0.47747893413E+03  0.79735899686E+02  0.11105541375E+04  0.95000000000E+03 0.  0.
<mgrwt>
<rscale>  0 0.24292962E+04</rscale>
<asrwt>0</asrwt>
<pdfrwt beam="2">  1        2 0.11244781E+00 0.24292962E+04</pdfrwt>
<pdfrwt beam="1">  1       -2 0.31054406E+00 0.24292962E+04</pdfrwt>
<totfact> 0.95275947E-01</totfact>
</mgrwt>
</event>
<event>
 4    1  0.1295381E-008  0.2034018E+04  0.7816531E-02  0.8590879E-01
         -2   -1    0    0    0  501 -0.00000000000E+00  0.00000000000E+00  0.15772088227E+04  0.15772088227E+04  0.00000000000E+00 0. -1.
          2   -1    0    0  501    0  0.00000000000E+00 -0.00000000000E+00 -0.65578368043E+03  0.65578368043E+03  0.00000000000E+00 0.  1.
    2000013    1    1    2    0    0 -0.28503709781E+03 -0.10466895207E+03  0.24223178844E+03  0.10263420365E+04  0.95000000000E+03 0.  0.
   -2000013    1    1    2    0    0  0.28503709781E+03  0.10466895207E+03  0.67919335387E+03  0.12066504666E+04  0.95000000000E+03 0.  0.
<mgrwt>
<rscale>  0 0.20340185E+04</rscale>
<asrwt>0</asrwt>
<pdfrwt beam="2">  1        2 0.10088980E+00 0.20340185E+04</pdfrwt>
<pdfrwt beam="1">  1       -2 0.24264751E+00 0.20340185E+04</pdfrwt>
<totfact> 0.29382114E+00</totfact>
</mgrwt>
</event>
<event>
 4    1  0.1295381E-008  0.2465642E+04  0.7816531E-02  0.8415329E-01
         -2   -1    0    0    0  501 -0.00000000000E+00  0.00000000000E+00  0.54008786566E+03  0.54008786566E+03  0.00000000000E+00 0. -1.
          2   -1    0    0  501    0  0.00000000000E+00 -0.00000000000E+00 -0.28140747002E+04  0.28140747002E+04  0.00000000000E+00 0.  1.
    2000013    1    1    2    0    0 -0.46545365003E+03 -0.34582931087E+03 -0.18582445558E+04  0.21660604428E+04  0.95000000000E+03 0.  0.
   -2000013    1    1    2    0    0  0.46545365003E+03  0.34582931087E+03 -0.41574227877E+03  0.11881021231E+04  0.95000000000E+03 0.  0.
<mgrwt>
<rscale>  0 0.24656420E+04</rscale>
<asrwt>0</asrwt>
<pdfrwt beam="2">  1        2 0.43293456E+00 0.24656420E+04</pdfrwt>
<pdfrwt beam="1">  1       -2 0.83090442E-01 0.24656420E+04</pdfrwt>
<totfact> 0.25731594E+00</totfact>
</mgrwt>
</event>
<event>
 4    1  0.1295381E-008  0.2314713E+04  0.7816531E-02  0.8472143E-01
          2   -1    0    0  501    0  0.00000000000E+00  0.00000000000E+00  0.16230049353E+04  0.16230049353E+04  0.00000000000E+00 0.  1.
         -2   -1    0    0    0  501 -0.00000000000E+00 -0.00000000000E+00 -0.82530484282E+03  0.82530484282E+03  0.00000000000E+00 0. -1.
    2000013    1    1    2    0    0 -0.17454558666E+03  0.63074373565E+03  0.49733708544E+03  0.12562436063E+04  0.95000000000E+03 0.  0.
   -2000013    1    1    2    0    0  0.17454558666E+03 -0.63074373565E+03  0.30036300701E+03  0.11920661718E+04  0.95000000000E+03 0.  0.
<mgrwt>
<rscale>  0 0.23147128E+04</rscale>
<asrwt>0</asrwt>
<pdfrwt beam="1">  1        2 0.24969307E+00 0.23147128E+04</pdfrwt>
<pdfrwt beam="2">  1       -2 0.12696998E+00 0.23147128E+04</pdfrwt>
<totfact> 0.45198684E+00</totfact>
</mgrwt>
</event>
<event>
 4    1  0.1295381E-008  0.2107615E+04  0.7816531E-02  0.8557896E-01
          2   -1    0    0  501    0  0.00000000000E+00  0.00000000000E+00  0.14493344240E+04  0.14493344240E+04  0.00000000000E+00 0.  1.
         -2   -1    0    0    0  501 -0.00000000000E+00 -0.00000000000E+00 -0.76622077790E+03  0.76622077790E+03  0.00000000000E+00 0. -1.
    2000013    1    1    2    0    0  0.24085539471E+03  0.26414805207E+03  0.43811335043E+02  0.10159748755E+04  0.95000000000E+03 0.  0.
   -2000013    1    1    2    0    0 -0.24085539471E+03 -0.26414805207E+03  0.63930231108E+03  0.11995803264E+04  0.95000000000E+03 0.  0.
<mgrwt>
<rscale>  0 0.21076149E+04</rscale>
<asrwt>0</asrwt>
<pdfrwt beam="1">  1        2 0.22297453E+00 0.21076149E+04</pdfrwt>
<pdfrwt beam="2">  1       -2 0.11788012E+00 0.21076149E+04</pdfrwt>
<totfact> 0.69329672E+00</totfact>
</mgrwt>
</event>
<event>
 4    1  0.1295381E-008  0.2921529E+04  0.7816531E-02  0.8266501E-01
         -1   -1    0    0    0  501 -0.00000000000E+00  0.00000000000E+00  0.89782223735E+03  0.89782223735E+03  0.00000000000E+00 0. -1.
          1   -1    0    0  501    0  0.00000000000E+00 -0.00000000000E+00 -0.23766762410E+04  0.23766762410E+04  0.00000000000E+00 0.  1.
    2000013    1    1    2    0    0 -0.90527149260E+03  0.11580894645E+03 -0.14468786687E+04  0.19567539624E+04  0.95000000000E+03 0.  0.
   -2000013    1    1    2    0    0  0.90527149260E+03 -0.11580894645E+03 -0.31975334987E+02  0.13177445160E+04  0.95000000000E+03 0.  0.
<mgrwt>
<rscale>  0 0.29215289E+04</rscale>
<asrwt>0</asrwt>
<pdfrwt beam="2">  1        1 0.36564249E+00 0.29215289E+04</pdfrwt>
<pdfrwt beam="1">  1       -1 0.13812650E+00 0.29215289E+04</pdfrwt>
<totfact> 0.61306248E-01</totfact>
</mgrwt>
</event>
<event>
 4    1  0.1295381E-008  0.3427861E+04  0.7816531E-02  0.8131102E-01
         -2   -1    0    0    0  501 -0.00000000000E+00  0.00000000000E+00  0.19572165253E+04  0.19572165253E+04  0.00000000000E+00 0. -1.
          2   -1    0    0  501    0  0.00000000000E+00 -0.00000000000E+00 -0.15008853156E+04  0.15008853156E+04  0.00000000000E+00 0.  1.
    2000013    1    1    2    0    0 -0.12977429485E+04 -0.58441284879E+03  0.32588294992E+03  0.17419457039E+04  0.95000000000E+03 0.  0.
   -2000013    1    1    2    0    0  0.12977429485E+04  0.58441284879E+03  0.13044825977E+03  0.17161561370E+04  0.95000000000E+03 0.  0.
<mgrwt>
<rscale>  0 0.34278609E+04</rscale>
<asrwt>0</asrwt>
<pdfrwt beam="2">  1        2 0.23090543E+00 0.34278609E+04</pdfrwt>
<pdfrwt beam="1">  1       -2 0.30111024E+00 0.34278609E+04</pdfrwt>
<totfact> 0.32788590E-01</totfact>
</mgrwt>
</event>
<event>
 4    1  0.1295381E-008  0.2818106E+04  0.7816531E-02  0.8297669E-01
         -1   -1    0    0    0  501 -0.00000000000E+00  0.00000000000E+00  0.32003337711E+04  0.32003337711E+04  0.00000000000E+00 0. -1.
          1   -1    0    0  501    0  0.00000000000E+00 -0.00000000000E+00 -0.62038238438E+03  0.62038238438E+03  0.00000000000E+00 0.  1.
    2000013    1    1    2    0    0 -0.92273166534E+03  0.39959957914E+03  0.92664550512E+03  0.16650181507E+04  0.95000000000E+03 0.  0.
   -2000013    1    1    2    0    0  0.92273166534E+03 -0.39959957914E+03  0.16533058816E+04  0.21556980048E+04  0.95000000000E+03 0.  0.
<mgrwt>
<rscale>  0 0.28181062E+04</rscale>
<asrwt>0</asrwt>
<pdfrwt beam="2">  1        1 0.95443445E-01 0.28181062E+04</pdfrwt>
<pdfrwt beam="1">  1       -1 0.49235904E+00 0.28181062E+04</pdfrwt>
<totfact> 0.46996540E-02</totfact>
</mgrwt>
</event>
<event>
 4    1  0.1295381E-008  0.2509225E+04  0.7816531E-02  0.8399706E-01
          2   -1    0    0  501    0  0.00000000000E+00  0.00000000000E+00  0.22986033551E+04  0.22986033551E+04  0.00000000000E+00 0.  1.
         -2   -1    0    0    0  501 -0.00000000000E+00 -0.00000000000E+00 -0.68478643196E+03  0.68478643196E+03  0.00000000000E+00 0. -1.
    2000013    1    1    2    0    0 -0.44110521204E+02  0.79055440734E+03  0.55572808419E+03  0.13558228913E+04  0.95000000000E+03 0.  0.
   -2000013    1    1    2    0    0  0.44110521204E+02 -0.79055440734E+03  0.10580888389E+04  0.16275668957E+04  0.95000000000E+03 0.  0.
<mgrwt>
<rscale>  0 0.25092249E+04</rscale>
<asrwt>0</asrwt>
<pdfrwt beam="1">  1        2 0.35363128E+00 0.25092249E+04</pdfrwt>
<pdfrwt beam="2">  1       -2 0.10535176E+00 0.25092249E+04</pdfrwt>
<totfact> 0.29511454E+00</totfact>
</mgrwt>
</event>
<event>
 4    1  0.1295381E-008  0.3578108E+04  0.7816531E-02  0.8095525E-01
          2   -1    0    0  501    0  0.00000000000E+00  0.00000000000E+00  0.23605185057E+04  0.23605185057E+04  0.00000000000E+00 0.  1.
         -2   -1    0    0    0  501 -0.00000000000E+00 -0.00000000000E+00 -0.13559372219E+04  0.13559372219E+04  0.00000000000E+00 0. -1.
    2000013    1    1    2    0    0  0.14517790147E+04  0.15290782056E+03  0.92696591599E+03  0.19730202529E+04  0.95000000000E+03 0.  0.
   -2000013    1    1    2    0    0 -0.14517790147E+04 -0.15290782056E+03  0.77615367802E+02  0.17434354747E+04  0.95000000000E+03 0.  0.
<mgrwt>
<rscale>  0 0.35781084E+04</rscale>
<asrwt>0</asrwt>
<pdfrwt beam="1">  1        2 0.36315669E+00 0.35781084E+04</pdfrwt>
<pdfrwt beam="2">  1       -2 0.20860573E+00 0.35781084E+04</pdfrwt>
<totfact> 0.39972034E-01</totfact>
</mgrwt>
</event>
<event>
 4    1  0.1295381E-008  0.2482200E+04  0.7816531E-02  0.8409354E-01
         -2   -1    0    0    0  501 -0.00000000000E+00  0.00000000000E+00  0.41294288717E+03  0.41294288717E+03  0.00000000000E+00 0.  1.
          2   -1    0    0  501    0  0.00000000000E+00 -0.00000000000E+00 -0.37301279000E+04  0.37301279000E+04  0.00000000000E+00 0. -1.
    2000013    1    1    2    0    0  0.77167147060E+03  0.16421683285E+03 -0.18656280671E+04  0.22373001836E+04  0.95000000000E+03 0.  0.
   -2000013    1    1    2    0    0 -0.77167147060E+03 -0.16421683285E+03 -0.14515569457E+04  0.19057706035E+04  0.95000000000E+03 0.  0.
<mgrwt>
<rscale>  0 0.24822005E+04</rscale>
<asrwt>0</asrwt>
<pdfrwt beam="2">  1        2 0.57386583E+00 0.24822005E+04</pdfrwt>
<pdfrwt beam="1">  1       -2 0.63529675E-01 0.24822005E+04</pdfrwt>
<totfact> 0.11381236E+00</totfact>
</mgrwt>
</event>
<event>
 4    1  0.1295381E-008  0.2370212E+04  0.7816531E-02  0.8450741E-01
          2   -1    0    0  501    0  0.00000000000E+00  0.00000000000E+00  0.17755110025E+04  0.17755110025E+04  0.00000000000E+00 0.  1.
         -2   -1    0    0    0  501 -0.00000000000E+00 -0.00000000000E+00 -0.79102654778E+03  0.79102654778E+03  0.00000000000E+00 0. -1.
    2000013    1    1    2    0    0  0.60437820860E+03 -0.77746054624E+01  0.91971427063E+02  0.11297310330E+04  0.95000000000E+03 0.  0.
   -2000013    1    1    2    0    0 -0.60437820860E+03  0.77746054624E+01  0.89251302763E+03  0.14368065173E+04  0.95000000000E+03 0.  0.
<mgrwt>
<rscale>  0 0.23702121E+04</rscale>
<asrwt>0</asrwt>
<pdfrwt beam="1">  1        2 0.27315554E+00 0.23702121E+04</pdfrwt>
<pdfrwt beam="2">  1       -2 0.12169639E+00 0.23702121E+04</pdfrwt>
<totfact> 0.41155055E+00</totfact>
</mgrwt>
</event>
<event>
 4    1  0.1295381E-008  0.2983513E+04  0.7816531E-02  0.8248454E-01
         -2   -1    0    0    0  501 -0.00000000000E+00  0.00000000000E+00  0.14373530020E+04  0.14373530020E+04  0.00000000000E+00 0. -1.
          2   -1    0    0  501    0  0.00000000000E+00 -0.00000000000E+00 -0.15482196025E+04  0.15482196025E+04  0.00000000000E+00 0.  1.
    2000013    1    1    2    0    0 -0.13583280383E+03 -0.61429496034E+03 -0.10189214059E+04  0.15285645816E+04  0.95000000000E+03 0.  0.
   -2000013    1    1    2    0    0  0.13583280383E+03  0.61429496034E+03  0.90805480539E+03  0.14570080228E+04  0.95000000000E+03 0.  0.
<mgrwt>
<rscale>  0 0.29835134E+04</rscale>
<asrwt>0</asrwt>
<pdfrwt beam="2">  1        2 0.23818763E+00 0.29835134E+04</pdfrwt>
<pdfrwt beam="1">  1       -2 0.22113123E+00 0.29835134E+04</pdfrwt>
<totfact> 0.99369885E-01</totfact>
</mgrwt>
</event>
<event>
 4    1  0.1295381E-008  0.2458280E+04  0.7816531E-02  0.8418001E-01
          2   -1    0    0  501    0  0.00000000000E+00  0.00000000000E+00  0.18162062003E+04  0.18162062003E+04  0.00000000000E+00 0.  1.
         -2   -1    0    0    0  501 -0.00000000000E+00 -0.00000000000E+00 -0.83183545919E+03  0.83183545919E+03  0.00000000000E+00 0. -1.
    2000013    1    1    2    0    0  0.69844595757E+03  0.88144337230E+02  0.85378951516E+03  0.14584418795E+04  0.95000000000E+03 0.  0.
   -2000013    1    1    2    0    0 -0.69844595757E+03 -0.88144337230E+02  0.13058122593E+03  0.11895997799E+04  0.95000000000E+03 0.  0.
<mgrwt>
<rscale>  0 0.24582797E+04</rscale>
<asrwt>0</asrwt>
<pdfrwt beam="1">  1        2 0.27941634E+00 0.24582797E+04</pdfrwt>
<pdfrwt beam="2">  1       -2 0.12797469E+00 0.24582797E+04</pdfrwt>
<totfact> 0.34184868E+00</totfact>
</mgrwt>
</event>
<event>
 4    1  0.1295381E-008  0.3092654E+04  0.7816531E-02  0.8217757E-01
         -4   -1    0    0    0  501 -0.00000000000E+00  0.00000000000E+00  0.29158934773E+04  0.29158934773E+04  0.00000000000E+00 0. -1.
          4   -1    0    0  501    0  0.00000000000E+00 -0.00000000000E+00 -0.82003235757E+03  0.82003235757E+03  0.00000000000E+00 0.  1.
    2000013    1    1    2    0    0 -0.71862362656E+03 -0.45562176529E+03 -0.83726241392E+01  0.12753749294E+04  0.95000000000E+03 0.  0.
   -2000013    1    1    2    0    0  0.71862362656E+03  0.45562176529E+03  0.21042337438E+04  0.24605509055E+04  0.95000000000E+03 0.  0.
<mgrwt>
<rscale>  0 0.30926539E+04</rscale>
<asrwt>0</asrwt>
<pdfrwt beam="2">  1        4 0.12615883E+00 0.30926539E+04</pdfrwt>
<pdfrwt beam="1">  1       -4 0.44859899E+00 0.30926539E+04</pdfrwt>
<totfact> 0.23815210E-03</totfact>
</mgrwt>
</event>
<event>
 4    1  0.1295381E-008  0.3362631E+04  0.7816531E-02  0.8147139E-01
         -2   -1    0    0    0  501 -0.00000000000E+00  0.00000000000E+00  0.96689956370E+03  0.96689956370E+03  0.00000000000E+00 0.  1.
          2   -1    0    0  501    0  0.00000000000E+00 -0.00000000000E+00 -0.29235938966E+04  0.29235938966E+04  0.00000000000E+00 0. -1.
    2000013    1    1    2    0    0 -0.12977165330E+03  0.61875422688E+03  0.45024048325E+03  0.12267493501E+04  0.95000000000E+03 0.  0.
   -2000013    1    1    2    0    0  0.12977165330E+03 -0.61875422688E+03 -0.24069348161E+04  0.26637441102E+04  0.95000000000E+03 0.  0.
<mgrwt>
<rscale>  0 0.33626309E+04</rscale>
<asrwt>0</asrwt>
<pdfrwt beam="2">  1        2 0.44978366E+00 0.33626309E+04</pdfrwt>
<pdfrwt beam="1">  1       -2 0.14875378E+00 0.33626309E+04</pdfrwt>
<totfact> 0.49421059E-01</totfact>
</mgrwt>
</event>
<event>
 4    1  0.1295381E-008  0.2300423E+04  0.7816531E-02  0.8477754E-01
         -2   -1    0    0    0  501 -0.00000000000E+00  0.00000000000E+00  0.28471586919E+03  0.28471586919E+03  0.00000000000E+00 0. -1.
          2   -1    0    0  501    0  0.00000000000E+00 -0.00000000000E+00 -0.46466900472E+04  0.46466900472E+04  0.00000000000E+00 0.  1.
    2000013    1    1    2    0    0 -0.17207316778E+03  0.42176265988E+03 -0.11916456023E+04  0.15906011938E+04  0.95000000000E+03 0.  0.
   -2000013    1    1    2    0    0  0.17207316778E+03 -0.42176265988E+03 -0.31703285756E+04  0.33408047225E+04  0.95000000000E+03 0.  0.
<mgrwt>
<rscale>  0 0.23004229E+04</rscale>
<asrwt>0</asrwt>
<pdfrwt beam="2">  1        2 0.71487541E+00 0.23004229E+04</pdfrwt>
<pdfrwt beam="1">  1       -2 0.43802441E-01 0.23004229E+04</pdfrwt>
<totfact> 0.39601895E-01</totfact>
</mgrwt>
</event>
<event>
 4    1  0.1295381E-008  0.3099254E+04  0.7816531E-02  0.8215943E-01
          2   -1    0    0  501    0  0.00000000000E+00  0.00000000000E+00  0.16160283544E+04  0.16160283544E+04  0.00000000000E+00 0.  1.
         -2   -1    0    0    0  501 -0.00000000000E+00 -0.00000000000E+00 -0.14859540315E+04  0.14859540315E+04  0.00000000000E+00 0. -1.
    2000013    1    1    2    0    0 -0.67190463676E+03 -0.54235590585E+03 -0.80361977040E+03  0.15145661111E+04  0.95000000000E+03 0.  0.
   -2000013    1    1    2    0    0  0.67190463676E+03  0.54235590585E+03  0.93369409329E+03  0.15874162748E+04  0.95000000000E+03 0.  0.
<mgrwt>
<rscale>  0 0.30992540E+04</rscale>
<asrwt>0</asrwt>
<pdfrwt beam="1">  1        2 0.24861975E+00 0.30992540E+04</pdfrwt>
<pdfrwt beam="2">  1       -2 0.22860831E+00 0.30992540E+04</pdfrwt>
<totfact> 0.80916429E-01</totfact>
</mgrwt>
</event>
<event>
 4    1  0.1295381E-008  0.2247053E+04  0.7816531E-02  0.8499095E-01
          2   -1    0    0  501    0  0.00000000000E+00  0.00000000000E+00  0.21627148134E+04  0.21627148134E+04  0.00000000000E+00 0.  1.
         -2   -1    0    0    0  501 -0.00000000000E+00 -0.00000000000E+00 -0.58367008607E+03  0.58367008607E+03  0.00000000000E+00 0. -1.
    2000013    1    1    2    0    0 -0.25064032551E+03 -0.51276195333E+03  0.10151083535E+04  0.15028939959E+04  0.95000000000E+03 0.  0.
   -2000013    1    1    2    0    0  0.25064032551E+03  0.51276195333E+03  0.56393637384E+03  0.12434909036E+04  0.95000000000E+03 0.  0.
<mgrwt>
<rscale>  0 0.22470531E+04</rscale>
<asrwt>0</asrwt>
<pdfrwt beam="1">  1        2 0.33272535E+00 0.22470531E+04</pdfrwt>
<pdfrwt beam="2">  1       -2 0.89795399E-01 0.22470531E+04</pdfrwt>
<totfact> 0.52414633E+00</totfact>
</mgrwt>
</event>
<event>
 4    1  0.1295381E-008  0.2309216E+04  0.7816531E-02  0.8474296E-01
          1   -1    0    0  501    0  0.00000000000E+00  0.00000000000E+00  0.26515780280E+04  0.26515780280E+04  0.00000000000E+00 0.  1.
         -1   -1    0    0    0  501 -0.00000000000E+00 -0.00000000000E+00 -0.50276460412E+03  0.50276460412E+03  0.00000000000E+00 0. -1.
    2000013    1    1    2    0    0  0.71838569404E+02 -0.63180933636E+03  0.12958293190E+04  0.17280096763E+04  0.95000000000E+03 0.  0.
   -2000013    1    1    2    0    0 -0.71838569404E+02  0.63180933636E+03  0.85298410490E+03  0.14263329558E+04  0.95000000000E+03 0.  0.
<mgrwt>
<rscale>  0 0.23092160E+04</rscale>
<asrwt>0</asrwt>
<pdfrwt beam="1">  1        1 0.40793507E+00 0.23092160E+04</pdfrwt>
<pdfrwt beam="2">  1       -1 0.77348402E-01 0.23092160E+04</pdfrwt>
<totfact> 0.16065914E+00</totfact>
</mgrwt>
</event>
<event>
 4    1  0.1295381E-008  0.2225665E+04  0.7816531E-02  0.8507821E-01
         -2   -1    0    0    0  501 -0.00000000000E+00  0.00000000000E+00  0.66577421978E+03  0.66577421978E+03  0.00000000000E+00 0. -1.
          2   -1    0    0  501    0  0.00000000000E+00 -0.00000000000E+00 -0.18600847895E+04  0.18600847895E+04  0.00000000000E+00 0.  1.
    2000013    1    1    2    0    0 -0.42682761699E+03  0.24693209290E+03 -0.25154951390E+03  0.10995155438E+04  0.95000000000E+03 0.  0.
   -2000013    1    1    2    0    0  0.42682761699E+03 -0.24693209290E+03 -0.94276105583E+03  0.14263434655E+04  0.95000000000E+03 0.  0.
<mgrwt>
<rscale>  0 0.22256653E+04</rscale>
<asrwt>0</asrwt>
<pdfrwt beam="2">  1        2 0.28616689E+00 0.22256653E+04</pdfrwt>
<pdfrwt beam="1">  1       -2 0.10242680E+00 0.22256653E+04</pdfrwt>
<totfact> 0.56859877E+00</totfact>
</mgrwt>
</event>
<event>
 4    1  0.1295381E-008  0.2054990E+04  0.7816531E-02  0.8581334E-01
          2   -1    0    0  501    0  0.00000000000E+00  0.00000000000E+00  0.42136995514E+03  0.42136995514E+03  0.00000000000E+00 0.  1.
         -2   -1    0    0    0  501 -0.00000000000E+00 -0.00000000000E+00 -0.25055077065E+04  0.25055077065E+04  0.00000000000E+00 0. -1.
    2000013    1    1    2    0    0 -0.18898507553E+03  0.28054661324E+03 -0.13227056306E+04  0.16632714589E+04  0.95000000000E+03 0.  0.
   -2000013    1    1    2    0    0  0.18898507553E+03 -0.28054661324E+03 -0.76143212081E+03  0.12636062027E+04  0.95000000000E+03 0.  0.
<mgrwt>
<rscale>  0 0.20549897E+04</rscale>
<asrwt>0</asrwt>
<pdfrwt beam="1">  1        2 0.64826147E-01 0.20549897E+04</pdfrwt>
<pdfrwt beam="2">  1       -2 0.38546272E+00 0.20549897E+04</pdfrwt>
<totfact> 0.64160806E-01</totfact>
</mgrwt>
</event>
<event>
 4    1  0.1295381E-008  0.2143107E+04  0.7816531E-02  0.8542488E-01
         -1   -1    0    0    0  501 -0.00000000000E+00  0.00000000000E+00  0.97561999057E+03  0.97561999057E+03  0.00000000000E+00 0. -1.
          1   -1    0    0  501    0  0.00000000000E+00 -0.00000000000E+00 -0.11769204510E+04  0.11769204510E+04  0.00000000000E+00 0.  1.
    2000013    1    1    2    0    0  0.43742995189E+03 -0.49384484091E+02 -0.32956420930E+03  0.10976777114E+04  0.95000000000E+03 0.  0.
   -2000013    1    1    2    0    0 -0.43742995189E+03  0.49384484091E+02  0.12826374892E+03  0.10548627301E+04  0.95000000000E+03 0.  0.
<mgrwt>
<rscale>  0 0.21431072E+04</rscale>
<asrwt>0</asrwt>
<pdfrwt beam="2">  1        1 0.18106469E+00 0.21431072E+04</pdfrwt>
<pdfrwt beam="1">  1       -1 0.15009538E+00 0.21431072E+04</pdfrwt>
<totfact> 0.35461693E+00</totfact>
</mgrwt>
</event>
<event>
 4    1  0.1295381E-008  0.2130766E+04  0.7816531E-02  0.8547810E-01
         -2   -1    0    0    0  501 -0.00000000000E+00  0.00000000000E+00  0.45068440294E+03  0.45068440294E+03  0.00000000000E+00 0. -1.
          2   -1    0    0  501    0  0.00000000000E+00 -0.00000000000E+00 -0.25184830942E+04  0.25184830942E+04  0.00000000000E+00 0.  1.
    2000013    1    1    2    0    0 -0.44984286852E+03 -0.60669800651E+02 -0.80705126066E+03  0.13266013600E+04  0.95000000000E+03 0.  0.
   -2000013    1    1    2    0    0  0.44984286852E+03  0.60669800651E+02 -0.12607474306E+04  0.16425661372E+04  0.95000000000E+03 0.  0.
<mgrwt>
<rscale>  0 0.21307661E+04</rscale>
<asrwt>0</asrwt>
<pdfrwt beam="2">  1        2 0.38745895E+00 0.21307661E+04</pdfrwt>
<pdfrwt beam="1">  1       -2 0.69336060E-01 0.21307661E+04</pdfrwt>
<totfact> 0.59269448E+00</totfact>
</mgrwt>
</event>
<event>
 4    1  0.1295381E-008  0.2087532E+04  0.7816531E-02  0.8566755E-01
          2   -1    0    0  501    0  0.00000000000E+00  0.00000000000E+00  0.28602599828E+04  0.28602599828E+04  0.00000000000E+00 0.  1.
         -2   -1    0    0    0  501 -0.00000000000E+00 -0.00000000000E+00 -0.38089122546E+03  0.38089122546E+03  0.00000000000E+00 0. -1.
    2000013    1    1    2    0    0  0.17504527782E+03 -0.21129210546E+03  0.17585085158E+04  0.20174581540E+04  0.95000000000E+03 0.  0.
   -2000013    1    1    2    0    0 -0.17504527782E+03  0.21129210546E+03  0.72086024151E+03  0.12236930542E+04  0.95000000000E+03 0.  0.
<mgrwt>
<rscale>  0 0.20875324E+04</rscale>
<asrwt>0</asrwt>
<pdfrwt beam="1">  1        2 0.44003998E+00 0.20875324E+04</pdfrwt>
<pdfrwt beam="2">  1       -2 0.58598652E-01 0.20875324E+04</pdfrwt>
<totfact> 0.53442549E+00</totfact>
</mgrwt>
</event>
<event>
 4    1  0.1295381E-008  0.3894442E+04  0.7816531E-02  0.8026186E-01
         -1   -1    0    0    0  501 -0.00000000000E+00  0.00000000000E+00  0.20135979338E+04  0.20135979338E+04  0.00000000000E+00 0. -1.
          1   -1    0    0  501    0  0.00000000000E+00 -0.00000000000E+00 -0.18830319407E+04  0.18830319407E+04  0.00000000000E+00 0.  1.
    2000013    1    1    2    0    0  0.15857911137E+04 -0.14594390407E+03  0.65986946946E+03  0.19682379928E+04  0.95000000000E+03 0.  0.
   -2000013    1    1    2    0    0 -0.15857911137E+04  0.14594390407E+03 -0.52930347635E+03  0.19283918817E+04  0.95000000000E+03 0.  0.
<mgrwt>
<rscale>  0 0.38944418E+04</rscale>
<asrwt>0</asrwt>
<pdfrwt beam="2">  1        1 0.28969722E+00 0.38944418E+04</pdfrwt>
<pdfrwt beam="1">  1       -1 0.30978430E+00 0.38944418E+04</pdfrwt>
<totfact> 0.80569132E-02</totfact>
</mgrwt>
</event>
<event>
 4    1  0.1295381E-008  0.2377609E+04  0.7816531E-02  0.8447934E-01
         -2   -1    0    0    0  501 -0.00000000000E+00  0.00000000000E+00  0.59494382864E+03  0.59494382864E+03  0.00000000000E+00 0. -1.
          2   -1    0    0  501    0  0.00000000000E+00 -0.00000000000E+00 -0.23754454684E+04  0.23754454684E+04  0.00000000000E+00 0.  1.
    2000013    1    1    2    0    0  0.52526010900E+03  0.37776553134E+03 -0.51100185647E+03  0.12578663983E+04  0.95000000000E+03 0.  0.
   -2000013    1    1    2    0    0 -0.52526010900E+03 -0.37776553134E+03 -0.12694997833E+04  0.17125228987E+04  0.95000000000E+03 0.  0.
<mgrwt>
<rscale>  0 0.23776094E+04</rscale>
<asrwt>0</asrwt>
<pdfrwt beam="2">  1        2 0.36545315E+00 0.23776094E+04</pdfrwt>
<pdfrwt beam="1">  1       -2 0.91529819E-01 0.23776094E+04</pdfrwt>
<totfact> 0.37594065E+00</totfact>
</mgrwt>
</event>
<event>
 4    1  0.1295381E-008  0.2659744E+04  0.7816531E-02  0.8348186E-01
          1   -1    0    0  501    0  0.00000000000E+00  0.00000000000E+00  0.90877871345E+03  0.90877871345E+03  0.00000000000E+00 0.  1.
         -1   -1    0    0    0  501 -0.00000000000E+00 -0.00000000000E+00 -0.19460843319E+04  0.19460843319E+04  0.00000000000E+00 0. -1.
    2000013    1    1    2    0    0 -0.33965026836E+03  0.81520030959E+03 -0.83369111179E+03  0.15418997112E+04  0.95000000000E+03 0.  0.
   -2000013    1    1    2    0    0  0.33965026836E+03 -0.81520030959E+03 -0.20361450669E+03  0.13129633342E+04  0.95000000000E+03 0.  0.
<mgrwt>
<rscale>  0 0.26597444E+04</rscale>
<asrwt>0</asrwt>
<pdfrwt beam="1">  1        1 0.13981211E+00 0.26597444E+04</pdfrwt>
<pdfrwt beam="2">  1       -1 0.29939758E+00 0.26597444E+04</pdfrwt>
<totfact> 0.52256272E-01</totfact>
</mgrwt>
</event>
<event>
 4    1  0.1295381E-008  0.2334211E+04  0.7816531E-02  0.8464553E-01
          2   -1    0    0  501    0  0.00000000000E+00  0.00000000000E+00  0.21514690346E+04  0.21514690346E+04  0.00000000000E+00 0.  1.
         -2   -1    0    0    0  501 -0.00000000000E+00 -0.00000000000E+00 -0.63311871237E+03  0.63311871237E+03  0.00000000000E+00 0. -1.
    2000013    1    1    2    0    0  0.31189879427E+02  0.65171845502E+03  0.97890257646E+03  0.15121044962E+04  0.95000000000E+03 0.  0.
   -2000013    1    1    2    0    0 -0.31189879427E+02 -0.65171845502E+03  0.53944774581E+03  0.12724832508E+04  0.95000000000E+03 0.  0.
<mgrwt>
<rscale>  0 0.23342110E+04</rscale>
<asrwt>0</asrwt>
<pdfrwt beam="1">  1        2 0.33099523E+00 0.23342110E+04</pdfrwt>
<pdfrwt beam="2">  1       -2 0.97402880E-01 0.23342110E+04</pdfrwt>
<totfact> 0.43688872E+00</totfact>
</mgrwt>
</event>
<event>
 4    1  0.1295381E-008  0.2129056E+04  0.7816531E-02  0.8548551E-01
         -2   -1    0    0    0  501 -0.00000000000E+00  0.00000000000E+00  0.65889773432E+03  0.65889773432E+03  0.00000000000E+00 0. -1.
          2   -1    0    0  501    0  0.00000000000E+00 -0.00000000000E+00 -0.17198720854E+04  0.17198720854E+04  0.00000000000E+00 0.  1.
    2000013    1    1    2    0    0  0.12033477912E+03  0.35910745635E+03 -0.20040225258E+03  0.10421610658E+04  0.95000000000E+03 0.  0.
   -2000013    1    1    2    0    0 -0.12033477912E+03 -0.35910745635E+03 -0.86057209849E+03  0.13366087539E+04  0.95000000000E+03 0.  0.
<mgrwt>
<rscale>  0 0.21290560E+04</rscale>
<asrwt>0</asrwt>
<pdfrwt beam="2">  1        2 0.26459571E+00 0.21290560E+04</pdfrwt>
<pdfrwt beam="1">  1       -2 0.10136888E+00 0.21290560E+04</pdfrwt>
<totfact> 0.70292414E+00</totfact>
</mgrwt>
</event>
<event>
 4    1  0.1295381E-008  0.3220070E+04  0.7816531E-02  0.8183537E-01
          2   -1    0    0  501    0  0.00000000000E+00  0.00000000000E+00  0.10813753006E+04  0.10813753006E+04  0.00000000000E+00 0.  1.
         -2   -1    0    0    0  501 -0.00000000000E+00 -0.00000000000E+00 -0.23971438549E+04  0.23971438549E+04  0.00000000000E+00 0. -1.
    2000013    1    1    2    0    0 -0.31180953811E+03 -0.12540445653E+04 -0.81011768634E+03  0.17968426825E+04  0.95000000000E+03 0.  0.
   -2000013    1    1    2    0    0  0.31180953811E+03  0.12540445653E+04 -0.50565086789E+03  0.16816764730E+04  0.95000000000E+03 0.  0.
<mgrwt>
<rscale>  0 0.32200697E+04</rscale>
<asrwt>0</asrwt>
<pdfrwt beam="1">  1        2 0.16636543E+00 0.32200697E+04</pdfrwt>
<pdfrwt beam="2">  1       -2 0.36879136E+00 0.32200697E+04</pdfrwt>
<totfact> 0.22216370E-01</totfact>
</mgrwt>
</event>
<event>
 4    1  0.1295381E-008  0.3636231E+04  0.7816531E-02  0.8082243E-01
          2   -1    0    0  501    0  0.00000000000E+00  0.00000000000E+00  0.26330759078E+04  0.26330759078E+04  0.00000000000E+00 0.  1.
         -2   -1    0    0    0  501 -0.00000000000E+00 -0.00000000000E+00 -0.12553924693E+04  0.12553924693E+04  0.00000000000E+00 0. -1.
    2000013    1    1    2    0    0 -0.64802231179E+02 -0.14918136840E+04  0.11340588314E+04  0.21019745075E+04  0.95000000000E+03 0.  0.
   -2000013    1    1    2    0    0  0.64802231179E+02  0.14918136840E+04  0.24362460713E+03  0.17864938696E+04  0.95000000000E+03 0.  0.
<mgrwt>
<rscale>  0 0.36362308E+04</rscale>
<asrwt>0</asrwt>
<pdfrwt beam="1">  1        2 0.40508860E+00 0.36362308E+04</pdfrwt>
<pdfrwt beam="2">  1       -2 0.19313730E+00 0.36362308E+04</pdfrwt>
<totfact> 0.34912639E-01</totfact>
</mgrwt>
</event>
<event>
 4    1  0.1295381E-008  0.2210187E+04  0.7816531E-02  0.8514200E-01
          2   -1    0    0  501    0  0.00000000000E+00  0.00000000000E+00  0.41536600542E+03  0.41536600542E+03  0.00000000000E+00 0.  1.
         -2   -1    0    0    0  501 -0.00000000000E+00 -0.00000000000E+00 -0.29401329968E+04  0.29401329968E+04  0.00000000000E+00 0. -1.
    2000013    1    1    2    0    0  0.46111151231E+03 -0.31194612056E+03 -0.11199875393E+04  0.15706069836E+04  0.95000000000E+03 0.  0.
   -2000013    1    1    2    0    0 -0.46111151231E+03  0.31194612056E+03 -0.14047794521E+04  0.17848920186E+04  0.95000000000E+03 0.  0.
<mgrwt>
<rscale>  0 0.22101867E+04</rscale>
<asrwt>0</asrwt>
<pdfrwt beam="1">  1        2 0.63902465E-01 0.22101867E+04</pdfrwt>
<pdfrwt beam="2">  1       -2 0.45232814E+00 0.22101867E+04</pdfrwt>
<totfact> 0.23313858E-01</totfact>
</mgrwt>
</event>
<event>
 4    1  0.1295381E-008  0.2099744E+04  0.7816531E-02  0.8561356E-01
          2   -1    0    0  501    0  0.00000000000E+00  0.00000000000E+00  0.12590027106E+04  0.12590027106E+04  0.00000000000E+00 0.  1.
         -2   -1    0    0    0  501 -0.00000000000E+00 -0.00000000000E+00 -0.87547930319E+03  0.87547930319E+03  0.00000000000E+00 0. -1.
    2000013    1    1    2    0    0 -0.17115723898E+02  0.38727364582E+03 -0.34306807803E+02  0.10266210507E+04  0.95000000000E+03 0.  0.
   -2000013    1    1    2    0    0  0.17115723898E+02 -0.38727364582E+03  0.41783021524E+03  0.11078609631E+04  0.95000000000E+03 0.  0.
<mgrwt>
<rscale>  0 0.20997436E+04</rscale>
<asrwt>0</asrwt>
<pdfrwt beam="1">  1        2 0.19369272E+00 0.20997436E+04</pdfrwt>
<pdfrwt beam="2">  1       -2 0.13468912E+00 0.20997436E+04</pdfrwt>
<totfact> 0.63910883E+00</totfact>
</mgrwt>
</event>
<event>
 4    1  0.1295381E-008  0.2464205E+04  0.7816531E-02  0.8415850E-01
          2   -1    0    0  501    0  0.00000000000E+00  0.00000000000E+00  0.19403933614E+04  0.19403933614E+04  0.00000000000E+00 0.  1.
         -2   -1    0    0    0  501 -0.00000000000E+00 -0.00000000000E+00 -0.78235523466E+03  0.78235523466E+03  0.00000000000E+00 0. -1.
    2000013    1    1    2    0    0 -0.63442416313E+03 -0.46155473786E+03  0.58684051905E+03  0.13647009158E+04  0.95000000000E+03 0.  0.
   -2000013    1    1    2    0    0  0.63442416313E+03  0.46155473786E+03  0.57119760768E+03  0.13580476803E+04  0.95000000000E+03 0.  0.
<mgrwt>
<rscale>  0 0.24642053E+04</rscale>
<asrwt>0</asrwt>
<pdfrwt beam="1">  1        2 0.29852205E+00 0.24642053E+04</pdfrwt>
<pdfrwt beam="2">  1       -2 0.12036234E+00 0.24642053E+04</pdfrwt>
<totfact> 0.33996694E+00</totfact>
</mgrwt>
</event>
<event>
 4    1  0.1295381E-008  0.2430628E+04  0.7816531E-02  0.8428125E-01
         -1   -1    0    0    0  501 -0.00000000000E+00  0.00000000000E+00  0.58391668233E+03  0.58391668233E+03  0.00000000000E+00 0. -1.
          1   -1    0    0  501    0  0.00000000000E+00 -0.00000000000E+00 -0.25294491214E+04  0.25294491214E+04  0.00000000000E+00 0.  1.
    2000013    1    1    2    0    0  0.13800013681E+03 -0.51004386484E+03 -0.16688196036E+04  0.19916444590E+04  0.95000000000E+03 0.  0.
   -2000013    1    1    2    0    0 -0.13800013681E+03  0.51004386484E+03 -0.27671283545E+03  0.11217213447E+04  0.95000000000E+03 0.  0.
<mgrwt>
<rscale>  0 0.24306275E+04</rscale>
<asrwt>0</asrwt>
<pdfrwt beam="2">  1        1 0.38914602E+00 0.24306275E+04</pdfrwt>
<pdfrwt beam="1">  1       -1 0.89833335E-01 0.24306275E+04</pdfrwt>
<totfact> 0.14006213E+00</totfact>
</mgrwt>
</event>
<event>
 4    1  0.1295381E-008  0.2267844E+04  0.7816531E-02  0.8490709E-01
         -2   -1    0    0    0  501 -0.00000000000E+00  0.00000000000E+00  0.13564872983E+04  0.13564872983E+04  0.00000000000E+00 0. -1.
          2   -1    0    0  501    0  0.00000000000E+00 -0.00000000000E+00 -0.94787416439E+03  0.94787416439E+03  0.00000000000E+00 0.  1.
    2000013    1    1    2    0    0  0.26827318822E+03  0.54260710944E+03  0.33634624751E+03  0.11755942229E+04  0.95000000000E+03 0.  0.
   -2000013    1    1    2    0    0 -0.26827318822E+03 -0.54260710944E+03  0.72266886404E+02  0.11287672398E+04  0.95000000000E+03 0.  0.
<mgrwt>
<rscale>  0 0.22678441E+04</rscale>
<asrwt>0</asrwt>
<pdfrwt beam="2">  1        2 0.14582679E+00 0.22678441E+04</pdfrwt>
<pdfrwt beam="1">  1       -2 0.20869035E+00 0.22678441E+04</pdfrwt>
<totfact> 0.28899431E+00</totfact>
</mgrwt>
</event>
<event>
 4    1  0.1295381E-008  0.2227982E+04  0.7816531E-02  0.8506871E-01
         -2   -1    0    0    0  501 -0.00000000000E+00  0.00000000000E+00  0.17207635303E+04  0.17207635303E+04  0.00000000000E+00 0. -1.
          2   -1    0    0  501    0  0.00000000000E+00 -0.00000000000E+00 -0.72117781774E+03  0.72117781774E+03  0.00000000000E+00 0.  1.
    2000013    1    1    2    0    0 -0.54952417997E+03  0.13456163839E+03  0.64843697118E+03  0.12818167437E+04  0.95000000000E+03 0.  0.
   -2000013    1    1    2    0    0  0.54952417997E+03 -0.13456163839E+03  0.35114874133E+03  0.11601246043E+04  0.95000000000E+03 0.  0.
<mgrwt>
<rscale>  0 0.22279825E+04</rscale>
<asrwt>0</asrwt>
<pdfrwt beam="2">  1        2 0.11095043E+00 0.22279825E+04</pdfrwt>
<pdfrwt beam="1">  1       -2 0.26473285E+00 0.22279825E+04</pdfrwt>
<totfact> 0.18775094E+00</totfact>
</mgrwt>
</event>
<event>
 4    1  0.1295381E-008  0.2870908E+04  0.7816531E-02  0.8281586E-01
          2   -1    0    0  501    0  0.00000000000E+00  0.00000000000E+00  0.14482656987E+04  0.14482656987E+04  0.00000000000E+00 0.  1.
         -2   -1    0    0    0  501 -0.00000000000E+00 -0.00000000000E+00 -0.14227552182E+04  0.14227552182E+04  0.00000000000E+00 0. -1.
    2000013    1    1    2    0    0 -0.19756977283E+03  0.10323622048E+04 -0.21795289898E+03  0.14334604993E+04  0.95000000000E+03 0.  0.
   -2000013    1    1    2    0    0  0.19756977283E+03 -0.10323622048E+04  0.24346337940E+03  0.14375604176E+04  0.95000000000E+03 0.  0.
<mgrwt>
<rscale>  0 0.28709076E+04</rscale>
<asrwt>0</asrwt>
<pdfrwt beam="1">  1        2 0.22281011E+00 0.28709076E+04</pdfrwt>
<pdfrwt beam="2">  1       -2 0.21888542E+00 0.28709076E+04</pdfrwt>
<totfact> 0.11803727E+00</totfact>
</mgrwt>
</event>
<event>
 4    1  0.1295381E-008  0.2177026E+04  0.7816531E-02  0.8528052E-01
         -2   -1    0    0    0  501 -0.00000000000E+00  0.00000000000E+00  0.85482626274E+03  0.85482626274E+03  0.00000000000E+00 0. -1.
          2   -1    0    0  501    0  0.00000000000E+00 -0.00000000000E+00 -0.13860834103E+04  0.13860834103E+04  0.00000000000E+00 0.  1.
    2000013    1    1    2    0    0  0.23003531677E+03 -0.46128702846E+03 -0.13277320565E+03  0.10889585363E+04  0.95000000000E+03 0.  0.
   -2000013    1    1    2    0    0 -0.23003531677E+03  0.46128702846E+03 -0.39848394196E+03  0.11519511368E+04  0.95000000000E+03 0.  0.
<mgrwt>
<rscale>  0 0.21770260E+04</rscale>
<asrwt>0</asrwt>
<pdfrwt beam="2">  1        2 0.21324360E+00 0.21770260E+04</pdfrwt>
<pdfrwt beam="1">  1       -2 0.13151173E+00 0.21770260E+04</pdfrwt>
<totfact> 0.56935364E+00</totfact>
</mgrwt>
</event>
<event>
 4    1  0.1295381E-008  0.2169760E+04  0.7816531E-02  0.8531121E-01
         -2   -1    0    0    0  501 -0.00000000000E+00  0.00000000000E+00  0.15077842098E+04  0.15077842098E+04  0.00000000000E+00 0. -1.
          2   -1    0    0  501    0  0.00000000000E+00 -0.00000000000E+00 -0.78059212128E+03  0.78059212128E+03  0.00000000000E+00 0.  1.
    2000013    1    1    2    0    0 -0.43406161454E+03  0.19394919963E+03  0.59571574530E+03  0.12179503383E+04  0.95000000000E+03 0.  0.
   -2000013    1    1    2    0    0  0.43406161454E+03 -0.19394919963E+03  0.13147634320E+03  0.10704259928E+04  0.95000000000E+03 0.  0.
<mgrwt>
<rscale>  0 0.21697599E+04</rscale>
<asrwt>0</asrwt>
<pdfrwt beam="2">  1        2 0.12009110E+00 0.21697599E+04</pdfrwt>
<pdfrwt beam="1">  1       -2 0.23196680E+00 0.21697599E+04</pdfrwt>
<totfact> 0.27091766E+00</totfact>
</mgrwt>
</event>
<event>
 4    1  0.1295381E-008  0.2674203E+04  0.7816531E-02  0.8343424E-01
         -1   -1    0    0    0  501 -0.00000000000E+00  0.00000000000E+00  0.81848684871E+03  0.81848684871E+03  0.00000000000E+00 0.  1.
          1   -1    0    0  501    0  0.00000000000E+00 -0.00000000000E+00 -0.21843237996E+04  0.21843237996E+04  0.00000000000E+00 0. -1.
    2000013    1    1    2    0    0  0.84414752873E+03  0.28176056564E+03 -0.10260246367E+04  0.16574681360E+04  0.95000000000E+03 0.  0.
   -2000013    1    1    2    0    0 -0.84414752873E+03 -0.28176056564E+03 -0.33981231417E+03  0.13453425123E+04  0.95000000000E+03 0.  0.
<mgrwt>
<rscale>  0 0.26742029E+04</rscale>
<asrwt>0</asrwt>
<pdfrwt beam="2">  1        1 0.33604982E+00 0.26742029E+04</pdfrwt>
<pdfrwt beam="1">  1       -1 0.12592105E+00 0.26742029E+04</pdfrwt>
<totfact> 0.10733495E+00</totfact>
</mgrwt>
</event>
<event>
 4    1  0.1295381E-008  0.3446404E+04  0.7816531E-02  0.8126610E-01
          2   -1    0    0  501    0  0.00000000000E+00  0.00000000000E+00  0.23829016577E+04  0.23829016577E+04  0.00000000000E+00 0.  1.
         -2   -1    0    0    0  501 -0.00000000000E+00 -0.00000000000E+00 -0.12461384311E+04  0.12461384311E+04  0.00000000000E+00 0. -1.
    2000013    1    1    2    0    0  0.14305000393E+04 -0.66887892410E+02  0.43468472704E+03  0.17726407319E+04  0.95000000000E+03 0.  0.
   -2000013    1    1    2    0    0 -0.14305000393E+04  0.66887892410E+02  0.70207849963E+03  0.18563993569E+04  0.95000000000E+03 0.  0.
<mgrwt>
<rscale>  0 0.34464041E+04</rscale>
<asrwt>0</asrwt>
<pdfrwt beam="1">  1        2 0.36660025E+00 0.34464041E+04</pdfrwt>
<pdfrwt beam="2">  1       -2 0.19171361E+00 0.34464041E+04</pdfrwt>
<totfact> 0.50656277E-01</totfact>
</mgrwt>
</event>
<event>
 4    1  0.1295381E-008  0.2224468E+04  0.7816531E-02  0.8508312E-01
         -2   -1    0    0    0  501 -0.00000000000E+00  0.00000000000E+00  0.63316428221E+03  0.63316428221E+03  0.00000000000E+00 0. -1.
          2   -1    0    0  501    0  0.00000000000E+00 -0.00000000000E+00 -0.19537818906E+04  0.19537818906E+04  0.00000000000E+00 0.  1.
    2000013    1    1    2    0    0  0.38096729548E+03 -0.24148682766E+03 -0.23921007462E+03  0.10785051822E+04  0.95000000000E+03 0.  0.
   -2000013    1    1    2    0    0 -0.38096729548E+03  0.24148682766E+03 -0.10814075337E+04  0.15084409906E+04  0.95000000000E+03 0.  0.
<mgrwt>
<rscale>  0 0.22244684E+04</rscale>
<asrwt>0</asrwt>
<pdfrwt beam="2">  1        2 0.30058182E+00 0.22244684E+04</pdfrwt>
<pdfrwt beam="1">  1       -2 0.97409891E-01 0.22244684E+04</pdfrwt>
<totfact> 0.56822916E+00</totfact>
</mgrwt>
</event>
<event>
 4    1  0.1295381E-008  0.2143664E+04  0.7816531E-02  0.8542249E-01
         -2   -1    0    0    0  501 -0.00000000000E+00  0.00000000000E+00  0.17609261607E+04  0.17609261607E+04  0.00000000000E+00 0. -1.
          2   -1    0    0  501    0  0.00000000000E+00 -0.00000000000E+00 -0.65239761174E+03  0.65239761174E+03  0.00000000000E+00 0.  1.
    2000013    1    1    2    0    0  0.23211645814E+03  0.43123171414E+03  0.46360340750E+03  0.11650180088E+04  0.95000000000E+03 0.  0.
   -2000013    1    1    2    0    0 -0.23211645814E+03 -0.43123171414E+03  0.64492514147E+03  0.12483057636E+04  0.95000000000E+03 0.  0.
<mgrwt>
<rscale>  0 0.21436642E+04</rscale>
<asrwt>0</asrwt>
<pdfrwt beam="2">  1        2 0.10036886E+00 0.21436642E+04</pdfrwt>
<pdfrwt beam="1">  1       -2 0.27091171E+00 0.21436642E+04</pdfrwt>
<totfact> 0.19667932E+00</totfact>
</mgrwt>
</event>
<event>
 4    1  0.1295381E-008  0.2474116E+04  0.7816531E-02  0.8412265E-01
         -2   -1    0    0    0  501 -0.00000000000E+00  0.00000000000E+00  0.62096757738E+03  0.62096757738E+03  0.00000000000E+00 0. -1.
          2   -1    0    0  501    0  0.00000000000E+00 -0.00000000000E+00 -0.24644001581E+04  0.24644001581E+04  0.00000000000E+00 0.  1.
    2000013    1    1    2    0    0 -0.68104938906E+03 -0.40019487913E+03 -0.84455586359E+03  0.14965823794E+04  0.95000000000E+03 0.  0.
   -2000013    1    1    2    0    0  0.68104938906E+03  0.40019487913E+03 -0.99887671709E+03  0.15887853560E+04  0.95000000000E+03 0.  0.
<mgrwt>
<rscale>  0 0.24741161E+04</rscale>
<asrwt>0</asrwt>
<pdfrwt beam="2">  1        2 0.37913848E+00 0.24741161E+04</pdfrwt>
<pdfrwt beam="1">  1       -2 0.95533474E-01 0.24741161E+04</pdfrwt>
<totfact> 0.30006335E+00</totfact>
</mgrwt>
</event>
<event>
 4    1  0.1295381E-008  0.2052305E+04  0.7816531E-02  0.8582550E-01
         -2   -1    0    0    0  501 -0.00000000000E+00  0.00000000000E+00  0.37766726391E+03  0.37766726391E+03  0.00000000000E+00 0. -1.
          2   -1    0    0  501    0  0.00000000000E+00 -0.00000000000E+00 -0.27881382775E+04  0.27881382775E+04  0.00000000000E+00 0.  1.
    2000013    1    1    2    0    0  0.12802092516E+03 -0.34490446624E+03 -0.10154308429E+04  0.14383839004E+04  0.95000000000E+03 0.  0.
   -2000013    1    1    2    0    0 -0.12802092516E+03  0.34490446624E+03 -0.13950401707E+04  0.17274216410E+04  0.95000000000E+03 0.  0.
<mgrwt>
<rscale>  0 0.20523046E+04</rscale>
<asrwt>0</asrwt>
<pdfrwt beam="2">  1        2 0.42894434E+00 0.20523046E+04</pdfrwt>
<pdfrwt beam="1">  1       -2 0.58102658E-01 0.20523046E+04</pdfrwt>
<totfact> 0.60355466E+00</totfact>
</mgrwt>
</event>
<event>
 4    1  0.1295381E-008  0.2143360E+04  0.7816531E-02  0.8542380E-01
         -2   -1    0    0    0  501 -0.00000000000E+00  0.00000000000E+00  0.45821170783E+03  0.45821170783E+03  0.00000000000E+00 0. -1.
          2   -1    0    0  501    0  0.00000000000E+00 -0.00000000000E+00 -0.25064798788E+04  0.25064798788E+04  0.00000000000E+00 0.  1.
    2000013    1    1    2    0    0 -0.55287817702E+02  0.49276694814E+03 -0.10088300202E+04  0.14717724068E+04  0.95000000000E+03 0.  0.
   -2000013    1    1    2    0    0  0.55287817702E+02 -0.49276694814E+03 -0.10394381508E+04  0.14929191797E+04  0.95000000000E+03 0.  0.
<mgrwt>
<rscale>  0 0.21433604E+04</rscale>
<asrwt>0</asrwt>
<pdfrwt beam="2">  1        2 0.38561228E+00 0.21433604E+04</pdfrwt>
<pdfrwt beam="1">  1       -2 0.70494110E-01 0.21433604E+04</pdfrwt>
<totfact> 0.58024559E+00</totfact>
</mgrwt>
</event>
<event>
 4    1  0.1295381E-008  0.2544016E+04  0.7816531E-02  0.8387470E-01
         -2   -1    0    0    0  501 -0.00000000000E+00  0.00000000000E+00  0.54142792081E+03  0.54142792081E+03  0.00000000000E+00 0. -1.
          2   -1    0    0  501    0  0.00000000000E+00 -0.00000000000E+00 -0.29884029113E+04  0.29884029113E+04  0.00000000000E+00 0.  1.
    2000013    1    1    2    0    0 -0.74732926720E+03 -0.14890852514E+03 -0.71400736395E+03  0.14117298956E+04  0.95000000000E+03 0.  0.
   -2000013    1    1    2    0    0  0.74732926720E+03  0.14890852514E+03 -0.17329676265E+04  0.21181009365E+04  0.95000000000E+03 0.  0.
<mgrwt>
<rscale>  0 0.25440163E+04</rscale>
<asrwt>0</asrwt>
<pdfrwt beam="2">  1        2 0.45975429E+00 0.25440163E+04</pdfrwt>
<pdfrwt beam="1">  1       -2 0.83296603E-01 0.25440163E+04</pdfrwt>
<totfact> 0.19851961E+00</totfact>
</mgrwt>
</event>
<event>
 4    1  0.1295381E-008  0.3083553E+04  0.7816531E-02  0.8220266E-01
          2   -1    0    0  501    0  0.00000000000E+00  0.00000000000E+00  0.21357173209E+04  0.21357173209E+04  0.00000000000E+00 0.  1.
         -2   -1    0    0    0  501 -0.00000000000E+00 -0.00000000000E+00 -0.11130099018E+04  0.11130099018E+04  0.00000000000E+00 0. -1.
    2000013    1    1    2    0    0 -0.89343384221E+03  0.82053599474E+03  0.45296696758E+03  0.16059833196E+04  0.95000000000E+03 0.  0.
   -2000013    1    1    2    0    0  0.89343384221E+03 -0.82053599474E+03  0.56974045147E+03  0.16427439031E+04  0.95000000000E+03 0.  0.
<mgrwt>
<rscale>  0 0.30835528E+04</rscale>
<asrwt>0</asrwt>
<pdfrwt beam="1">  1        2 0.32857190E+00 0.30835528E+04</pdfrwt>
<pdfrwt beam="2">  1       -2 0.17123229E+00 0.30835528E+04</pdfrwt>
<totfact> 0.99652290E-01</totfact>
</mgrwt>
</event>
<event>
 4    1  0.1295381E-008  0.2900867E+04  0.7816531E-02  0.8272619E-01
          2   -1    0    0  501    0  0.00000000000E+00  0.00000000000E+00  0.25569883970E+04  0.25569883970E+04  0.00000000000E+00 0.  1.
         -2   -1    0    0    0  501 -0.00000000000E+00 -0.00000000000E+00 -0.82274832967E+03  0.82274832967E+03  0.00000000000E+00 0. -1.
    2000013    1    1    2    0    0 -0.92234176110E+03  0.30028223291E+03  0.14616229059E+04  0.19949248765E+04  0.95000000000E+03 0.  0.
   -2000013    1    1    2    0    0  0.92234176110E+03 -0.30028223291E+03  0.27261716139E+03  0.13848118502E+04  0.95000000000E+03 0.  0.
<mgrwt>
<rscale>  0 0.29008674E+04</rscale>
<asrwt>0</asrwt>
<pdfrwt beam="1">  1        2 0.39338283E+00 0.29008674E+04</pdfrwt>
<pdfrwt beam="2">  1       -2 0.12657667E+00 0.29008674E+04</pdfrwt>
<totfact> 0.12927504E+00</totfact>
</mgrwt>
</event>
<event>
 4    1  0.1295381E-008  0.2814131E+04  0.7816531E-02  0.8298895E-01
          2   -1    0    0  501    0  0.00000000000E+00  0.00000000000E+00  0.15312160825E+04  0.15312160825E+04  0.00000000000E+00 0.  1.
         -2   -1    0    0    0  501 -0.00000000000E+00 -0.00000000000E+00 -0.12929807268E+04  0.12929807268E+04  0.00000000000E+00 0. -1.
    2000013    1    1    2    0    0 -0.36289752373E+03 -0.96472254446E+03 -0.35844683972E+01  0.14017478550E+04  0.95000000000E+03 0.  0.
   -2000013    1    1    2    0    0  0.36289752373E+03  0.96472254446E+03  0.24181982406E+03  0.14224489544E+04  0.95000000000E+03 0.  0.
<mgrwt>
<rscale>  0 0.28141307E+04</rscale>
<asrwt>0</asrwt>
<pdfrwt beam="1">  1        2 0.23557170E+00 0.28141307E+04</pdfrwt>
<pdfrwt beam="2">  1       -2 0.19892011E+00 0.28141307E+04</pdfrwt>
<totfact> 0.14324475E+00</totfact>
</mgrwt>
</event>
<event>
 4    1  0.1295381E-008  0.4223234E+04  0.7816531E-02  0.7960967E-01
          2   -1    0    0  501    0  0.00000000000E+00  0.00000000000E+00  0.48193446253E+04  0.48193446253E+04  0.00000000000E+00 0.  1.
         -2   -1    0    0    0  501 -0.00000000000E+00 -0.00000000000E+00 -0.92521425554E+03  0.92521425554E+03  0.00000000000E+00 0. -1.
    2000013    1    1    2    0    0 -0.10830459096E+03  0.15188465460E+04  0.43372325168E+03  0.18464128936E+04  0.95000000000E+03 0.  0.
   -2000013    1    1    2    0    0  0.10830459096E+03 -0.15188465460E+04  0.34604071181E+04  0.38981459872E+04  0.95000000000E+03 0.  0.
<mgrwt>
<rscale>  0 0.42232340E+04</rscale>
<asrwt>0</asrwt>
<pdfrwt beam="1">  1        2 0.74143762E+00 0.42232340E+04</pdfrwt>
<pdfrwt beam="2">  1       -2 0.14234066E+00 0.42232340E+04</pdfrwt>
<totfact> 0.14913269E-02</totfact>
</mgrwt>
</event>
<event>
 4    1  0.1295381E-008  0.2289993E+04  0.7816531E-02  0.8481877E-01
          2   -1    0    0  501    0  0.00000000000E+00  0.00000000000E+00  0.22873751270E+04  0.22873751270E+04  0.00000000000E+00 0.  1.
         -2   -1    0    0    0  501 -0.00000000000E+00 -0.00000000000E+00 -0.57315346413E+03  0.57315346413E+03  0.00000000000E+00 0. -1.
    2000013    1    1    2    0    0  0.62518664193E+03  0.74658515993E+02  0.99442991996E+03  0.15125551550E+04  0.95000000000E+03 0.  0.
   -2000013    1    1    2    0    0 -0.62518664193E+03 -0.74658515993E+02  0.71979174289E+03  0.13479734361E+04  0.95000000000E+03 0.  0.
<mgrwt>
<rscale>  0 0.22899930E+04</rscale>
<asrwt>0</asrwt>
<pdfrwt beam="1">  1        2 0.35190386E+00 0.22899930E+04</pdfrwt>
<pdfrwt beam="2">  1       -2 0.88177457E-01 0.22899930E+04</pdfrwt>
<totfact> 0.46323174E+00</totfact>
</mgrwt>
</event>
<event>
 4    1  0.1295381E-008  0.2706832E+04  0.7816531E-02  0.8332791E-01
         -2   -1    0    0    0  501 -0.00000000000E+00  0.00000000000E+00  0.10552062191E+04  0.10552062191E+04  0.00000000000E+00 0. -1.
          2   -1    0    0  501    0  0.00000000000E+00 -0.00000000000E+00 -0.17359028779E+04  0.17359028779E+04  0.00000000000E+00 0.  1.
    2000013    1    1    2    0    0 -0.66105053870E+03 -0.60632885232E+03 -0.70434477752E+03  0.14843261291E+04  0.95000000000E+03 0.  0.
   -2000013    1    1    2    0    0  0.66105053870E+03  0.60632885232E+03  0.23648118718E+02  0.13067829680E+04  0.95000000000E+03 0.  0.
<mgrwt>
<rscale>  0 0.27068325E+04</rscale>
<asrwt>0</asrwt>
<pdfrwt beam="2">  1        2 0.26706198E+00 0.27068325E+04</pdfrwt>
<pdfrwt beam="1">  1       -2 0.16233942E+00 0.27068325E+04</pdfrwt>
<totfact> 0.19884628E+00</totfact>
</mgrwt>
</event>
<event>
 4    1  0.1295381E-008  0.2148206E+04  0.7816531E-02  0.8540300E-01
          2   -1    0    0  501    0  0.00000000000E+00  0.00000000000E+00  0.35233294082E+04  0.35233294082E+04  0.00000000000E+00 0.  1.
         -2   -1    0    0    0  501 -0.00000000000E+00 -0.00000000000E+00 -0.32744524868E+03  0.32744524868E+03  0.00000000000E+00 0. -1.
    2000013    1    1    2    0    0 -0.11341458125E+03  0.29788164335E+03  0.22912714224E+04  0.25008040850E+04  0.95000000000E+03 0.  0.
   -2000013    1    1    2    0    0  0.11341458125E+03 -0.29788164335E+03  0.90461273717E+03  0.13499705719E+04  0.95000000000E+03 0.  0.
<mgrwt>
<rscale>  0 0.21482062E+04</rscale>
<asrwt>0</asrwt>
<pdfrwt beam="1">  1        2 0.54205065E+00 0.21482062E+04</pdfrwt>
<pdfrwt beam="2">  1       -2 0.50376195E-01 0.21482062E+04</pdfrwt>
<totfact> 0.26892788E+00</totfact>
</mgrwt>
</event>
<event>
 4    1  0.1295381E-008  0.2429702E+04  0.7816531E-02  0.8428467E-01
         -2   -1    0    0    0  501 -0.00000000000E+00  0.00000000000E+00  0.17467760780E+04  0.17467760780E+04  0.00000000000E+00 0. -1.
          2   -1    0    0  501    0  0.00000000000E+00 -0.00000000000E+00 -0.84490670311E+03  0.84490670311E+03  0.00000000000E+00 0.  1.
    2000013    1    1    2    0    0  0.55184906244E+03  0.21120558488E+03  0.95601882699E+03  0.14716036098E+04  0.95000000000E+03 0.  0.
   -2000013    1    1    2    0    0 -0.55184906244E+03 -0.21120558488E+03 -0.54149452123E+02  0.11200791713E+04  0.95000000000E+03 0.  0.
<mgrwt>
<rscale>  0 0.24297019E+04</rscale>
<asrwt>0</asrwt>
<pdfrwt beam="2">  1        2 0.12998565E+00 0.24297019E+04</pdfrwt>
<pdfrwt beam="1">  1       -2 0.26873478E+00 0.24297019E+04</pdfrwt>
<totfact> 0.14162131E+00</totfact>
</mgrwt>
</event>
<event>
 4    1  0.1295381E-008  0.2266325E+04  0.7816531E-02  0.8491318E-01
         -2   -1    0    0    0  501 -0.00000000000E+00  0.00000000000E+00  0.54030204461E+03  0.54030204461E+03  0.00000000000E+00 0. -1.
          2   -1    0    0  501    0  0.00000000000E+00 -0.00000000000E+00 -0.23765542587E+04  0.23765542587E+04  0.00000000000E+00 0.  1.
    2000013    1    1    2    0    0  0.26597882077E+03  0.47501449075E+03 -0.12937432746E+04  0.16948908992E+04  0.95000000000E+03 0.  0.
   -2000013    1    1    2    0    0 -0.26597882077E+03 -0.47501449075E+03 -0.54250893953E+03  0.12219654042E+04  0.95000000000E+03 0.  0.
<mgrwt>
<rscale>  0 0.22663249E+04</rscale>
<asrwt>0</asrwt>
<pdfrwt beam="2">  1        2 0.36562373E+00 0.22663249E+04</pdfrwt>
<pdfrwt beam="1">  1       -2 0.83123393E-01 0.22663249E+04</pdfrwt>
<totfact> 0.47249648E+00</totfact>
</mgrwt>
</event>
<event>
 4    1  0.1295381E-008  0.2238340E+04  0.7816531E-02  0.8502637E-01
          1   -1    0    0  501    0  0.00000000000E+00  0.00000000000E+00  0.21395037655E+04  0.21395037655E+04  0.00000000000E+00 0.  1.
         -1   -1    0    0    0  501 -0.00000000000E+00 -0.00000000000E+00 -0.58543574286E+03  0.58543574286E+03  0.00000000000E+00 0. -1.
    2000013    1    1    2    0    0 -0.34741532979E+03 -0.20081708027E+03  0.13063088315E+04  0.16643219864E+04  0.95000000000E+03 0.  0.
   -2000013    1    1    2    0    0  0.34741532979E+03  0.20081708027E+03  0.24775919114E+03  0.10606175220E+04  0.95000000000E+03 0.  0.
<mgrwt>
<rscale>  0 0.22383404E+04</rscale>
<asrwt>0</asrwt>
<pdfrwt beam="1">  1        1 0.32915442E+00 0.22383404E+04</pdfrwt>
<pdfrwt beam="2">  1       -1 0.90067038E-01 0.22383404E+04</pdfrwt>
<totfact> 0.26246104E+00</totfact>
</mgrwt>
</event>
<event>
 4    1  0.1295381E-008  0.2160061E+04  0.7816531E-02  0.8535238E-01
         -2   -1    0    0    0  501 -0.00000000000E+00  0.00000000000E+00  0.71624660569E+03  0.71624660569E+03  0.00000000000E+00 0. -1.
          2   -1    0    0  501    0  0.00000000000E+00 -0.00000000000E+00 -0.16285810363E+04  0.16285810363E+04  0.00000000000E+00 0.  1.
    2000013    1    1    2    0    0  0.32031368656E+03 -0.38571328291E+03 -0.57797038611E+03  0.12198054606E+04  0.95000000000E+03 0.  0.
   -2000013    1    1    2    0    0 -0.32031368656E+03  0.38571328291E+03 -0.33436404449E+03  0.11250221814E+04  0.95000000000E+03 0.  0.
<mgrwt>
<rscale>  0 0.21600608E+04</rscale>
<asrwt>0</asrwt>
<pdfrwt beam="2">  1        2 0.25055092E+00 0.21600608E+04</pdfrwt>
<pdfrwt beam="1">  1       -2 0.11019179E+00 0.21600608E+04</pdfrwt>
<totfact> 0.64496911E+00</totfact>
</mgrwt>
</event>
<event>
 4    1  0.1295381E-008  0.2224652E+04  0.7816531E-02  0.8508237E-01
          2   -1    0    0  501    0  0.00000000000E+00  0.00000000000E+00  0.25135878854E+04  0.25135878854E+04  0.00000000000E+00 0.  1.
         -2   -1    0    0    0  501 -0.00000000000E+00 -0.00000000000E+00 -0.49223207664E+03  0.49223207664E+03  0.00000000000E+00 0. -1.
    2000013    1    1    2    0    0 -0.45273904842E+03  0.16264764047E+03  0.57632898810E+03  0.12108187327E+04  0.95000000000E+03 0.  0.
   -2000013    1    1    2    0    0  0.45273904842E+03 -0.16264764047E+03  0.14450268206E+04  0.17950012293E+04  0.95000000000E+03 0.  0.
<mgrwt>
<rscale>  0 0.22246515E+04</rscale>
<asrwt>0</asrwt>
<pdfrwt beam="1">  1        2 0.38670582E+00 0.22246515E+04</pdfrwt>
<pdfrwt beam="2">  1       -2 0.75728013E-01 0.22246515E+04</pdfrwt>
<totfact> 0.48739312E+00</totfact>
</mgrwt>
</event>
<event>
 4    1  0.1295381E-008  0.3387998E+04  0.7816531E-02  0.8140858E-01
         -2   -1    0    0    0  501 -0.00000000000E+00  0.00000000000E+00  0.15500849254E+04  0.15500849254E+04  0.00000000000E+00 0.  1.
          2   -1    0    0  501    0  0.00000000000E+00 -0.00000000000E+00 -0.18512741990E+04  0.18512741990E+04  0.00000000000E+00 0. -1.
    2000013    1    1    2    0    0 -0.12219157842E+04 -0.66708594933E+03 -0.32170853656E+03  0.17158316438E+04  0.95000000000E+03 0.  0.
   -2000013    1    1    2    0    0  0.12219157842E+04  0.66708594933E+03  0.20519263041E+02  0.16855274805E+04  0.95000000000E+03 0.  0.
<mgrwt>
<rscale>  0 0.33879978E+04</rscale>
<asrwt>0</asrwt>
<pdfrwt beam="2">  1        2 0.28481141E+00 0.33879978E+04</pdfrwt>
<pdfrwt beam="1">  1       -2 0.23847461E+00 0.33879978E+04</pdfrwt>
<totfact> 0.50737854E-01</totfact>
</mgrwt>
</event>
<event>
 4    1  0.1295381E-008  0.2839946E+04  0.7816531E-02  0.8290973E-01
         -1   -1    0    0    0  501 -0.00000000000E+00  0.00000000000E+00  0.11422891640E+04  0.11422891640E+04  0.00000000000E+00 0. -1.
          1   -1    0    0  501    0  0.00000000000E+00 -0.00000000000E+00 -0.17651602209E+04  0.17651602209E+04  0.00000000000E+00 0.  1.
    2000013    1    1    2    0    0  0.68510514855E+03 -0.26083025675E+03 -0.10887062544E+04  0.16202415856E+04  0.95000000000E+03 0.  0.
   -2000013    1    1    2    0    0 -0.68510514855E+03  0.26083025675E+03  0.46583519752E+03  0.12872077993E+04  0.95000000000E+03 0.  0.
<mgrwt>
<rscale>  0 0.28399461E+04</rscale>
<asrwt>0</asrwt>
<pdfrwt beam="2">  1        1 0.27156311E+00 0.28399461E+04</pdfrwt>
<pdfrwt beam="1">  1       -1 0.17573679E+00 0.28399461E+04</pdfrwt>
<totfact> 0.82937323E-01</totfact>
</mgrwt>
</event>
<event>
 4    1  0.1295381E-008  0.1968540E+04  0.7816531E-02  0.8621472E-01
          2   -1    0    0  501    0  0.00000000000E+00  0.00000000000E+00  0.10487078189E+04  0.10487078189E+04  0.00000000000E+00 0.  1.
         -2   -1    0    0    0  501 -0.00000000000E+00 -0.00000000000E+00 -0.92379128269E+03  0.92379128269E+03  0.00000000000E+00 0. -1.
    2000013    1    1    2    0    0 -0.84548805074E+02  0.19935389488E+03 -0.77093766277E+02  0.97741185006E+03  0.95000000000E+03 0.  0.
   -2000013    1    1    2    0    0  0.84548805074E+02 -0.19935389488E+03  0.20201030250E+03  0.99508725153E+03  0.95000000000E+03 0.  0.
<mgrwt>
<rscale>  0 0.19685397E+04</rscale>
<asrwt>0</asrwt>
<pdfrwt beam="1">  1        2 0.16133966E+00 0.19685397E+04</pdfrwt>
<pdfrwt beam="2">  1       -2 0.14212174E+00 0.19685397E+04</pdfrwt>
<totfact> 0.75437184E+00</totfact>
</mgrwt>
</event>
<event>
 4    1  0.1295381E-008  0.2667783E+04  0.7816531E-02  0.8345534E-01
         -1   -1    0    0    0  501 -0.00000000000E+00  0.00000000000E+00  0.52612629456E+03  0.52612629456E+03  0.00000000000E+00 0. -1.
          1   -1    0    0  501    0  0.00000000000E+00 -0.00000000000E+00 -0.33818247911E+04  0.33818247911E+04  0.00000000000E+00 0.  1.
    2000013    1    1    2    0    0  0.61392398547E+03  0.64810637989E+03 -0.10139820788E+04  0.16515460017E+04  0.95000000000E+03 0.  0.
   -2000013    1    1    2    0    0 -0.61392398547E+03 -0.64810637989E+03 -0.18417164178E+04  0.22564050840E+04  0.95000000000E+03 0.  0.
<mgrwt>
<rscale>  0 0.26677833E+04</rscale>
<asrwt>0</asrwt>
<pdfrwt beam="2">  1        1 0.52028074E+00 0.26677833E+04</pdfrwt>
<pdfrwt beam="1">  1       -1 0.80942507E-01 0.26677833E+04</pdfrwt>
<totfact> 0.41164327E-01</totfact>
</mgrwt>
</event>
<event>
 4    1  0.1295381E-008  0.2068469E+04  0.7816531E-02  0.8575261E-01
          2   -1    0    0  501    0  0.00000000000E+00  0.00000000000E+00  0.14631315448E+04  0.14631315448E+04  0.00000000000E+00 0.  1.
         -2   -1    0    0    0  501 -0.00000000000E+00 -0.00000000000E+00 -0.73106303415E+03  0.73106303415E+03  0.00000000000E+00 0. -1.
    2000013    1    1    2    0    0  0.26606293009E+03 -0.24429406829E+03  0.16289437709E+03  0.10293219383E+04  0.95000000000E+03 0.  0.
   -2000013    1    1    2    0    0 -0.26606293009E+03  0.24429406829E+03  0.56917413351E+03  0.11648726406E+04  0.95000000000E+03 0.  0.
<mgrwt>
<rscale>  0 0.20684694E+04</rscale>
<asrwt>0</asrwt>
<pdfrwt beam="1">  1        2 0.22509716E+00 0.20684694E+04</pdfrwt>
<pdfrwt beam="2">  1       -2 0.11247124E+00 0.20684694E+04</pdfrwt>
<totfact> 0.76616848E+00</totfact>
</mgrwt>
</event>
<event>
 4    1  0.1295381E-008  0.2696552E+04  0.7816531E-02  0.8336125E-01
          2   -1    0    0  501    0  0.00000000000E+00  0.00000000000E+00  0.15736647093E+04  0.15736647093E+04  0.00000000000E+00 0.  1.
         -2   -1    0    0    0  501 -0.00000000000E+00 -0.00000000000E+00 -0.11551687884E+04  0.11551687884E+04  0.00000000000E+00 0. -1.
    2000013    1    1    2    0    0  0.42459119109E+03 -0.85736237177E+03  0.20991884574E+03  0.13645196363E+04  0.95000000000E+03 0.  0.
   -2000013    1    1    2    0    0 -0.42459119109E+03  0.85736237177E+03  0.20857707523E+03  0.13643138614E+04  0.95000000000E+03 0.  0.
<mgrwt>
<rscale>  0 0.26965521E+04</rscale>
<asrwt>0</asrwt>
<pdfrwt beam="1">  1        2 0.24210226E+00 0.26965521E+04</pdfrwt>
<pdfrwt beam="2">  1       -2 0.17771827E+00 0.26965521E+04</pdfrwt>
<totfact> 0.19043549E+00</totfact>
</mgrwt>
</event>
<event>
 4    1  0.1295381E-008  0.2767972E+04  0.7816531E-02  0.8313281E-01
         -2   -1    0    0    0  501 -0.00000000000E+00  0.00000000000E+00  0.14581159574E+04  0.14581159574E+04  0.00000000000E+00 0. -1.
          2   -1    0    0  501    0  0.00000000000E+00 -0.00000000000E+00 -0.13136250302E+04  0.13136250302E+04  0.00000000000E+00 0.  1.
    2000013    1    1    2    0    0 -0.54179956763E+03  0.84800752972E+03  0.56283980636E+02  0.13850384213E+04  0.95000000000E+03 0.  0.
   -2000013    1    1    2    0    0  0.54179956763E+03 -0.84800752972E+03  0.88206946512E+02  0.13867025663E+04  0.95000000000E+03 0.  0.
<mgrwt>
<rscale>  0 0.27679723E+04</rscale>
<asrwt>0</asrwt>
<pdfrwt beam="2">  1        2 0.20209616E+00 0.27679723E+04</pdfrwt>
<pdfrwt beam="1">  1       -2 0.22432553E+00 0.27679723E+04</pdfrwt>
<totfact> 0.13142888E+00</totfact>
</mgrwt>
</event>
<event>
 4    1  0.1295381E-008  0.2073809E+04  0.7816531E-02  0.8572869E-01
          2   -1    0    0  501    0  0.00000000000E+00  0.00000000000E+00  0.19106760186E+04  0.19106760186E+04  0.00000000000E+00 0.  1.
         -2   -1    0    0    0  501 -0.00000000000E+00 -0.00000000000E+00 -0.56271749947E+03  0.56271749947E+03  0.00000000000E+00 0. -1.
    2000013    1    1    2    0    0  0.30280900508E+03  0.26909318387E+03  0.78436769218E+03  0.12968566273E+04  0.95000000000E+03 0.  0.
   -2000013    1    1    2    0    0 -0.30280900508E+03 -0.26909318387E+03  0.56359082692E+03  0.11765368908E+04  0.95000000000E+03 0.  0.
<mgrwt>
<rscale>  0 0.20738089E+04</rscale>
<asrwt>0</asrwt>
<pdfrwt beam="1">  1        2 0.29395015E+00 0.20738089E+04</pdfrwt>
<pdfrwt beam="2">  1       -2 0.86571924E-01 0.20738089E+04</pdfrwt>
<totfact> 0.79928086E+00</totfact>
</mgrwt>
</event>
<event>
 4    1  0.1295381E-008  0.2846783E+04  0.7816531E-02  0.8288889E-01
          2   -1    0    0  501    0  0.00000000000E+00  0.00000000000E+00  0.16086815831E+04  0.16086815831E+04  0.00000000000E+00 0.  1.
         -2   -1    0    0    0  501 -0.00000000000E+00 -0.00000000000E+00 -0.12594437930E+04  0.12594437930E+04  0.00000000000E+00 0. -1.
    2000013    1    1    2    0    0  0.22756235494E+03  0.93145656482E+03 -0.28059587323E+03  0.13786333819E+04  0.95000000000E+03 0.  0.
   -2000013    1    1    2    0    0 -0.22756235494E+03 -0.93145656482E+03  0.62983366328E+03  0.14894919942E+04  0.95000000000E+03 0.  0.
<mgrwt>
<rscale>  0 0.28467835E+04</rscale>
<asrwt>0</asrwt>
<pdfrwt beam="1">  1        2 0.24748948E+00 0.28467835E+04</pdfrwt>
<pdfrwt beam="2">  1       -2 0.19376058E+00 0.28467835E+04</pdfrwt>
<totfact> 0.13984349E+00</totfact>
</mgrwt>
</event>
<event>
 4    1  0.1295381E-008  0.2725367E+04  0.7816531E-02  0.8326821E-01
          2   -1    0    0  501    0  0.00000000000E+00  0.00000000000E+00  0.10772156419E+04  0.10772156419E+04  0.00000000000E+00 0.  1.
         -2   -1    0    0    0  501 -0.00000000000E+00 -0.00000000000E+00 -0.17238024573E+04  0.17238024573E+04  0.00000000000E+00 0. -1.
    2000013    1    1    2    0    0 -0.70158625171E+03  0.57280110710E+03 -0.69963051917E+03  0.14873826812E+04  0.95000000000E+03 0.  0.
   -2000013    1    1    2    0    0  0.70158625171E+03 -0.57280110710E+03  0.53043703772E+02  0.13136354180E+04  0.95000000000E+03 0.  0.
<mgrwt>
<rscale>  0 0.27253675E+04</rscale>
<asrwt>0</asrwt>
<pdfrwt beam="1">  1        2 0.16572548E+00 0.27253675E+04</pdfrwt>
<pdfrwt beam="2">  1       -2 0.26520038E+00 0.27253675E+04</pdfrwt>
<totfact> 0.10217155E+00</totfact>
</mgrwt>
</event>
<event>
 4    1  0.1295381E-008  0.2484911E+04  0.7816531E-02  0.8408381E-01
         -2   -1    0    0    0  501 -0.00000000000E+00  0.00000000000E+00  0.55823370183E+03  0.55823370183E+03  0.00000000000E+00 0. -1.
          2   -1    0    0  501    0  0.00000000000E+00 -0.00000000000E+00 -0.27653214139E+04  0.27653214139E+04  0.00000000000E+00 0.  1.
    2000013    1    1    2    0    0 -0.65575527440E+03  0.32736773557E+03 -0.15348957223E+04  0.19482272692E+04  0.95000000000E+03 0.  0.
   -2000013    1    1    2    0    0  0.65575527440E+03 -0.32736773557E+03 -0.67219198971E+03  0.13753278465E+04  0.95000000000E+03 0.  0.
<mgrwt>
<rscale>  0 0.24849110E+04</rscale>
<asrwt>0</asrwt>
<pdfrwt beam="2">  1        2 0.42543406E+00 0.24849110E+04</pdfrwt>
<pdfrwt beam="1">  1       -2 0.85882109E-01 0.24849110E+04</pdfrwt>
<totfact> 0.25500744E+00</totfact>
</mgrwt>
</event>
<event>
 4    1  0.1295381E-008  0.2576293E+04  0.7816531E-02  0.8376299E-01
         -2   -1    0    0    0  501 -0.00000000000E+00  0.00000000000E+00  0.70654694224E+03  0.70654694224E+03  0.00000000000E+00 0. -1.
          2   -1    0    0  501    0  0.00000000000E+00 -0.00000000000E+00 -0.23484939291E+04  0.23484939291E+04  0.00000000000E+00 0.  1.
    2000013    1    1    2    0    0  0.25188653872E+03  0.82827608334E+03 -0.71942680289E+03  0.14729436593E+04  0.95000000000E+03 0.  0.
   -2000013    1    1    2    0    0 -0.25188653872E+03 -0.82827608334E+03 -0.92252018393E+03  0.15820972121E+04  0.95000000000E+03 0.  0.
<mgrwt>
<rscale>  0 0.25762928E+04</rscale>
<asrwt>0</asrwt>
<pdfrwt beam="2">  1        2 0.36130676E+00 0.25762928E+04</pdfrwt>
<pdfrwt beam="1">  1       -2 0.10869953E+00 0.25762928E+04</pdfrwt>
<totfact> 0.25493678E+00</totfact>
</mgrwt>
</event>
<event>
 4    1  0.1295381E-008  0.2369869E+04  0.7816531E-02  0.8450871E-01
          1   -1    0    0  501    0  0.00000000000E+00  0.00000000000E+00  0.10280712198E+04  0.10280712198E+04  0.00000000000E+00 0.  1.
         -1   -1    0    0    0  501 -0.00000000000E+00 -0.00000000000E+00 -0.13657325571E+04  0.13657325571E+04  0.00000000000E+00 0. -1.
    2000013    1    1    2    0    0  0.52193441444E+03  0.39657291765E+03  0.10199038591E+03  0.11587008461E+04  0.95000000000E+03 0.  0.
   -2000013    1    1    2    0    0 -0.52193441444E+03 -0.39657291765E+03 -0.43965172319E+03  0.12351029308E+04  0.95000000000E+03 0.  0.
<mgrwt>
<rscale>  0 0.23698695E+04</rscale>
<asrwt>0</asrwt>
<pdfrwt beam="1">  1        1 0.15816480E+00 0.23698695E+04</pdfrwt>
<pdfrwt beam="2">  1       -1 0.21011270E+00 0.23698695E+04</pdfrwt>
<totfact> 0.16589749E+00</totfact>
</mgrwt>
</event>
<event>
 4    1  0.1295381E-008  0.2651491E+04  0.7816531E-02  0.8350918E-01
          2   -1    0    0  501    0  0.00000000000E+00  0.00000000000E+00  0.21852546668E+04  0.21852546668E+04  0.00000000000E+00 0.  1.
         -2   -1    0    0    0  501 -0.00000000000E+00 -0.00000000000E+00 -0.80430039072E+03  0.80430039072E+03  0.00000000000E+00 0. -1.
    2000013    1    1    2    0    0  0.16326716541E+03  0.69107503021E+03  0.13583341937E+04  0.18032783053E+04  0.95000000000E+03 0.  0.
   -2000013    1    1    2    0    0 -0.16326716541E+03 -0.69107503021E+03  0.22620082373E+02  0.11862767522E+04  0.95000000000E+03 0.  0.
<mgrwt>
<rscale>  0 0.26514910E+04</rscale>
<asrwt>0</asrwt>
<pdfrwt beam="1">  1        2 0.33619302E+00 0.26514910E+04</pdfrwt>
<pdfrwt beam="2">  1       -2 0.12373852E+00 0.26514910E+04</pdfrwt>
<totfact> 0.22800258E+00</totfact>
</mgrwt>
</event>
<event>
 4    1  0.1295381E-008  0.2010059E+04  0.7816531E-02  0.8601932E-01
         -2   -1    0    0    0  501 -0.00000000000E+00  0.00000000000E+00  0.14016814622E+04  0.14016814622E+04  0.00000000000E+00 0. -1.
          2   -1    0    0  501    0  0.00000000000E+00 -0.00000000000E+00 -0.72062304891E+03  0.72062304891E+03  0.00000000000E+00 0.  1.
    2000013    1    1    2    0    0  0.18320739962E+03  0.25369560296E+03  0.23676856717E+03  0.10278549337E+04  0.95000000000E+03 0.  0.
   -2000013    1    1    2    0    0 -0.18320739962E+03 -0.25369560296E+03  0.44428984611E+03  0.10944495775E+04  0.95000000000E+03 0.  0.
<mgrwt>
<rscale>  0 0.20100587E+04</rscale>
<asrwt>0</asrwt>
<pdfrwt beam="2">  1        2 0.11086509E+00 0.20100587E+04</pdfrwt>
<pdfrwt beam="1">  1       -2 0.21564330E+00 0.20100587E+04</pdfrwt>
<totfact> 0.38592793E+00</totfact>
</mgrwt>
</event>
<event>
 4    1  0.1295381E-008  0.3015350E+04  0.7816531E-02  0.8239361E-01
         -2   -1    0    0    0  501 -0.00000000000E+00  0.00000000000E+00  0.13312325878E+04  0.13312325878E+04  0.00000000000E+00 0. -1.
          2   -1    0    0  501    0  0.00000000000E+00 -0.00000000000E+00 -0.17075037268E+04  0.17075037268E+04  0.00000000000E+00 0.  1.
    2000013    1    1    2    0    0 -0.11182593699E+04 -0.34646720728E+03 -0.18167800024E+03  0.15185685496E+04  0.95000000000E+03 0.  0.
   -2000013    1    1    2    0    0  0.11182593699E+04  0.34646720728E+03 -0.19459313880E+03  0.15201677650E+04  0.95000000000E+03 0.  0.
<mgrwt>
<rscale>  0 0.30153505E+04</rscale>
<asrwt>0</asrwt>
<pdfrwt beam="2">  1        2 0.26269288E+00 0.30153505E+04</pdfrwt>
<pdfrwt beam="1">  1       -2 0.20480501E+00 0.30153505E+04</pdfrwt>
<totfact> 0.10274940E+00</totfact>
</mgrwt>
</event>
<event>
 4    1  0.1295381E-008  0.2276463E+04  0.7816531E-02  0.8487259E-01
         -2   -1    0    0    0  501 -0.00000000000E+00  0.00000000000E+00  0.10878042370E+04  0.10878042370E+04  0.00000000000E+00 0. -1.
          2   -1    0    0  501    0  0.00000000000E+00 -0.00000000000E+00 -0.11909967688E+04  0.11909967688E+04  0.00000000000E+00 0.  1.
    2000013    1    1    2    0    0  0.22771152702E+03 -0.48959391719E+03 -0.37054012792E+03  0.11538434598E+04  0.95000000000E+03 0.  0.
   -2000013    1    1    2    0    0 -0.22771152702E+03  0.48959391719E+03  0.26734759614E+03  0.11249575461E+04  0.95000000000E+03 0.  0.
<mgrwt>
<rscale>  0 0.22764633E+04</rscale>
<asrwt>0</asrwt>
<pdfrwt beam="2">  1        2 0.18323027E+00 0.22764633E+04</pdfrwt>
<pdfrwt beam="1">  1       -2 0.16735450E+00 0.22764633E+04</pdfrwt>
<totfact> 0.38783086E+00</totfact>
</mgrwt>
</event>
<event>
 4    1  0.1295381E-008  0.2054185E+04  0.7816531E-02  0.8581698E-01
         -2   -1    0    0    0  501 -0.00000000000E+00  0.00000000000E+00  0.10710756078E+04  0.10710756078E+04  0.00000000000E+00 0. -1.
          2   -1    0    0  501    0  0.00000000000E+00 -0.00000000000E+00 -0.98491556331E+03  0.98491556331E+03  0.00000000000E+00 0.  1.
    2000013    1    1    2    0    0 -0.16719779464E+03  0.35208846573E+03  0.20752441097E+02  0.10270599077E+04  0.95000000000E+03 0.  0.
   -2000013    1    1    2    0    0  0.16719779464E+03 -0.35208846573E+03  0.65407603407E+02  0.10289312634E+04  0.95000000000E+03 0.  0.
<mgrwt>
<rscale>  0 0.20541850E+04</rscale>
<asrwt>0</asrwt>
<pdfrwt beam="2">  1        2 0.15152547E+00 0.20541850E+04</pdfrwt>
<pdfrwt beam="1">  1       -2 0.16478086E+00 0.20541850E+04</pdfrwt>
<totfact> 0.55357293E+00</totfact>
</mgrwt>
</event>
<event>
 4    1  0.1295381E-008  0.3301968E+04  0.7816531E-02  0.8162395E-01
         -2   -1    0    0    0  501 -0.00000000000E+00  0.00000000000E+00  0.19290587546E+04  0.19290587546E+04  0.00000000000E+00 0. -1.
          2   -1    0    0  501    0  0.00000000000E+00 -0.00000000000E+00 -0.14129942815E+04  0.14129942815E+04  0.00000000000E+00 0.  1.
    2000013    1    1    2    0    0  0.11351096193E+04 -0.72642062163E+03  0.17281860830E+03  0.16578682211E+04  0.95000000000E+03 0.  0.
   -2000013    1    1    2    0    0 -0.11351096193E+04  0.72642062163E+03  0.34324586479E+03  0.16841848150E+04  0.95000000000E+03 0.  0.
<mgrwt>
<rscale>  0 0.33019685E+04</rscale>
<asrwt>0</asrwt>
<pdfrwt beam="2">  1        2 0.21738374E+00 0.33019685E+04</pdfrwt>
<pdfrwt beam="1">  1       -2 0.29677827E+00 0.33019685E+04</pdfrwt>
<totfact> 0.39504896E-01</totfact>
</mgrwt>
</event>
<event>
 4    1  0.1295381E-008  0.2655799E+04  0.7816531E-02  0.8349491E-01
          1   -1    0    0  501    0  0.00000000000E+00  0.00000000000E+00  0.10060966741E+04  0.10060966741E+04  0.00000000000E+00 0. -1.
         -1   -1    0    0    0  501 -0.00000000000E+00 -0.00000000000E+00 -0.17526318907E+04  0.17526318907E+04  0.00000000000E+00 0.  1.
    2000013    1    1    2    0    0 -0.15884033748E+03  0.62076566348E+03 -0.10702700272E+04  0.15679790155E+04  0.95000000000E+03 0.  0.
   -2000013    1    1    2    0    0  0.15884033748E+03 -0.62076566348E+03  0.32373481059E+03  0.11907495494E+04  0.95000000000E+03 0.  0.
<mgrwt>
<rscale>  0 0.26557990E+04</rscale>
<asrwt>0</asrwt>
<pdfrwt beam="1">  1        1 0.15478410E+00 0.26557990E+04</pdfrwt>
<pdfrwt beam="2">  1       -1 0.26963568E+00 0.26557990E+04</pdfrwt>
<totfact> 0.68142579E-01</totfact>
</mgrwt>
</event>
<event>
 4    1  0.1295381E-008  0.2543533E+04  0.7816531E-02  0.8387639E-01
         -2   -1    0    0    0  501 -0.00000000000E+00  0.00000000000E+00  0.97105013974E+03  0.97105013974E+03  0.00000000000E+00 0. -1.
          2   -1    0    0  501    0  0.00000000000E+00 -0.00000000000E+00 -0.16656096505E+04  0.16656096505E+04  0.00000000000E+00 0.  1.
    2000013    1    1    2    0    0  0.18998898692E+03 -0.71629734462E+03  0.74702961473E+02  0.12071695132E+04  0.95000000000E+03 0.  0.
   -2000013    1    1    2    0    0 -0.18998898692E+03  0.71629734462E+03 -0.76926247224E+03  0.14294902771E+04  0.95000000000E+03 0.  0.
<mgrwt>
<rscale>  0 0.25435334E+04</rscale>
<asrwt>0</asrwt>
<pdfrwt beam="2">  1        2 0.25624763E+00 0.25435334E+04</pdfrwt>
<pdfrwt beam="1">  1       -2 0.14939233E+00 0.25435334E+04</pdfrwt>
<totfact> 0.27590334E+00</totfact>
</mgrwt>
</event>
<event>
 4    1  0.1295381E-008  0.2335998E+04  0.7816531E-02  0.8463861E-01
         -2   -1    0    0    0  501 -0.00000000000E+00  0.00000000000E+00  0.25998535933E+04  0.25998535933E+04  0.00000000000E+00 0. -1.
          2   -1    0    0  501    0  0.00000000000E+00 -0.00000000000E+00 -0.52473017157E+03  0.52473017157E+03  0.00000000000E+00 0.  1.
    2000013    1    1    2    0    0 -0.10912949654E+03  0.65066452561E+03  0.82003302215E+03  0.14178249995E+04  0.95000000000E+03 0.  0.
   -2000013    1    1    2    0    0  0.10912949654E+03 -0.65066452561E+03  0.12550903995E+04  0.17067587653E+04  0.95000000000E+03 0.  0.
<mgrwt>
<rscale>  0 0.23359980E+04</rscale>
<asrwt>0</asrwt>
<pdfrwt beam="2">  1        2 0.80727720E-01 0.23359980E+04</pdfrwt>
<pdfrwt beam="1">  1       -2 0.39997747E+00 0.23359980E+04</pdfrwt>
<totfact> 0.39097719E-01</totfact>
</mgrwt>
</event>
<event>
 4    1  0.1295381E-008  0.1991183E+04  0.7816531E-02  0.8610754E-01
          2   -1    0    0  501    0  0.00000000000E+00  0.00000000000E+00  0.14793884679E+04  0.14793884679E+04  0.00000000000E+00 0.  1.
         -2   -1    0    0    0  501 -0.00000000000E+00 -0.00000000000E+00 -0.67000848629E+03  0.67000848629E+03  0.00000000000E+00 0. -1.
    2000013    1    1    2    0    0  0.10459016464E+02  0.27208058186E+03  0.27441247545E+03  0.10256409902E+04  0.95000000000E+03 0.  0.
   -2000013    1    1    2    0    0 -0.10459016464E+02 -0.27208058186E+03  0.53496750618E+03  0.11237559640E+04  0.95000000000E+03 0.  0.
<mgrwt>
<rscale>  0 0.19911834E+04</rscale>
<asrwt>0</asrwt>
<pdfrwt beam="1">  1        2 0.22759822E+00 0.19911834E+04</pdfrwt>
<pdfrwt beam="2">  1       -2 0.10307823E+00 0.19911834E+04</pdfrwt>
<totfact> 0.93162606E+00</totfact>
</mgrwt>
</event>
<event>
 4    1  0.1295381E-008  0.3192267E+04  0.7816531E-02  0.8190863E-01
          2   -1    0    0  501    0  0.00000000000E+00  0.00000000000E+00  0.19640194572E+04  0.19640194572E+04  0.00000000000E+00 0.  1.
         -2   -1    0    0    0  501 -0.00000000000E+00 -0.00000000000E+00 -0.12971569555E+04  0.12971569555E+04  0.00000000000E+00 0. -1.
    2000013    1    1    2    0    0  0.11836374925E+04 -0.47328044198E+03  0.47844403733E+03  0.16602411835E+04  0.95000000000E+03 0.  0.
   -2000013    1    1    2    0    0 -0.11836374925E+04  0.47328044198E+03  0.18841846430E+03  0.16009352292E+04  0.95000000000E+03 0.  0.
<mgrwt>
<rscale>  0 0.31922666E+04</rscale>
<asrwt>0</asrwt>
<pdfrwt beam="1">  1        2 0.30215684E+00 0.31922666E+04</pdfrwt>
<pdfrwt beam="2">  1       -2 0.19956261E+00 0.31922666E+04</pdfrwt>
<totfact> 0.78932321E-01</totfact>
</mgrwt>
</event>
<event>
 4    1  0.1295381E-008  0.2272357E+04  0.7816531E-02  0.8488901E-01
          2   -1    0    0  501    0  0.00000000000E+00  0.00000000000E+00  0.92981270675E+03  0.92981270675E+03  0.00000000000E+00 0.  1.
         -2   -1    0    0    0  501 -0.00000000000E+00 -0.00000000000E+00 -0.13883456295E+04  0.13883456295E+04  0.00000000000E+00 0. -1.
    2000013    1    1    2    0    0 -0.49555019057E+03 -0.29425186109E+03 -0.47121179111E+03  0.12069360800E+04  0.95000000000E+03 0.  0.
   -2000013    1    1    2    0    0  0.49555019057E+03  0.29425186109E+03  0.12678868341E+02  0.11112222563E+04  0.95000000000E+03 0.  0.
<mgrwt>
<rscale>  0 0.22723568E+04</rscale>
<asrwt>0</asrwt>
<pdfrwt beam="1">  1        2 0.14304811E+00 0.22723568E+04</pdfrwt>
<pdfrwt beam="2">  1       -2 0.21359164E+00 0.22723568E+04</pdfrwt>
<totfact> 0.27617309E+00</totfact>
</mgrwt>
</event>
<event>
 4    1  0.1295381E-008  0.2188892E+04  0.7816531E-02  0.8523066E-01
          2   -1    0    0  501    0  0.00000000000E+00  0.00000000000E+00  0.18043645675E+04  0.18043645675E+04  0.00000000000E+00 0.  1.
         -2   -1    0    0    0  501 -0.00000000000E+00 -0.00000000000E+00 -0.66384172018E+03  0.66384172018E+03  0.00000000000E+00 0. -1.
    2000013    1    1    2    0    0  0.48995027081E+03  0.10665684378E+03  0.80648199018E+03  0.13432572913E+04  0.95000000000E+03 0.  0.
   -2000013    1    1    2    0    0 -0.48995027081E+03 -0.10665684378E+03  0.33404085715E+03  0.11249489964E+04  0.95000000000E+03 0.  0.
<mgrwt>
<rscale>  0 0.21888924E+04</rscale>
<asrwt>0</asrwt>
<pdfrwt beam="1">  1        2 0.27759455E+00 0.21888924E+04</pdfrwt>
<pdfrwt beam="2">  1       -2 0.10212950E+00 0.21888924E+04</pdfrwt>
<totfact> 0.61669800E+00</totfact>
</mgrwt>
</event>
<event>
 4    1  0.1295381E-008  0.3491639E+04  0.7816531E-02  0.8115774E-01
          2   -1    0    0  501    0  0.00000000000E+00  0.00000000000E+00  0.34967434330E+04  0.34967434330E+04  0.00000000000E+00 0.  1.
         -2   -1    0    0    0  501 -0.00000000000E+00 -0.00000000000E+00 -0.87163546487E+03  0.87163546487E+03  0.00000000000E+00 0. -1.
    2000013    1    1    2    0    0  0.48506922964E+03  0.13291556636E+04  0.83872232737E+03  0.18994478350E+04  0.95000000000E+03 0.  0.
   -2000013    1    1    2    0    0 -0.48506922964E+03 -0.13291556636E+04  0.17863856407E+04  0.24689310628E+04  0.95000000000E+03 0.  0.
<mgrwt>
<rscale>  0 0.34916389E+04</rscale>
<asrwt>0</asrwt>
<pdfrwt beam="1">  1        2 0.53796052E+00 0.34916389E+04</pdfrwt>
<pdfrwt beam="2">  1       -2 0.13409777E+00 0.34916389E+04</pdfrwt>
<totfact> 0.26926971E-01</totfact>
</mgrwt>
</event>
<event>
 4    1  0.1295381E-008  0.2373544E+04  0.7816531E-02  0.8449475E-01
         -2   -1    0    0    0  501 -0.00000000000E+00  0.00000000000E+00  0.86142154841E+03  0.86142154841E+03  0.00000000000E+00 0. -1.
          2   -1    0    0  501    0  0.00000000000E+00 -0.00000000000E+00 -0.16350045417E+04  0.16350045417E+04  0.00000000000E+00 0.  1.
    2000013    1    1    2    0    0 -0.18043613428E+03  0.67464522144E+03 -0.52877974598E+03  0.12922118221E+04  0.95000000000E+03 0.  0.
   -2000013    1    1    2    0    0  0.18043613428E+03 -0.67464522144E+03 -0.24480324726E+03  0.12042142680E+04  0.95000000000E+03 0.  0.
<mgrwt>
<rscale>  0 0.23735443E+04</rscale>
<asrwt>0</asrwt>
<pdfrwt beam="2">  1        2 0.25153916E+00 0.23735443E+04</pdfrwt>
<pdfrwt beam="1">  1       -2 0.13252639E+00 0.23735443E+04</pdfrwt>
<totfact> 0.39738337E+00</totfact>
</mgrwt>
</event>
<event>
 4    1  0.1295381E-008  0.2065027E+04  0.7816531E-02  0.8576808E-01
          2   -1    0    0  501    0  0.00000000000E+00  0.00000000000E+00  0.17586415595E+04  0.17586415595E+04  0.00000000000E+00 0.  1.
         -2   -1    0    0    0  501 -0.00000000000E+00 -0.00000000000E+00 -0.60619728159E+03  0.60619728159E+03  0.00000000000E+00 0. -1.
    2000013    1    1    2    0    0  0.22179613894E+03  0.30069991387E+03  0.39892251936E+03  0.10960169442E+04  0.95000000000E+03 0.  0.
   -2000013    1    1    2    0    0 -0.22179613894E+03 -0.30069991387E+03  0.75352175851E+03  0.12688218969E+04  0.95000000000E+03 0.  0.
<mgrwt>
<rscale>  0 0.20650266E+04</rscale>
<asrwt>0</asrwt>
<pdfrwt beam="1">  1        2 0.27056024E+00 0.20650266E+04</pdfrwt>
<pdfrwt beam="2">  1       -2 0.93261121E-01 0.20650266E+04</pdfrwt>
<totfact> 0.81812105E+00</totfact>
</mgrwt>
</event>
<event>
 4    1  0.1295381E-008  0.2345511E+04  0.7816531E-02  0.8460190E-01
         -2   -1    0    0    0  501 -0.00000000000E+00  0.00000000000E+00  0.15145740724E+04  0.15145740724E+04  0.00000000000E+00 0. -1.
          2   -1    0    0  501    0  0.00000000000E+00 -0.00000000000E+00 -0.90808090919E+03  0.90808090919E+03  0.00000000000E+00 0.  1.
    2000013    1    1    2    0    0 -0.65354859180E+03 -0.21372669118E+03  0.29587458841E+03  0.12094819686E+04  0.95000000000E+03 0.  0.
   -2000013    1    1    2    0    0  0.65354859180E+03  0.21372669118E+03  0.31061857480E+03  0.12131730130E+04  0.95000000000E+03 0.  0.
<mgrwt>
<rscale>  0 0.23455113E+04</rscale>
<asrwt>0</asrwt>
<pdfrwt beam="2">  1        2 0.13970476E+00 0.23455113E+04</pdfrwt>
<pdfrwt beam="1">  1       -2 0.23301140E+00 0.23455113E+04</pdfrwt>
<totfact> 0.21407196E+00</totfact>
</mgrwt>
</event>
<event>
 4    1  0.1295381E-008  0.2976730E+04  0.7816531E-02  0.8250407E-01
         -2   -1    0    0    0  501 -0.00000000000E+00  0.00000000000E+00  0.11345504954E+04  0.11345504954E+04  0.00000000000E+00 0. -1.
          2   -1    0    0  501    0  0.00000000000E+00 -0.00000000000E+00 -0.19525177653E+04  0.19525177653E+04  0.00000000000E+00 0.  1.
    2000013    1    1    2    0    0  0.84586357729E+01  0.89932597738E+03 -0.11451341299E+04  0.17385887776E+04  0.95000000000E+03 0.  0.
   -2000013    1    1    2    0    0 -0.84586357729E+01 -0.89932597738E+03  0.32716685998E+03  0.13484794831E+04  0.95000000000E+03 0.  0.
<mgrwt>
<rscale>  0 0.29767297E+04</rscale>
<asrwt>0</asrwt>
<pdfrwt beam="2">  1        2 0.30038735E+00 0.29767297E+04</pdfrwt>
<pdfrwt beam="1">  1       -2 0.17454623E+00 0.29767297E+04</pdfrwt>
<totfact> 0.12053852E+00</totfact>
</mgrwt>
</event>
<event>
 4    1  0.1295381E-008  0.2454165E+04  0.7816531E-02  0.8419499E-01
         -2   -1    0    0    0  501 -0.00000000000E+00  0.00000000000E+00  0.60013110169E+03  0.60013110169E+03  0.00000000000E+00 0.  1.
          2   -1    0    0  501    0  0.00000000000E+00 -0.00000000000E+00 -0.25090051868E+04  0.25090051868E+04  0.00000000000E+00 0. -1.
    2000013    1    1    2    0    0 -0.40470233378E+03  0.64372252462E+03 -0.75384776833E+03  0.14314150780E+04  0.95000000000E+03 0.  0.
   -2000013    1    1    2    0    0  0.40470233378E+03 -0.64372252462E+03 -0.11550263168E+04  0.16777212105E+04  0.95000000000E+03 0.  0.
<mgrwt>
<rscale>  0 0.24541655E+04</rscale>
<asrwt>0</asrwt>
<pdfrwt beam="2">  1        2 0.38600079E+00 0.24541655E+04</pdfrwt>
<pdfrwt beam="1">  1       -2 0.92327863E-01 0.24541655E+04</pdfrwt>
<totfact> 0.30667383E+00</totfact>
</mgrwt>
</event>
<event>
 4    1  0.1295381E-008  0.2463222E+04  0.7816531E-02  0.8416206E-01
          2   -1    0    0  501    0  0.00000000000E+00  0.00000000000E+00  0.13408120133E+04  0.13408120133E+04  0.00000000000E+00 0.  1.
         -2   -1    0    0    0  501 -0.00000000000E+00 -0.00000000000E+00 -0.11313039660E+04  0.11313039660E+04  0.00000000000E+00 0. -1.
    2000013    1    1    2    0    0 -0.61845732049E+03 -0.44417230620E+03  0.29140253870E+03  0.12518761658E+04  0.95000000000E+03 0.  0.
   -2000013    1    1    2    0    0  0.61845732049E+03  0.44417230620E+03 -0.81894491341E+02  0.12202398136E+04  0.95000000000E+03 0.  0.
<mgrwt>
<rscale>  0 0.24632222E+04</rscale>
<asrwt>0</asrwt>
<pdfrwt beam="1">  1        2 0.20627877E+00 0.24632222E+04</pdfrwt>
<pdfrwt beam="2">  1       -2 0.17404676E+00 0.24632222E+04</pdfrwt>
<totfact> 0.27942409E+00</totfact>
</mgrwt>
</event>
<event>
 4    1  0.1295381E-008  0.3453056E+04  0.7816531E-02  0.8125006E-01
         -2   -1    0    0    0  501 -0.00000000000E+00  0.00000000000E+00  0.91788109766E+03  0.91788109766E+03  0.00000000000E+00 0. -1.
          2   -1    0    0  501    0  0.00000000000E+00 -0.00000000000E+00 -0.32475866183E+04  0.32475866183E+04  0.00000000000E+00 0.  1.
    2000013    1    1    2    0    0  0.12787214513E+04 -0.66544866549E+03 -0.11393229466E+04  0.20684552818E+04  0.95000000000E+03 0.  0.
   -2000013    1    1    2    0    0 -0.12787214513E+04  0.66544866549E+03 -0.11903825741E+04  0.20970124342E+04  0.95000000000E+03 0.  0.
<mgrwt>
<rscale>  0 0.34530557E+04</rscale>
<asrwt>0</asrwt>
<pdfrwt beam="2">  1        2 0.49962870E+00 0.34530557E+04</pdfrwt>
<pdfrwt beam="1">  1       -2 0.14121248E+00 0.34530557E+04</pdfrwt>
<totfact> 0.34918235E-01</totfact>
</mgrwt>
</event>
<event>
 4    1  0.1295381E-008  0.2364955E+04  0.7816531E-02  0.8452742E-01
          2   -1    0    0  501    0  0.00000000000E+00  0.00000000000E+00  0.76176508394E+03  0.76176508394E+03  0.00000000000E+00 0.  1.
         -2   -1    0    0    0  501 -0.00000000000E+00 -0.00000000000E+00 -0.18355433042E+04  0.18355433042E+04  0.00000000000E+00 0. -1.
    2000013    1    1    2    0    0  0.12057504297E+03  0.67406166205E+03 -0.71686567253E+03  0.13730600343E+04  0.95000000000E+03 0.  0.
   -2000013    1    1    2    0    0 -0.12057504297E+03 -0.67406166205E+03 -0.35691254771E+03  0.12242483539E+04  0.95000000000E+03 0.  0.
<mgrwt>
<rscale>  0 0.23649548E+04</rscale>
<asrwt>0</asrwt>
<pdfrwt beam="1">  1        2 0.11719463E+00 0.23649548E+04</pdfrwt>
<pdfrwt beam="2">  1       -2 0.28239127E+00 0.23649548E+04</pdfrwt>
<totfact> 0.13496160E+00</totfact>
</mgrwt>
</event>
<event>
 4    1  0.1295381E-008  0.2516463E+04  0.7816531E-02  0.8397144E-01
          2   -1    0    0  501    0  0.00000000000E+00  0.00000000000E+00  0.25221298646E+04  0.25221298646E+04  0.00000000000E+00 0.  1.
         -2   -1    0    0    0  501 -0.00000000000E+00 -0.00000000000E+00 -0.62770205687E+03  0.62770205687E+03  0.00000000000E+00 0. -1.
    2000013    1    1    2    0    0  0.63681621814E+03 -0.44143984188E+03  0.13017806150E+04  0.17881657639E+04  0.95000000000E+03 0.  0.
   -2000013    1    1    2    0    0 -0.63681621814E+03  0.44143984188E+03  0.59264719281E+03  0.13616661576E+04  0.95000000000E+03 0.  0.
<mgrwt>
<rscale>  0 0.25164627E+04</rscale>
<asrwt>0</asrwt>
<pdfrwt beam="1">  1        2 0.38801997E+00 0.25164627E+04</pdfrwt>
<pdfrwt beam="2">  1       -2 0.96569549E-01 0.25164627E+04</pdfrwt>
<totfact> 0.26992509E+00</totfact>
</mgrwt>
</event>
<event>
 4    1  0.1295381E-008  0.2206316E+04  0.7816531E-02  0.8515804E-01
         -2   -1    0    0    0  501 -0.00000000000E+00  0.00000000000E+00  0.12923133321E+04  0.12923133321E+04  0.00000000000E+00 0. -1.
          2   -1    0    0  501    0  0.00000000000E+00 -0.00000000000E+00 -0.94168898982E+03  0.94168898982E+03  0.00000000000E+00 0.  1.
    2000013    1    1    2    0    0  0.17633654197E+02  0.54929115281E+03  0.28818080024E+03  0.11347157750E+04  0.95000000000E+03 0.  0.
   -2000013    1    1    2    0    0 -0.17633654197E+02 -0.54929115281E+03  0.62443542006E+02  0.10992865469E+04  0.95000000000E+03 0.  0.
<mgrwt>
<rscale>  0 0.22063157E+04</rscale>
<asrwt>0</asrwt>
<pdfrwt beam="2">  1        2 0.14487523E+00 0.22063157E+04</pdfrwt>
<pdfrwt beam="1">  1       -2 0.19881743E+00 0.22063157E+04</pdfrwt>
<totfact> 0.34002095E+00</totfact>
</mgrwt>
</event>
<event>
 4    1  0.1295381E-008  0.2962219E+04  0.7816531E-02  0.8254603E-01
          1   -1    0    0  501    0  0.00000000000E+00  0.00000000000E+00  0.88918803972E+03  0.88918803972E+03  0.00000000000E+00 0.  1.
         -1   -1    0    0    0  501 -0.00000000000E+00 -0.00000000000E+00 -0.24670653513E+04  0.24670653513E+04  0.00000000000E+00 0. -1.
    2000013    1    1    2    0    0 -0.43301331809E+03 -0.98952789946E+03 -0.38912701406E+03  0.14901630215E+04  0.95000000000E+03 0.  0.
   -2000013    1    1    2    0    0  0.43301331809E+03  0.98952789946E+03 -0.11887502975E+04  0.18660903695E+04  0.95000000000E+03 0.  0.
<mgrwt>
<rscale>  0 0.29622188E+04</rscale>
<asrwt>0</asrwt>
<pdfrwt beam="1">  1        1 0.13679816E+00 0.29622188E+04</pdfrwt>
<pdfrwt beam="2">  1       -1 0.37954851E+00 0.29622188E+04</pdfrwt>
<totfact> 0.15618236E-01</totfact>
</mgrwt>
</event>
<event>
 4    1  0.1295381E-008  0.1994498E+04  0.7816531E-02  0.8609197E-01
          2   -1    0    0  501    0  0.00000000000E+00  0.00000000000E+00  0.16813619344E+04  0.16813619344E+04  0.00000000000E+00 0. -1.
         -2   -1    0    0    0  501 -0.00000000000E+00 -0.00000000000E+00 -0.59148839088E+03  0.59148839088E+03  0.00000000000E+00 0.  1.
    2000013    1    1    2    0    0 -0.28357672734E+03 -0.18199734468E+02  0.66585407956E+03  0.11944072362E+04  0.95000000000E+03 0.  0.
   -2000013    1    1    2    0    0  0.28357672734E+03  0.18199734468E+02  0.42401946400E+03  0.10784430891E+04  0.95000000000E+03 0.  0.
<mgrwt>
<rscale>  0 0.19944985E+04</rscale>
<asrwt>0</asrwt>
<pdfrwt beam="1">  1        2 0.25867107E+00 0.19944985E+04</pdfrwt>
<pdfrwt beam="2">  1       -2 0.90998215E-01 0.19944985E+04</pdfrwt>
<totfact> 0.96176725E+00</totfact>
</mgrwt>
</event>
<event>
 4    1  0.1295381E-008  0.2358616E+04  0.7816531E-02  0.8455161E-01
          1   -1    0    0  501    0  0.00000000000E+00  0.00000000000E+00  0.10121000017E+04  0.10121000017E+04  0.00000000000E+00 0.  1.
         -1   -1    0    0    0  501 -0.00000000000E+00 -0.00000000000E+00 -0.13741407125E+04  0.13741407125E+04  0.00000000000E+00 0. -1.
    2000013    1    1    2    0    0 -0.66473535038E+03  0.15528054363E+03 -0.33204252071E+03  0.12160334571E+04  0.95000000000E+03 0.  0.
   -2000013    1    1    2    0    0  0.66473535038E+03 -0.15528054363E+03 -0.29998190055E+02  0.11702072571E+04  0.95000000000E+03 0.  0.
<mgrwt>
<rscale>  0 0.23586164E+04</rscale>
<asrwt>0</asrwt>
<pdfrwt beam="1">  1        1 0.15570769E+00 0.23586164E+04</pdfrwt>
<pdfrwt beam="2">  1       -1 0.21140626E+00 0.23586164E+04</pdfrwt>
<totfact> 0.16744687E+00</totfact>
</mgrwt>
</event>
<event>
 4    1  0.1295381E-008  0.2554232E+04  0.7816531E-02  0.8383916E-01
          1   -1    0    0  501    0  0.00000000000E+00  0.00000000000E+00  0.14351702399E+04  0.14351702399E+04  0.00000000000E+00 0. -1.
         -1   -1    0    0    0  501 -0.00000000000E+00 -0.00000000000E+00 -0.11364678764E+04  0.11364678764E+04  0.00000000000E+00 0.  1.
    2000013    1    1    2    0    0  0.54188976812E+03  0.39401170378E+03 -0.38305787219E+03  0.12239783809E+04  0.95000000000E+03 0.  0.
   -2000013    1    1    2    0    0 -0.54188976812E+03 -0.39401170378E+03  0.68176023566E+03  0.13476597354E+04  0.95000000000E+03 0.  0.
<mgrwt>
<rscale>  0 0.25542317E+04</rscale>
<asrwt>0</asrwt>
<pdfrwt beam="1">  1        1 0.22079542E+00 0.25542317E+04</pdfrwt>
<pdfrwt beam="2">  1       -1 0.17484121E+00 0.25542317E+04</pdfrwt>
<totfact> 0.14557198E+00</totfact>
</mgrwt>
</event>
<event>
 4    1  0.1295381E-008  0.2346175E+04  0.7816531E-02  0.8459934E-01
         -1   -1    0    0    0  501 -0.00000000000E+00  0.00000000000E+00  0.63807776235E+03  0.63807776235E+03  0.00000000000E+00 0. -1.
          1   -1    0    0  501    0  0.00000000000E+00 -0.00000000000E+00 -0.21566870873E+04  0.21566870873E+04  0.00000000000E+00 0.  1.
    2000013    1    1    2    0    0  0.51882545458E+02 -0.37063304369E+03 -0.71317045756E+02  0.10235461751E+04  0.95000000000E+03 0.  0.
   -2000013    1    1    2    0    0 -0.51882545458E+02  0.37063304369E+03 -0.14472922792E+04  0.17712186746E+04  0.95000000000E+03 0.  0.
<mgrwt>
<rscale>  0 0.23461748E+04</rscale>
<asrwt>0</asrwt>
<pdfrwt beam="2">  1        1 0.33179801E+00 0.23461748E+04</pdfrwt>
<pdfrwt beam="1">  1       -1 0.98165810E-01 0.23461748E+04</pdfrwt>
<totfact> 0.20867755E+00</totfact>
</mgrwt>
</event>
<event>
 4    1  0.1295381E-008  0.2688587E+04  0.7816531E-02  0.8338718E-01
         -2   -1    0    0    0  501 -0.00000000000E+00  0.00000000000E+00  0.10483962363E+04  0.10483962363E+04  0.00000000000E+00 0. -1.
          2   -1    0    0  501    0  0.00000000000E+00 -0.00000000000E+00 -0.17237043502E+04  0.17237043502E+04  0.00000000000E+00 0.  1.
    2000013    1    1    2    0    0 -0.45857102202E+03 -0.79455170113E+03 -0.59650071313E+03  0.14491076181E+04  0.95000000000E+03 0.  0.
   -2000013    1    1    2    0    0  0.45857102202E+03  0.79455170113E+03 -0.78807400764E+02  0.13229929684E+04  0.95000000000E+03 0.  0.
<mgrwt>
<rscale>  0 0.26885871E+04</rscale>
<asrwt>0</asrwt>
<pdfrwt beam="2">  1        2 0.26518528E+00 0.26885871E+04</pdfrwt>
<pdfrwt beam="1">  1       -2 0.16129173E+00 0.26885871E+04</pdfrwt>
<totfact> 0.20589445E+00</totfact>
</mgrwt>
</event>
<event>
 4    1  0.1295381E-008  0.2780960E+04  0.7816531E-02  0.8309204E-01
          2   -1    0    0  501    0  0.00000000000E+00  0.00000000000E+00  0.32935297595E+04  0.32935297595E+04  0.00000000000E+00 0.  1.
         -2   -1    0    0    0  501 -0.00000000000E+00 -0.00000000000E+00 -0.58704006946E+03  0.58704006946E+03  0.00000000000E+00 0. -1.
    2000013    1    1    2    0    0 -0.85227937425E+03  0.51384660689E+03  0.16341186820E+04  0.21361793778E+04  0.95000000000E+03 0.  0.
   -2000013    1    1    2    0    0  0.85227937425E+03 -0.51384660689E+03  0.10723710080E+04  0.17443904511E+04  0.95000000000E+03 0.  0.
<mgrwt>
<rscale>  0 0.27809595E+04</rscale>
<asrwt>0</asrwt>
<pdfrwt beam="1">  1        2 0.50669688E+00 0.27809595E+04</pdfrwt>
<pdfrwt beam="2">  1       -2 0.90313859E-01 0.27809595E+04</pdfrwt>
<totfact> 0.10275361E+00</totfact>
</mgrwt>
</event>
<event>
 4    1  0.1295381E-008  0.3004618E+04  0.7816531E-02  0.8242413E-01
         -2   -1    0    0    0  501 -0.00000000000E+00  0.00000000000E+00  0.11178467301E+04  0.11178467301E+04  0.00000000000E+00 0. -1.
          2   -1    0    0  501    0  0.00000000000E+00 -0.00000000000E+00 -0.20190003798E+04  0.20190003798E+04  0.00000000000E+00 0.  1.
    2000013    1    1    2    0    0 -0.11552889465E+04  0.89199591002E+02 -0.56390756693E+03  0.16009812182E+04  0.95000000000E+03 0.  0.
   -2000013    1    1    2    0    0  0.11552889465E+04 -0.89199591002E+02 -0.33724608283E+03  0.15358658917E+04  0.95000000000E+03 0.  0.
<mgrwt>
<rscale>  0 0.30046184E+04</rscale>
<asrwt>0</asrwt>
<pdfrwt beam="2">  1        2 0.31061544E+00 0.30046184E+04</pdfrwt>
<pdfrwt beam="1">  1       -2 0.17197642E+00 0.30046184E+04</pdfrwt>
<totfact> 0.11514732E+00</totfact>
</mgrwt>
</event>
<event>
 4    1  0.1295381E-008  0.2214833E+04  0.7816531E-02  0.8512280E-01
         -2   -1    0    0    0  501 -0.00000000000E+00  0.00000000000E+00  0.72331118818E+03  0.72331118818E+03  0.00000000000E+00 0. -1.
          2   -1    0    0  501    0  0.00000000000E+00 -0.00000000000E+00 -0.16954954563E+04  0.16954954563E+04  0.00000000000E+00 0.  1.
    2000013    1    1    2    0    0 -0.17697229357E+03  0.52938895737E+03 -0.36497804700E+03  0.11607242720E+04  0.95000000000E+03 0.  0.
   -2000013    1    1    2    0    0  0.17697229357E+03 -0.52938895737E+03 -0.60720622109E+03  0.12580823724E+04  0.95000000000E+03 0.  0.
<mgrwt>
<rscale>  0 0.22148326E+04</rscale>
<asrwt>0</asrwt>
<pdfrwt beam="2">  1        2 0.26084545E+00 0.22148326E+04</pdfrwt>
<pdfrwt beam="1">  1       -2 0.11127865E+00 0.22148326E+04</pdfrwt>
<totfact> 0.57532487E+00</totfact>
</mgrwt>
</event>
<event>
 4    1  0.1295381E-008  0.2706243E+04  0.7816531E-02  0.8332982E-01
          1   -1    0    0  501    0  0.00000000000E+00  0.00000000000E+00  0.22241405257E+04  0.22241405257E+04  0.00000000000E+00 0.  1.
         -1   -1    0    0    0  501 -0.00000000000E+00 -0.00000000000E+00 -0.82321140394E+03  0.82321140394E+03  0.00000000000E+00 0. -1.
    2000013    1    1    2    0    0 -0.29918101343E+03 -0.83846680744E+03  0.11155798280E+04  0.17145128225E+04  0.95000000000E+03 0.  0.
   -2000013    1    1    2    0    0  0.29918101343E+03  0.83846680744E+03  0.28534929375E+03  0.13328391071E+04  0.95000000000E+03 0.  0.
<mgrwt>
<rscale>  0 0.27062430E+04</rscale>
<asrwt>0</asrwt>
<pdfrwt beam="1">  1        1 0.34217546E+00 0.27062430E+04</pdfrwt>
<pdfrwt beam="2">  1       -1 0.12664791E+00 0.27062430E+04</pdfrwt>
<totfact> 0.99108927E-01</totfact>
</mgrwt>
</event>
<event>
 4    1  0.1295381E-008  0.2470141E+04  0.7816531E-02  0.8413701E-01
          2   -1    0    0  501    0  0.00000000000E+00  0.00000000000E+00  0.28630799811E+04  0.28630799811E+04  0.00000000000E+00 0.  1.
         -2   -1    0    0    0  501 -0.00000000000E+00 -0.00000000000E+00 -0.53278279417E+03  0.53278279417E+03  0.00000000000E+00 0. -1.
    2000013    1    1    2    0    0 -0.74962505402E+03 -0.26183393035E+02  0.15026706607E+04  0.19295446111E+04  0.95000000000E+03 0.  0.
   -2000013    1    1    2    0    0  0.74962505402E+03  0.26183393035E+02  0.82762652625E+03  0.14663181642E+04  0.95000000000E+03 0.  0.
<mgrwt>
<rscale>  0 0.24701415E+04</rscale>
<asrwt>0</asrwt>
<pdfrwt beam="1">  1        2 0.44047383E+00 0.24701415E+04</pdfrwt>
<pdfrwt beam="2">  1       -2 0.81966586E-01 0.24701415E+04</pdfrwt>
<totfact> 0.24766263E+00</totfact>
</mgrwt>
</event>
<event>
 4    1  0.1295381E-008  0.2583211E+04  0.7816531E-02  0.8373926E-01
         -2   -1    0    0    0  501 -0.00000000000E+00  0.00000000000E+00  0.13238270297E+04  0.13238270297E+04  0.00000000000E+00 0. -1.
          2   -1    0    0  501    0  0.00000000000E+00 -0.00000000000E+00 -0.12601685849E+04  0.12601685849E+04  0.00000000000E+00 0.  1.
    2000013    1    1    2    0    0 -0.15543233357E+03 -0.49307631398E+03  0.73806181937E+03  0.13093963155E+04  0.95000000000E+03 0.  0.
   -2000013    1    1    2    0    0  0.15543233357E+03  0.49307631398E+03 -0.67440337454E+03  0.12745992991E+04  0.95000000000E+03 0.  0.
<mgrwt>
<rscale>  0 0.25832114E+04</rscale>
<asrwt>0</asrwt>
<pdfrwt beam="2">  1        2 0.19387209E+00 0.25832114E+04</pdfrwt>
<pdfrwt beam="1">  1       -2 0.20366570E+00 0.25832114E+04</pdfrwt>
<totfact> 0.19447580E+00</totfact>
</mgrwt>
</event>
<event>
 4    1  0.1295381E-008  0.2191348E+04  0.7816531E-02  0.8522038E-01
          1   -1    0    0  501    0  0.00000000000E+00  0.00000000000E+00  0.12044894249E+04  0.12044894249E+04  0.00000000000E+00 0.  1.
         -1   -1    0    0    0  501 -0.00000000000E+00 -0.00000000000E+00 -0.99668955641E+03  0.99668955641E+03  0.00000000000E+00 0. -1.
    2000013    1    1    2    0    0 -0.23072626066E+03  0.30659562733E+03  0.49392848794E+03  0.11374097051E+04  0.95000000000E+03 0.  0.
   -2000013    1    1    2    0    0  0.23072626066E+03 -0.30659562733E+03 -0.28612861948E+03  0.10637692762E+04  0.95000000000E+03 0.  0.
<mgrwt>
<rscale>  0 0.21913485E+04</rscale>
<asrwt>0</asrwt>
<pdfrwt beam="1">  1        1 0.18530606E+00 0.21913485E+04</pdfrwt>
<pdfrwt beam="2">  1       -1 0.15333686E+00 0.21913485E+04</pdfrwt>
<totfact> 0.31806377E+00</totfact>
</mgrwt>
</event>
<event>
 4    1  0.1295381E-008  0.2022781E+04  0.7816531E-02  0.8596043E-01
         -2   -1    0    0    0  501 -0.00000000000E+00  0.00000000000E+00  0.60783016101E+03  0.60783016101E+03  0.00000000000E+00 0. -1.
          2   -1    0    0  501    0  0.00000000000E+00 -0.00000000000E+00 -0.16828896939E+04  0.16828896939E+04  0.00000000000E+00 0.  1.
    2000013    1    1    2    0    0  0.26052346407E+03  0.58215282002E+02 -0.28646653489E+03  0.10275332452E+04  0.95000000000E+03 0.  0.
   -2000013    1    1    2    0    0 -0.26052346407E+03 -0.58215282002E+02 -0.78859299796E+03  0.12631866097E+04  0.95000000000E+03 0.  0.
<mgrwt>
<rscale>  0 0.20227814E+04</rscale>
<asrwt>0</asrwt>
<pdfrwt beam="2">  1        2 0.25890611E+00 0.20227814E+04</pdfrwt>
<pdfrwt beam="1">  1       -2 0.93512331E-01 0.20227814E+04</pdfrwt>
<totfact> 0.89895141E+00</totfact>
</mgrwt>
</event>
<event>
 4    1  0.1295381E-008  0.2343505E+04  0.7816531E-02  0.8460963E-01
         -2   -1    0    0    0  501 -0.00000000000E+00  0.00000000000E+00  0.51733690626E+03  0.51733690626E+03  0.00000000000E+00 0. -1.
          2   -1    0    0  501    0  0.00000000000E+00 -0.00000000000E+00 -0.26539838036E+04  0.26539838036E+04  0.00000000000E+00 0.  1.
    2000013    1    1    2    0    0  0.57240500568E+03  0.54996144838E+02 -0.15743544542E+04  0.19265938892E+04  0.95000000000E+03 0.  0.
   -2000013    1    1    2    0    0 -0.57240500568E+03 -0.54996144838E+02 -0.56229244317E+03  0.12447268207E+04  0.95000000000E+03 0.  0.
<mgrwt>
<rscale>  0 0.23435049E+04</rscale>
<asrwt>0</asrwt>
<pdfrwt beam="2">  1        2 0.40830519E+00 0.23435049E+04</pdfrwt>
<pdfrwt beam="1">  1       -2 0.79590295E-01 0.23435049E+04</pdfrwt>
<totfact> 0.35728580E+00</totfact>
</mgrwt>
</event>
<event>
 4    1  0.1295381E-008  0.3032255E+04  0.7816531E-02  0.8234580E-01
          1   -1    0    0  501    0  0.00000000000E+00  0.00000000000E+00  0.95896615846E+03  0.95896615846E+03  0.00000000000E+00 0.  1.
         -1   -1    0    0    0  501 -0.00000000000E+00 -0.00000000000E+00 -0.23970010857E+04  0.23970010857E+04  0.00000000000E+00 0. -1.
    2000013    1    1    2    0    0  0.10483830901E+04 -0.52857576728E+03 -0.57200841852E+03  0.16149901164E+04  0.95000000000E+03 0.  0.
   -2000013    1    1    2    0    0 -0.10483830901E+04  0.52857576728E+03 -0.86602650871E+03  0.17409771277E+04  0.95000000000E+03 0.  0.
<mgrwt>
<rscale>  0 0.30322552E+04</rscale>
<asrwt>0</asrwt>
<pdfrwt beam="1">  1        1 0.14753326E+00 0.30322552E+04</pdfrwt>
<pdfrwt beam="2">  1       -1 0.36876939E+00 0.30322552E+04</pdfrwt>
<totfact> 0.16107083E-01</totfact>
</mgrwt>
</event>
<event>
 4    1  0.1295381E-008  0.2300918E+04  0.7816531E-02  0.8477559E-01
          2   -1    0    0  501    0  0.00000000000E+00  0.00000000000E+00  0.14021508293E+04  0.14021508293E+04  0.00000000000E+00 0.  1.
         -2   -1    0    0    0  501 -0.00000000000E+00 -0.00000000000E+00 -0.94394661961E+03  0.94394661961E+03  0.00000000000E+00 0. -1.
    2000013    1    1    2    0    0 -0.31857663503E+03 -0.55506593343E+03  0.11991883413E+03  0.11517247022E+04  0.95000000000E+03 0.  0.
   -2000013    1    1    2    0    0  0.31857663503E+03  0.55506593343E+03  0.33828537560E+03  0.11943727468E+04  0.95000000000E+03 0.  0.
<mgrwt>
<rscale>  0 0.23009177E+04</rscale>
<asrwt>0</asrwt>
<pdfrwt beam="1">  1        2 0.21571551E+00 0.23009177E+04</pdfrwt>
<pdfrwt beam="2">  1       -2 0.14522256E+00 0.23009177E+04</pdfrwt>
<totfact> 0.42698539E+00</totfact>
</mgrwt>
</event>
<event>
 4    1  0.1295381E-008  0.2246232E+04  0.7816531E-02  0.8499428E-01
          2   -1    0    0  501    0  0.00000000000E+00  0.00000000000E+00  0.10548549957E+04  0.10548549957E+04  0.00000000000E+00 0.  1.
         -2   -1    0    0    0  501 -0.00000000000E+00 -0.00000000000E+00 -0.11957943998E+04  0.11957943998E+04  0.00000000000E+00 0. -1.
    2000013    1    1    2    0    0  0.40051050000E+03 -0.18943650352E+02 -0.51645418986E+03  0.11532529873E+04  0.95000000000E+03 0.  0.
   -2000013    1    1    2    0    0 -0.40051050000E+03  0.18943650352E+02  0.37551478579E+03  0.10973964083E+04  0.95000000000E+03 0.  0.
<mgrwt>
<rscale>  0 0.22462321E+04</rscale>
<asrwt>0</asrwt>
<pdfrwt beam="1">  1        2 0.16228538E+00 0.22462321E+04</pdfrwt>
<pdfrwt beam="2">  1       -2 0.18396837E+00 0.22462321E+04</pdfrwt>
<totfact> 0.36038333E+00</totfact>
</mgrwt>
</event>
<event>
 4    1  0.1295381E-008  0.2377043E+04  0.7816531E-02  0.8448149E-01
          1   -1    0    0  501    0  0.00000000000E+00  0.00000000000E+00  0.12374394755E+04  0.12374394755E+04  0.00000000000E+00 0. -1.
         -1   -1    0    0    0  501 -0.00000000000E+00 -0.00000000000E+00 -0.11415375417E+04  0.11415375417E+04  0.00000000000E+00 0.  1.
    2000013    1    1    2    0    0  0.82064971680E+02  0.70513856834E+03 -0.30397819127E+02  0.11863300922E+04  0.95000000000E+03 0.  0.
   -2000013    1    1    2    0    0 -0.82064971680E+02 -0.70513856834E+03  0.12629975295E+03  0.11926469250E+04  0.95000000000E+03 0.  0.
<mgrwt>
<rscale>  0 0.23770432E+04</rscale>
<asrwt>0</asrwt>
<pdfrwt beam="1">  1        1 0.19037531E+00 0.23770432E+04</pdfrwt>
<pdfrwt beam="2">  1       -1 0.17562116E+00 0.23770432E+04</pdfrwt>
<totfact> 0.20170519E+00</totfact>
</mgrwt>
</event>
<event>
 4    1  0.1295381E-008  0.2883090E+04  0.7816531E-02  0.8277926E-01
         -2   -1    0    0    0  501 -0.00000000000E+00  0.00000000000E+00  0.10148412842E+04  0.10148412842E+04  0.00000000000E+00 0. -1.
          2   -1    0    0  501    0  0.00000000000E+00 -0.00000000000E+00 -0.20476625607E+04  0.20476625607E+04  0.00000000000E+00 0.  1.
    2000013    1    1    2    0    0 -0.42295367617E+02  0.86530249038E+03  0.17609070876E+03  0.12977076850E+04  0.95000000000E+03 0.  0.
   -2000013    1    1    2    0    0  0.42295367617E+02 -0.86530249038E+03 -0.12089119852E+04  0.17647961599E+04  0.95000000000E+03 0.  0.
<mgrwt>
<rscale>  0 0.28830904E+04</rscale>
<asrwt>0</asrwt>
<pdfrwt beam="2">  1        2 0.31502500E+00 0.28830904E+04</pdfrwt>
<pdfrwt beam="1">  1       -2 0.15612943E+00 0.28830904E+04</pdfrwt>
<totfact> 0.14623300E+00</totfact>
</mgrwt>
</event>
<event>
 4    1  0.1295381E-008  0.2436401E+04  0.7816531E-02  0.8426000E-01
          1   -1    0    0  501    0  0.00000000000E+00  0.00000000000E+00  0.12472686951E+04  0.12472686951E+04  0.00000000000E+00 0.  1.
         -1   -1    0    0    0  501 -0.00000000000E+00 -0.00000000000E+00 -0.11898096522E+04  0.11898096522E+04  0.00000000000E+00 0. -1.
    2000013    1    1    2    0    0 -0.73518494478E+03 -0.71136357438E+02 -0.16094136620E+03  0.12140672995E+04  0.95000000000E+03 0.  0.
   -2000013    1    1    2    0    0  0.73518494478E+03  0.71136357438E+02  0.21840040911E+03  0.12230110478E+04  0.95000000000E+03 0.  0.
<mgrwt>
<rscale>  0 0.24364009E+04</rscale>
<asrwt>0</asrwt>
<pdfrwt beam="1">  1        1 0.19188749E+00 0.24364009E+04</pdfrwt>
<pdfrwt beam="2">  1       -1 0.18304764E+00 0.24364009E+04</pdfrwt>
<totfact> 0.17453145E+00</totfact>
</mgrwt>
</event>
<event>
 4    1  0.1295381E-008  0.2953239E+04  0.7816531E-02  0.8257211E-01
         -1   -1    0    0    0  501 -0.00000000000E+00  0.00000000000E+00  0.11284510311E+04  0.11284510311E+04  0.00000000000E+00 0. -1.
          1   -1    0    0  501    0  0.00000000000E+00 -0.00000000000E+00 -0.19322103162E+04  0.19322103162E+04  0.00000000000E+00 0.  1.
    2000013    1    1    2    0    0  0.75311175902E+03 -0.77550448335E+03 -0.59216864493E+02  0.14403441125E+04  0.95000000000E+03 0.  0.
   -2000013    1    1    2    0    0 -0.75311175902E+03  0.77550448335E+03 -0.74454242060E+03  0.16203172348E+04  0.95000000000E+03 0.  0.
<mgrwt>
<rscale>  0 0.29532387E+04</rscale>
<asrwt>0</asrwt>
<pdfrwt beam="2">  1        1 0.29726312E+00 0.29532387E+04</pdfrwt>
<pdfrwt beam="1">  1       -1 0.17360785E+00 0.29532387E+04</pdfrwt>
<totfact> 0.65545752E-01</totfact>
</mgrwt>
</event>
<event>
 4    1  0.1295381E-008  0.2923663E+04  0.7816531E-02  0.8265872E-01
         -2   -1    0    0    0  501 -0.00000000000E+00  0.00000000000E+00  0.12599739207E+04  0.12599739207E+04  0.00000000000E+00 0. -1.
          2   -1    0    0  501    0  0.00000000000E+00 -0.00000000000E+00 -0.16960281593E+04  0.16960281593E+04  0.00000000000E+00 0.  1.
    2000013    1    1    2    0    0  0.57737985159E+03 -0.89696868919E+03  0.96103789552E+02  0.14316620624E+04  0.95000000000E+03 0.  0.
   -2000013    1    1    2    0    0 -0.57737985159E+03  0.89696868919E+03 -0.53215802810E+03  0.15243400176E+04  0.95000000000E+03 0.  0.
<mgrwt>
<rscale>  0 0.29236629E+04</rscale>
<asrwt>0</asrwt>
<pdfrwt beam="2">  1        2 0.26092741E+00 0.29236629E+04</pdfrwt>
<pdfrwt beam="1">  1       -2 0.19384214E+00 0.29236629E+04</pdfrwt>
<totfact> 0.12405600E+00</totfact>
</mgrwt>
</event>
<event>
 4    1  0.1295381E-008  0.2076401E+04  0.7816531E-02  0.8571711E-01
          2   -1    0    0  501    0  0.00000000000E+00  0.00000000000E+00  0.16958575110E+04  0.16958575110E+04  0.00000000000E+00 0.  1.
         -2   -1    0    0    0  501 -0.00000000000E+00 -0.00000000000E+00 -0.63558427600E+03  0.63558427600E+03  0.00000000000E+00 0. -1.
    2000013    1    1    2    0    0 -0.49396531081E+02  0.14935425544E+03  0.94378479925E+02  0.96755051980E+03  0.95000000000E+03 0.  0.
   -2000013    1    1    2    0    0  0.49396531081E+02 -0.14935425544E+03  0.96589475511E+03  0.13638912672E+04  0.95000000000E+03 0.  0.
<mgrwt>
<rscale>  0 0.20764011E+04</rscale>
<asrwt>0</asrwt>
<pdfrwt beam="1">  1        2 0.26090115E+00 0.20764011E+04</pdfrwt>
<pdfrwt beam="2">  1       -2 0.97782197E-01 0.20764011E+04</pdfrwt>
<totfact> 0.79286780E+00</totfact>
</mgrwt>
</event>
<event>
 4    1  0.1295381E-008  0.2876399E+04  0.7816531E-02  0.8279934E-01
         -2   -1    0    0    0  501 -0.00000000000E+00  0.00000000000E+00  0.82459972518E+03  0.82459972518E+03  0.00000000000E+00 0. -1.
          2   -1    0    0  501    0  0.00000000000E+00 -0.00000000000E+00 -0.25083905992E+04  0.25083905992E+04  0.00000000000E+00 0.  1.
    2000013    1    1    2    0    0  0.12269446794E+03 -0.10649299202E+04 -0.69175722713E+03  0.15906469529E+04  0.95000000000E+03 0.  0.
   -2000013    1    1    2    0    0 -0.12269446794E+03  0.10649299202E+04 -0.99203364686E+03  0.17423433714E+04  0.95000000000E+03 0.  0.
<mgrwt>
<rscale>  0 0.28763993E+04</rscale>
<asrwt>0</asrwt>
<pdfrwt beam="2">  1        2 0.38590625E+00 0.28763993E+04</pdfrwt>
<pdfrwt beam="1">  1       -2 0.12686150E+00 0.28763993E+04</pdfrwt>
<totfact> 0.13748264E+00</totfact>
</mgrwt>
</event>
<event>
 4    1  0.1295381E-008  0.2554327E+04  0.7816531E-02  0.8383883E-01
          2   -1    0    0  501    0  0.00000000000E+00  0.00000000000E+00  0.20424118993E+04  0.20424118993E+04  0.00000000000E+00 0.  1.
         -2   -1    0    0    0  501 -0.00000000000E+00 -0.00000000000E+00 -0.79863767075E+03  0.79863767075E+03  0.00000000000E+00 0. -1.
    2000013    1    1    2    0    0  0.23916630120E+03  0.70948785853E+03  0.16590067339E+03  0.12208999035E+04  0.95000000000E+03 0.  0.
   -2000013    1    1    2    0    0 -0.23916630120E+03 -0.70948785853E+03  0.10778735552E+04  0.16201496665E+04  0.95000000000E+03 0.  0.
<mgrwt>
<rscale>  0 0.25543274E+04</rscale>
<asrwt>0</asrwt>
<pdfrwt beam="1">  1        2 0.31421721E+00 0.25543274E+04</pdfrwt>
<pdfrwt beam="2">  1       -2 0.12286733E+00 0.25543274E+04</pdfrwt>
<totfact> 0.28125274E+00</totfact>
</mgrwt>
</event>
<event>
 4    1  0.1295381E-008  0.2589060E+04  0.7816531E-02  0.8371927E-01
          2   -1    0    0  501    0  0.00000000000E+00  0.00000000000E+00  0.21550037791E+04  0.21550037791E+04  0.00000000000E+00 0.  1.
         -2   -1    0    0    0  501 -0.00000000000E+00 -0.00000000000E+00 -0.77763545716E+03  0.77763545716E+03  0.00000000000E+00 0. -1.
    2000013    1    1    2    0    0  0.41313650580E+03  0.21419122671E+03  0.15338575483E+04  0.18632709498E+04  0.95000000000E+03 0.  0.
   -2000013    1    1    2    0    0 -0.41313650580E+03 -0.21419122671E+03 -0.15648922637E+03  0.10693682864E+04  0.95000000000E+03 0.  0.
<mgrwt>
<rscale>  0 0.25890596E+04</rscale>
<asrwt>0</asrwt>
<pdfrwt beam="1">  1        2 0.33153904E+00 0.25890596E+04</pdfrwt>
<pdfrwt beam="2">  1       -2 0.11963623E+00 0.25890596E+04</pdfrwt>
<totfact> 0.25925457E+00</totfact>
</mgrwt>
</event>
<event>
 4    1  0.1295381E-008  0.2531609E+04  0.7816531E-02  0.8391810E-01
          2   -1    0    0  501    0  0.00000000000E+00  0.00000000000E+00  0.34153845762E+04  0.34153845762E+04  0.00000000000E+00 0. -1.
         -2   -1    0    0    0  501 -0.00000000000E+00 -0.00000000000E+00 -0.46913061057E+03  0.46913061057E+03  0.00000000000E+00 0.  1.
    2000013    1    1    2    0    0 -0.35990203603E+03  0.74772929072E+03  0.13112280543E+04  0.18194635413E+04  0.95000000000E+03 0.  0.
   -2000013    1    1    2    0    0  0.35990203603E+03 -0.74772929072E+03  0.16350259114E+04  0.20650516455E+04  0.95000000000E+03 0.  0.
<mgrwt>
<rscale>  0 0.25316093E+04</rscale>
<asrwt>0</asrwt>
<pdfrwt beam="1">  1        2 0.52544376E+00 0.25316093E+04</pdfrwt>
<pdfrwt beam="2">  1       -2 0.72173943E-01 0.25316093E+04</pdfrwt>
<totfact> 0.14401846E+00</totfact>
</mgrwt>
</event>
<event>
 4    1  0.1295381E-008  0.2124363E+04  0.7816531E-02  0.8550587E-01
         -2   -1    0    0    0  501 -0.00000000000E+00  0.00000000000E+00  0.35233274046E+03  0.35233274046E+03  0.00000000000E+00 0. -1.
          2   -1    0    0  501    0  0.00000000000E+00 -0.00000000000E+00 -0.32021703648E+04  0.32021703648E+04  0.00000000000E+00 0.  1.
    2000013    1    1    2    0    0 -0.83800530858E+02 -0.21131116177E+03 -0.21229789559E+04  0.23369241715E+04  0.95000000000E+03 0.  0.
   -2000013    1    1    2    0    0  0.83800530858E+02  0.21131116177E+03 -0.72685866842E+03  0.12175789338E+04  0.95000000000E+03 0.  0.
<mgrwt>
<rscale>  0 0.21243629E+04</rscale>
<asrwt>0</asrwt>
<pdfrwt beam="2">  1        2 0.49264160E+00 0.21243629E+04</pdfrwt>
<pdfrwt beam="1">  1       -2 0.54205037E-01 0.21243629E+04</pdfrwt>
<totfact> 0.38191580E+00</totfact>
</mgrwt>
</event>
<event>
 4    1  0.1295381E-008  0.2454123E+04  0.7816531E-02  0.8419514E-01
          2   -1    0    0  501    0  0.00000000000E+00  0.00000000000E+00  0.23950269582E+04  0.23950269582E+04  0.00000000000E+00 0.  1.
         -2   -1    0    0    0  501 -0.00000000000E+00 -0.00000000000E+00 -0.62866940490E+03  0.62866940490E+03  0.00000000000E+00 0. -1.
    2000013    1    1    2    0    0  0.11856555408E+03  0.69918613842E+02 -0.58570172337E+02  0.96170518781E+03  0.95000000000E+03 0.  0.
   -2000013    1    1    2    0    0 -0.11856555408E+03 -0.69918613842E+02  0.18249277256E+04  0.20619911753E+04  0.95000000000E+03 0.  0.
<mgrwt>
<rscale>  0 0.24541232E+04</rscale>
<asrwt>0</asrwt>
<pdfrwt beam="1">  1        2 0.36846568E+00 0.24541232E+04</pdfrwt>
<pdfrwt beam="2">  1       -2 0.96718371E-01 0.24541232E+04</pdfrwt>
<totfact> 0.32010014E+00</totfact>
</mgrwt>
</event>
<event>
 4    1  0.1295381E-008  0.1975089E+04  0.7816531E-02  0.8618357E-01
         -2   -1    0    0    0  501 -0.00000000000E+00  0.00000000000E+00  0.29617960723E+03  0.29617960723E+03  0.00000000000E+00 0. -1.
          2   -1    0    0  501    0  0.00000000000E+00 -0.00000000000E+00 -0.32927444698E+04  0.32927444698E+04  0.00000000000E+00 0.  1.
    2000013    1    1    2    0    0 -0.62214341976E+02  0.26233590673E+03 -0.14850523459E+04  0.17834156057E+04  0.95000000000E+03 0.  0.
   -2000013    1    1    2    0    0  0.62214341976E+02 -0.26233590673E+03 -0.15115125167E+04  0.18055084714E+04  0.95000000000E+03 0.  0.
<mgrwt>
<rscale>  0 0.19750886E+04</rscale>
<asrwt>0</asrwt>
<pdfrwt beam="2">  1        2 0.50657607E+00 0.19750886E+04</pdfrwt>
<pdfrwt beam="1">  1       -2 0.45566094E-01 0.19750886E+04</pdfrwt>
<totfact> 0.48097983E+00</totfact>
</mgrwt>
</event>
<event>
 4    1  0.1295381E-008  0.2940999E+04  0.7816531E-02  0.8260783E-01
         -2   -1    0    0    0  501 -0.00000000000E+00  0.00000000000E+00  0.47643991140E+03  0.47643991140E+03  0.00000000000E+00 0. -1.
          2   -1    0    0  501    0  0.00000000000E+00 -0.00000000000E+00 -0.45385968585E+04  0.45385968585E+04  0.00000000000E+00 0.  1.
    2000013    1    1    2    0    0  0.42519769748E+03 -0.97720101732E+03 -0.14302379461E+04  0.20208402937E+04  0.95000000000E+03 0.  0.
   -2000013    1    1    2    0    0 -0.42519769748E+03  0.97720101732E+03 -0.26319190010E+04  0.29941964762E+04  0.95000000000E+03 0.  0.
<mgrwt>
<rscale>  0 0.29409989E+04</rscale>
<asrwt>0</asrwt>
<pdfrwt beam="2">  1        2 0.69824565E+00 0.29409989E+04</pdfrwt>
<pdfrwt beam="1">  1       -2 0.73298450E-01 0.29409989E+04</pdfrwt>
<totfact> 0.16288957E-01</totfact>
</mgrwt>
</event>
<event>
 4    1  0.1295381E-008  0.2039339E+04  0.7816531E-02  0.8588446E-01
         -2   -1    0    0    0  501 -0.00000000000E+00  0.00000000000E+00  0.41257512361E+03  0.41257512361E+03  0.00000000000E+00 0. -1.
          2   -1    0    0  501    0  0.00000000000E+00 -0.00000000000E+00 -0.25200883015E+04  0.25200883015E+04  0.00000000000E+00 0.  1.
    2000013    1    1    2    0    0 -0.12933200441E+03  0.34674011680E+03 -0.10773977592E+04  0.14833210737E+04  0.95000000000E+03 0.  0.
   -2000013    1    1    2    0    0  0.12933200441E+03 -0.34674011680E+03 -0.10301154187E+04  0.14493423515E+04  0.95000000000E+03 0.  0.
<mgrwt>
<rscale>  0 0.20393389E+04</rscale>
<asrwt>0</asrwt>
<pdfrwt beam="2">  1        2 0.38770589E+00 0.20393389E+04</pdfrwt>
<pdfrwt beam="1">  1       -2 0.63473096E-01 0.20393389E+04</pdfrwt>
<totfact> 0.72140079E+00</totfact>
</mgrwt>
</event>
<event>
 4    1  0.1295381E-008  0.2701297E+04  0.7816531E-02  0.8334584E-01
          2   -1    0    0  501    0  0.00000000000E+00  0.00000000000E+00  0.12091503398E+04  0.12091503398E+04  0.00000000000E+00 0.  1.
         -2   -1    0    0    0  501 -0.00000000000E+00 -0.00000000000E+00 -0.15087049016E+04  0.15087049016E+04  0.00000000000E+00 0. -1.
    2000013    1    1    2    0    0 -0.14893183213E+03  0.91178486583E+03 -0.41256543398E+03  0.13878914113E+04  0.95000000000E+03 0.  0.
   -2000013    1    1    2    0    0  0.14893183213E+03 -0.91178486583E+03  0.11301087223E+03  0.13299638301E+04  0.95000000000E+03 0.  0.
<mgrwt>
<rscale>  0 0.27012968E+04</rscale>
<asrwt>0</asrwt>
<pdfrwt beam="1">  1        2 0.18602313E+00 0.27012968E+04</pdfrwt>
<pdfrwt beam="2">  1       -2 0.23210845E+00 0.27012968E+04</pdfrwt>
<totfact> 0.13607888E+00</totfact>
</mgrwt>
</event>
<event>
 4    1  0.1295381E-008  0.2610038E+04  0.7816531E-02  0.8364800E-01
          2   -1    0    0  501    0  0.00000000000E+00  0.00000000000E+00  0.21402189306E+04  0.21402189306E+04  0.00000000000E+00 0.  1.
         -2   -1    0    0    0  501 -0.00000000000E+00 -0.00000000000E+00 -0.79574771077E+03  0.79574771077E+03  0.00000000000E+00 0. -1.
    2000013    1    1    2    0    0  0.83064291809E+03 -0.31926449863E+03  0.56745400547E+03  0.14200005372E+04  0.95000000000E+03 0.  0.
   -2000013    1    1    2    0    0 -0.83064291809E+03  0.31926449863E+03  0.77701721436E+03  0.15159661041E+04  0.95000000000E+03 0.  0.
<mgrwt>
<rscale>  0 0.26100378E+04</rscale>
<asrwt>0</asrwt>
<pdfrwt beam="1">  1        2 0.32926445E+00 0.26100378E+04</pdfrwt>
<pdfrwt beam="2">  1       -2 0.12242273E+00 0.26100378E+04</pdfrwt>
<totfact> 0.24908251E+00</totfact>
</mgrwt>
</event>
<event>
 4    1  0.1295381E-008  0.2206603E+04  0.7816531E-02  0.8515685E-01
         -1   -1    0    0    0  501 -0.00000000000E+00  0.00000000000E+00  0.94108741449E+03  0.94108741449E+03  0.00000000000E+00 0.  1.
          1   -1    0    0  501    0  0.00000000000E+00 -0.00000000000E+00 -0.12934764083E+04  0.12934764083E+04  0.00000000000E+00 0. -1.
    2000013    1    1    2    0    0  0.14800999446E+03 -0.38839078438E+03 -0.55782519062E+03  0.11774647779E+04  0.95000000000E+03 0.  0.
   -2000013    1    1    2    0    0 -0.14800999446E+03  0.38839078438E+03  0.20543619679E+03  0.10570990449E+04  0.95000000000E+03 0.  0.
<mgrwt>
<rscale>  0 0.22066032E+04</rscale>
<asrwt>0</asrwt>
<pdfrwt beam="2">  1        1 0.19899637E+00 0.22066032E+04</pdfrwt>
<pdfrwt beam="1">  1       -1 0.14478268E+00 0.22066032E+04</pdfrwt>
<totfact> 0.31962689E+00</totfact>
</mgrwt>
</event>
<event>
 4    1  0.1295381E-008  0.2262287E+04  0.7816531E-02  0.8492941E-01
          2   -1    0    0  501    0  0.00000000000E+00  0.00000000000E+00  0.11885733427E+04  0.11885733427E+04  0.00000000000E+00 0.  1.
         -2   -1    0    0    0  501 -0.00000000000E+00 -0.00000000000E+00 -0.10764886341E+04  0.10764886341E+04  0.00000000000E+00 0. -1.
    2000013    1    1    2    0    0  0.28045190653E+03  0.54409937366E+03  0.81475633500E+01  0.11301609545E+04  0.95000000000E+03 0.  0.
   -2000013    1    1    2    0    0 -0.28045190653E+03 -0.54409937366E+03  0.10393714520E+03  0.11349010223E+04  0.95000000000E+03 0.  0.
<mgrwt>
<rscale>  0 0.22622871E+04</rscale>
<asrwt>0</asrwt>
<pdfrwt beam="1">  1        2 0.18285744E+00 0.22622871E+04</pdfrwt>
<pdfrwt beam="2">  1       -2 0.16561364E+00 0.22622871E+04</pdfrwt>
<totfact> 0.40101283E+00</totfact>
</mgrwt>
</event>
<event>
 4    1  0.1295381E-008  0.2044816E+04  0.7816531E-02  0.8585950E-01
         -2   -1    0    0    0  501 -0.00000000000E+00  0.00000000000E+00  0.30440611004E+03  0.30440611004E+03  0.00000000000E+00 0. -1.
          2   -1    0    0  501    0  0.00000000000E+00 -0.00000000000E+00 -0.34339580766E+04  0.34339580766E+04  0.00000000000E+00 0.  1.
    2000013    1    1    2    0    0  0.37669007998E+03 -0.12852119656E+02 -0.15144675926E+04  0.18270666880E+04  0.95000000000E+03 0.  0.
   -2000013    1    1    2    0    0 -0.37669007998E+03  0.12852119656E+02 -0.16150843739E+04  0.19112974986E+04  0.95000000000E+03 0.  0.
<mgrwt>
<rscale>  0 0.20448157E+04</rscale>
<asrwt>0</asrwt>
<pdfrwt beam="2">  1        2 0.52830120E+00 0.20448157E+04</pdfrwt>
<pdfrwt beam="1">  1       -2 0.46831713E-01 0.20448157E+04</pdfrwt>
<totfact> 0.36321507E+00</totfact>
</mgrwt>
</event>
<event>
 4    1  0.1295381E-008  0.3176928E+04  0.7816531E-02  0.8194937E-01
          2   -1    0    0  501    0  0.00000000000E+00  0.00000000000E+00  0.84639810909E+03  0.84639810909E+03  0.00000000000E+00 0.  1.
         -2   -1    0    0    0  501 -0.00000000000E+00 -0.00000000000E+00 -0.29811244818E+04  0.29811244818E+04  0.00000000000E+00 0. -1.
    2000013    1    1    2    0    0  0.79720747887E+02 -0.97358297608E+03 -0.20509441002E+04  0.24623344434E+04  0.95000000000E+03 0.  0.
   -2000013    1    1    2    0    0 -0.79720747887E+02  0.97358297608E+03 -0.83782272536E+02  0.13651881475E+04  0.95000000000E+03 0.  0.
<mgrwt>
<rscale>  0 0.31769282E+04</rscale>
<asrwt>0</asrwt>
<pdfrwt beam="1">  1        2 0.13021509E+00 0.31769282E+04</pdfrwt>
<pdfrwt beam="2">  1       -2 0.45863453E+00 0.31769282E+04</pdfrwt>
<totfact> 0.81850497E-02</totfact>
</mgrwt>
</event>
<event>
 4    1  0.1295381E-008  0.2246420E+04  0.7816531E-02  0.8499352E-01
          2   -1    0    0  501    0  0.00000000000E+00  0.00000000000E+00  0.23652091737E+04  0.23652091737E+04  0.00000000000E+00 0. -1.
         -2   -1    0    0    0  501 -0.00000000000E+00 -0.00000000000E+00 -0.53339907456E+03  0.53339907456E+03  0.00000000000E+00 0.  1.
    2000013    1    1    2    0    0 -0.59471004601E+03  0.72735324385E+02  0.93061236945E+03  0.14585985906E+04  0.95000000000E+03 0.  0.
   -2000013    1    1    2    0    0  0.59471004601E+03 -0.72735324385E+02  0.90119772970E+03  0.14400096577E+04  0.95000000000E+03 0.  0.
<mgrwt>
<rscale>  0 0.22464197E+04</rscale>
<asrwt>0</asrwt>
<pdfrwt beam="1">  1        2 0.36387833E+00 0.22464197E+04</pdfrwt>
<pdfrwt beam="2">  1       -2 0.82061397E-01 0.22464197E+04</pdfrwt>
<totfact> 0.49459445E+00</totfact>
</mgrwt>
</event>
<event>
 4    1  0.1295381E-008  0.2480772E+04  0.7816531E-02  0.8409868E-01
          1   -1    0    0  501    0  0.00000000000E+00  0.00000000000E+00  0.20604528833E+04  0.20604528833E+04  0.00000000000E+00 0. -1.
         -1   -1    0    0    0  501 -0.00000000000E+00 -0.00000000000E+00 -0.74670814745E+03  0.74670814745E+03  0.00000000000E+00 0.  1.
    2000013    1    1    2    0    0  0.69041338778E+03 -0.15776863390E+02  0.20546705036E+03  0.11923238923E+04  0.95000000000E+03 0.  0.
   -2000013    1    1    2    0    0 -0.69041338778E+03  0.15776863390E+02  0.11082776855E+04  0.16148371384E+04  0.95000000000E+03 0.  0.
<mgrwt>
<rscale>  0 0.24807716E+04</rscale>
<asrwt>0</asrwt>
<pdfrwt beam="1">  1        1 0.31699275E+00 0.24807716E+04</pdfrwt>
<pdfrwt beam="2">  1       -1 0.11487818E+00 0.24807716E+04</pdfrwt>
<totfact> 0.16599226E+00</totfact>
</mgrwt>
</event>
<event>
 4    1  0.1295381E-008  0.2581741E+04  0.7816531E-02  0.8374430E-01
          2   -1    0    0  501    0  0.00000000000E+00  0.00000000000E+00  0.74329783246E+03  0.74329783246E+03  0.00000000000E+00 0.  1.
         -2   -1    0    0    0  501 -0.00000000000E+00 -0.00000000000E+00 -0.22418288611E+04  0.22418288611E+04  0.00000000000E+00 0. -1.
    2000013    1    1    2    0    0 -0.11909256485E+02  0.79616036704E+03 -0.33264247696E+03  0.12834189409E+04  0.95000000000E+03 0.  0.
   -2000013    1    1    2    0    0  0.11909256485E+02 -0.79616036704E+03 -0.11658885517E+04  0.17017077526E+04  0.95000000000E+03 0.  0.
<mgrwt>
<rscale>  0 0.25817409E+04</rscale>
<asrwt>0</asrwt>
<pdfrwt beam="1">  1        2 0.11435351E+00 0.25817409E+04</pdfrwt>
<pdfrwt beam="2">  1       -2 0.34489674E+00 0.25817409E+04</pdfrwt>
<totfact> 0.56323945E-01</totfact>
</mgrwt>
</event>
<event>
 4    1  0.1295381E-008  0.2608642E+04  0.7816531E-02  0.8365272E-01
         -2   -1    0    0    0  501 -0.00000000000E+00  0.00000000000E+00  0.10360733795E+04  0.10360733795E+04  0.00000000000E+00 0. -1.
          2   -1    0    0  501    0  0.00000000000E+00 -0.00000000000E+00 -0.16420202074E+04  0.16420202074E+04  0.00000000000E+00 0.  1.
    2000013    1    1    2    0    0  0.87794408371E+03  0.13023088236E+02 -0.13180717594E+03  0.13003186327E+04  0.95000000000E+03 0.  0.
   -2000013    1    1    2    0    0 -0.87794408371E+03 -0.13023088236E+02 -0.47413965194E+03  0.13777749542E+04  0.95000000000E+03 0.  0.
<mgrwt>
<rscale>  0 0.26086421E+04</rscale>
<asrwt>0</asrwt>
<pdfrwt beam="2">  1        2 0.25261849E+00 0.26086421E+04</pdfrwt>
<pdfrwt beam="1">  1       -2 0.15939590E+00 0.26086421E+04</pdfrwt>
<totfact> 0.23770305E+00</totfact>
</mgrwt>
</event>
<event>
 4    1  0.1295381E-008  0.2262664E+04  0.7816531E-02  0.8492789E-01
         -2   -1    0    0    0  501 -0.00000000000E+00  0.00000000000E+00  0.79692231038E+03  0.79692231038E+03  0.00000000000E+00 0. -1.
          2   -1    0    0  501    0  0.00000000000E+00 -0.00000000000E+00 -0.16060688393E+04  0.16060688393E+04  0.00000000000E+00 0.  1.
    2000013    1    1    2    0    0 -0.59740588595E+03 -0.93170108588E+02 -0.28902472646E+03  0.11625875254E+04  0.95000000000E+03 0.  0.
   -2000013    1    1    2    0    0  0.59740588595E+03  0.93170108588E+02 -0.52012180244E+03  0.12404036243E+04  0.95000000000E+03 0.  0.
<mgrwt>
<rscale>  0 0.22626640E+04</rscale>
<asrwt>0</asrwt>
<pdfrwt beam="2">  1        2 0.24708751E+00 0.22626640E+04</pdfrwt>
<pdfrwt beam="1">  1       -2 0.12260343E+00 0.22626640E+04</pdfrwt>
<totfact> 0.50652823E+00</totfact>
</mgrwt>
</event>
<event>
 4    1  0.1295381E-008  0.2581869E+04  0.7816531E-02  0.8374386E-01
          1   -1    0    0  501    0  0.00000000000E+00  0.00000000000E+00  0.20493025572E+04  0.20493025572E+04  0.00000000000E+00 0. -1.
         -1   -1    0    0    0  501 -0.00000000000E+00 -0.00000000000E+00 -0.81320922381E+03  0.81320922381E+03  0.00000000000E+00 0.  1.
    2000013    1    1    2    0    0  0.41228740159E+03  0.77047671216E+03  0.64012273585E+03  0.14407888056E+04  0.95000000000E+03 0.  0.
   -2000013    1    1    2    0    0 -0.41228740159E+03 -0.77047671216E+03  0.59597059750E+03  0.14217229753E+04  0.95000000000E+03 0.  0.
<mgrwt>
<rscale>  0 0.25818689E+04</rscale>
<asrwt>0</asrwt>
<pdfrwt beam="1">  1        1 0.31527731E+00 0.25818689E+04</pdfrwt>
<pdfrwt beam="2">  1       -1 0.12510911E+00 0.25818689E+04</pdfrwt>
<totfact> 0.13587483E+00</totfact>
</mgrwt>
</event>
<event>
 4    1  0.1295381E-008  0.2280678E+04  0.7816531E-02  0.8485579E-01
          2   -1    0    0  501    0  0.00000000000E+00  0.00000000000E+00  0.21087707795E+04  0.21087707795E+04  0.00000000000E+00 0. -1.
         -2   -1    0    0    0  501 -0.00000000000E+00 -0.00000000000E+00 -0.61664970085E+03  0.61664970085E+03  0.00000000000E+00 0.  1.
    2000013    1    1    2    0    0  0.31807368263E+03  0.32352017417E+03  0.12697353521E+04  0.16494132397E+04  0.95000000000E+03 0.  0.
   -2000013    1    1    2    0    0 -0.31807368263E+03 -0.32352017417E+03  0.22238572651E+03  0.10760072407E+04  0.95000000000E+03 0.  0.
<mgrwt>
<rscale>  0 0.22806779E+04</rscale>
<asrwt>0</asrwt>
<pdfrwt beam="1">  1        2 0.32442627E+00 0.22806779E+04</pdfrwt>
<pdfrwt beam="2">  1       -2 0.94869186E-01 0.22806779E+04</pdfrwt>
<totfact> 0.49322282E+00</totfact>
</mgrwt>
</event>
<event>
 4    1  0.1295381E-008  0.3276293E+04  0.7816531E-02  0.8168954E-01
         -2   -1    0    0    0  501 -0.00000000000E+00  0.00000000000E+00  0.12034134764E+04  0.12034134764E+04  0.00000000000E+00 0. -1.
          2   -1    0    0  501    0  0.00000000000E+00 -0.00000000000E+00 -0.22299261150E+04  0.22299261150E+04  0.00000000000E+00 0.  1.
    2000013    1    1    2    0    0  0.10756923982E+04 -0.77828634387E+03 -0.37196238983E+03  0.16744252112E+04  0.95000000000E+03 0.  0.
   -2000013    1    1    2    0    0 -0.10756923982E+04  0.77828634387E+03 -0.65455024873E+03  0.17589143802E+04  0.95000000000E+03 0.  0.
<mgrwt>
<rscale>  0 0.32762925E+04</rscale>
<asrwt>0</asrwt>
<pdfrwt beam="2">  1        2 0.34306556E+00 0.32762925E+04</pdfrwt>
<pdfrwt beam="1">  1       -2 0.18514053E+00 0.32762925E+04</pdfrwt>
<totfact> 0.69490749E-01</totfact>
</mgrwt>
</event>
<event>
 4    1  0.1295381E-008  0.2831100E+04  0.7816531E-02  0.8293678E-01
         -2   -1    0    0    0  501 -0.00000000000E+00  0.00000000000E+00  0.30709637828E+04  0.30709637828E+04  0.00000000000E+00 0. -1.
          2   -1    0    0  501    0  0.00000000000E+00 -0.00000000000E+00 -0.65249281502E+03  0.65249281502E+03  0.00000000000E+00 0.  1.
    2000013    1    1    2    0    0  0.38416213966E+03  0.56313985841E+03  0.15989653915E+03  0.11801584440E+04  0.95000000000E+03 0.  0.
   -2000013    1    1    2    0    0 -0.38416213966E+03 -0.56313985841E+03  0.22585744286E+04  0.25432981538E+04  0.95000000000E+03 0.  0.
<mgrwt>
<rscale>  0 0.28311000E+04</rscale>
<asrwt>0</asrwt>
<pdfrwt beam="2">  1        2 0.10038351E+00 0.28311000E+04</pdfrwt>
<pdfrwt beam="1">  1       -2 0.47245596E+00 0.28311000E+04</pdfrwt>
<totfact> 0.95773218E-02</totfact>
</mgrwt>
</event>
<event>
 4    1  0.1295381E-008  0.2504678E+04  0.7816531E-02  0.8401321E-01
         -2   -1    0    0    0  501 -0.00000000000E+00  0.00000000000E+00  0.69906268698E+03  0.69906268698E+03  0.00000000000E+00 0. -1.
          2   -1    0    0  501    0  0.00000000000E+00 -0.00000000000E+00 -0.22435088948E+04  0.22435088948E+04  0.00000000000E+00 0.  1.
    2000013    1    1    2    0    0 -0.54508887797E+03 -0.59434769515E+03 -0.91840468747E+03  0.15480110586E+04  0.95000000000E+03 0.  0.
   -2000013    1    1    2    0    0  0.54508887797E+03  0.59434769515E+03 -0.62604152038E+03  0.13945605232E+04  0.95000000000E+03 0.  0.
<mgrwt>
<rscale>  0 0.25046783E+04</rscale>
<asrwt>0</asrwt>
<pdfrwt beam="2">  1        2 0.34515521E+00 0.25046783E+04</pdfrwt>
<pdfrwt beam="1">  1       -2 0.10754811E+00 0.25046783E+04</pdfrwt>
<totfact> 0.30183670E+00</totfact>
</mgrwt>
</event>
<event>
 4    1  0.1295381E-008  0.3040342E+04  0.7816531E-02  0.8232304E-01
          2   -1    0    0  501    0  0.00000000000E+00  0.00000000000E+00  0.41252091585E+04  0.41252091585E+04  0.00000000000E+00 0.  1.
         -2   -1    0    0    0  501 -0.00000000000E+00 -0.00000000000E+00 -0.56019470311E+03  0.56019470311E+03  0.00000000000E+00 0. -1.
    2000013    1    1    2    0    0 -0.51383726498E+02  0.11152247464E+04  0.11621324166E+04  0.18706732147E+04  0.95000000000E+03 0.  0.
   -2000013    1    1    2    0    0  0.51383726498E+02 -0.11152247464E+04  0.24028820388E+04  0.28147306469E+04  0.95000000000E+03 0.  0.
<mgrwt>
<rscale>  0 0.30403423E+04</rscale>
<asrwt>0</asrwt>
<pdfrwt beam="1">  1        2 0.63464754E+00 0.30403423E+04</pdfrwt>
<pdfrwt beam="2">  1       -2 0.86183803E-01 0.30403423E+04</pdfrwt>
<totfact> 0.26821160E-01</totfact>
</mgrwt>
</event>
<event>
 4    1  0.1295381E-008  0.2089991E+04  0.7816531E-02  0.8565665E-01
          2   -1    0    0  501    0  0.00000000000E+00  0.00000000000E+00  0.25847087279E+04  0.25847087279E+04  0.00000000000E+00 0.  1.
         -2   -1    0    0    0  501 -0.00000000000E+00 -0.00000000000E+00 -0.42249057666E+03  0.42249057666E+03  0.00000000000E+00 0. -1.
    2000013    1    1    2    0    0  0.12302145623E+03  0.41731648404E+03  0.11028236493E+04  0.15192127329E+04  0.95000000000E+03 0.  0.
   -2000013    1    1    2    0    0 -0.12302145623E+03 -0.41731648404E+03  0.10593945020E+04  0.14879865717E+04  0.95000000000E+03 0.  0.
<mgrwt>
<rscale>  0 0.20899905E+04</rscale>
<asrwt>0</asrwt>
<pdfrwt beam="1">  1        2 0.39764749E+00 0.20899905E+04</pdfrwt>
<pdfrwt beam="2">  1       -2 0.64998552E-01 0.20899905E+04</pdfrwt>
<totfact> 0.62590568E+00</totfact>
</mgrwt>
</event>
<event>
 4    1  0.1295381E-008  0.2025919E+04  0.7816531E-02  0.8594597E-01
          2   -1    0    0  501    0  0.00000000000E+00  0.00000000000E+00  0.99630715465E+03  0.99630715465E+03  0.00000000000E+00 0.  1.
         -2   -1    0    0    0  501 -0.00000000000E+00 -0.00000000000E+00 -0.10298906687E+04  0.10298906687E+04  0.00000000000E+00 0. -1.
    2000013    1    1    2    0    0 -0.19949600561E+02 -0.26604740225E+03 -0.24575165843E+03  0.10168938413E+04  0.95000000000E+03 0.  0.
   -2000013    1    1    2    0    0  0.19949600561E+02  0.26604740225E+03  0.21216814435E+03  0.10093039821E+04  0.95000000000E+03 0.  0.
<mgrwt>
<rscale>  0 0.20259195E+04</rscale>
<asrwt>0</asrwt>
<pdfrwt beam="1">  1        2 0.15327802E+00 0.20259195E+04</pdfrwt>
<pdfrwt beam="2">  1       -2 0.15844472E+00 0.20259195E+04</pdfrwt>
<totfact> 0.60730298E+00</totfact>
</mgrwt>
</event>
<event>
 4    1  0.1295381E-008  0.2732736E+04  0.7816531E-02  0.8324461E-01
         -2   -1    0    0    0  501 -0.00000000000E+00  0.00000000000E+00  0.14852045947E+04  0.14852045947E+04  0.00000000000E+00 0. -1.
          2   -1    0    0  501    0  0.00000000000E+00 -0.00000000000E+00 -0.12570395788E+04  0.12570395788E+04  0.00000000000E+00 0.  1.
    2000013    1    1    2    0    0  0.79733951747E+03  0.47048534315E+03  0.44287206604E+03  0.13984786130E+04  0.95000000000E+03 0.  0.
   -2000013    1    1    2    0    0 -0.79733951747E+03 -0.47048534315E+03 -0.21470705017E+03  0.13437655605E+04  0.95000000000E+03 0.  0.
<mgrwt>
<rscale>  0 0.27327356E+04</rscale>
<asrwt>0</asrwt>
<pdfrwt beam="2">  1        2 0.19339070E+00 0.27327356E+04</pdfrwt>
<pdfrwt beam="1">  1       -2 0.22849301E+00 0.27327356E+04</pdfrwt>
<totfact> 0.13393972E+00</totfact>
</mgrwt>
</event>
<event>
 4    1  0.1295381E-008  0.2221903E+04  0.7816531E-02  0.8509367E-01
          2   -1    0    0  501    0  0.00000000000E+00  0.00000000000E+00  0.12934567370E+04  0.12934567370E+04  0.00000000000E+00 0.  1.
         -2   -1    0    0    0  501 -0.00000000000E+00 -0.00000000000E+00 -0.95419759865E+03  0.95419759865E+03  0.00000000000E+00 0. -1.
    2000013    1    1    2    0    0 -0.54916603697E+03 -0.17334217019E+03  0.16044311689E+03  0.11224405721E+04  0.95000000000E+03 0.  0.
   -2000013    1    1    2    0    0  0.54916603697E+03  0.17334217019E+03  0.17881602145E+03  0.11252137635E+04  0.95000000000E+03 0.  0.
<mgrwt>
<rscale>  0 0.22219031E+04</rscale>
<asrwt>0</asrwt>
<pdfrwt beam="1">  1        2 0.19899334E+00 0.22219031E+04</pdfrwt>
<pdfrwt beam="2">  1       -2 0.14679963E+00 0.22219031E+04</pdfrwt>
<totfact> 0.48275215E+00</totfact>
</mgrwt>
</event>
<event>
 4    1  0.1295381E-008  0.3022581E+04  0.7816531E-02  0.8237312E-01
          2   -1    0    0  501    0  0.00000000000E+00  0.00000000000E+00  0.21968710381E+04  0.21968710381E+04  0.00000000000E+00 0.  1.
         -2   -1    0    0    0  501 -0.00000000000E+00 -0.00000000000E+00 -0.10396596739E+04  0.10396596739E+04  0.00000000000E+00 0. -1.
    2000013    1    1    2    0    0 -0.10036273829E+04  0.19301010233E+03  0.12001931439E+04  0.18405119956E+04  0.95000000000E+03 0.  0.
   -2000013    1    1    2    0    0  0.10036273829E+04 -0.19301010233E+03 -0.42981779638E+02  0.13960187164E+04  0.95000000000E+03 0.  0.
<mgrwt>
<rscale>  0 0.30225805E+04</rscale>
<asrwt>0</asrwt>
<pdfrwt beam="1">  1        2 0.33798016E+00 0.30225805E+04</pdfrwt>
<pdfrwt beam="2">  1       -2 0.15994764E+00 0.30225805E+04</pdfrwt>
<totfact> 0.11168773E+00</totfact>
</mgrwt>
</event>
<event>
 4    1  0.1295381E-008  0.3355485E+04  0.7816531E-02  0.8148919E-01
          2   -1    0    0  501    0  0.00000000000E+00  0.00000000000E+00  0.20374170813E+04  0.20374170813E+04  0.00000000000E+00 0.  1.
         -2   -1    0    0    0  501 -0.00000000000E+00 -0.00000000000E+00 -0.13815629790E+04  0.13815629790E+04  0.00000000000E+00 0. -1.
    2000013    1    1    2    0    0  0.12331744684E+04 -0.62566916718E+03  0.31592121588E+03  0.17071869818E+04  0.95000000000E+03 0.  0.
   -2000013    1    1    2    0    0 -0.12331744684E+04  0.62566916718E+03  0.33993288646E+03  0.17117930785E+04  0.95000000000E+03 0.  0.
<mgrwt>
<rscale>  0 0.33554851E+04</rscale>
<asrwt>0</asrwt>
<pdfrwt beam="1">  1        2 0.31344878E+00 0.33554851E+04</pdfrwt>
<pdfrwt beam="2">  1       -2 0.21254815E+00 0.33554851E+04</pdfrwt>
<totfact> 0.58387948E-01</totfact>
</mgrwt>
</event>
<event>
 4    1  0.1295381E-008  0.2072889E+04  0.7816531E-02  0.8573281E-01
          2   -1    0    0  501    0  0.00000000000E+00  0.00000000000E+00  0.22953997994E+04  0.22953997994E+04  0.00000000000E+00 0.  1.
         -2   -1    0    0    0  501 -0.00000000000E+00 -0.00000000000E+00 -0.46798698359E+03  0.46798698359E+03  0.00000000000E+00 0. -1.
    2000013    1    1    2    0    0 -0.28768621414E+03  0.27583492214E+03  0.76247658151E+03  0.12816859207E+04  0.95000000000E+03 0.  0.
   -2000013    1    1    2    0    0  0.28768621414E+03 -0.27583492214E+03  0.10649362343E+04  0.14817008623E+04  0.95000000000E+03 0.  0.
<mgrwt>
<rscale>  0 0.20728890E+04</rscale>
<asrwt>0</asrwt>
<pdfrwt beam="1">  1        2 0.35313842E+00 0.20728890E+04</pdfrwt>
<pdfrwt beam="2">  1       -2 0.71997999E-01 0.20728890E+04</pdfrwt>
<totfact> 0.73621948E+00</totfact>
</mgrwt>
</event>
<event>
 4    1  0.1295381E-008  0.2742618E+04  0.7816531E-02  0.8321308E-01
         -2   -1    0    0    0  501 -0.00000000000E+00  0.00000000000E+00  0.71392514539E+03  0.71392514539E+03  0.00000000000E+00 0. -1.
          2   -1    0    0  501    0  0.00000000000E+00 -0.00000000000E+00 -0.26340128456E+04  0.26340128456E+04  0.00000000000E+00 0.  1.
    2000013    1    1    2    0    0 -0.29918571849E+03  0.94239789138E+03 -0.93681430249E+03  0.16606465359E+04  0.95000000000E+03 0.  0.
   -2000013    1    1    2    0    0  0.29918571849E+03 -0.94239789138E+03 -0.98327339776E+03  0.16872914551E+04  0.95000000000E+03 0.  0.
<mgrwt>
<rscale>  0 0.27426177E+04</rscale>
<asrwt>0</asrwt>
<pdfrwt beam="2">  1        2 0.40523274E+00 0.27426177E+04</pdfrwt>
<pdfrwt beam="1">  1       -2 0.10983464E+00 0.27426177E+04</pdfrwt>
<totfact> 0.16748043E+00</totfact>
</mgrwt>
</event>
<event>
 4    1  0.1295381E-008  0.2288332E+04  0.7816531E-02  0.8482536E-01
          2   -1    0    0  501    0  0.00000000000E+00  0.00000000000E+00  0.25819176346E+04  0.25819176346E+04  0.00000000000E+00 0. -1.
         -2   -1    0    0    0  501 -0.00000000000E+00 -0.00000000000E+00 -0.50703219010E+03  0.50703219010E+03  0.00000000000E+00 0.  1.
    2000013    1    1    2    0    0  0.31913611414E+03  0.44021010448E+03  0.14871389705E+04  0.18465413922E+04  0.95000000000E+03 0.  0.
   -2000013    1    1    2    0    0 -0.31913611414E+03 -0.44021010448E+03  0.58774647393E+03  0.12424084325E+04  0.95000000000E+03 0.  0.
<mgrwt>
<rscale>  0 0.22883316E+04</rscale>
<asrwt>0</asrwt>
<pdfrwt beam="1">  1        2 0.39721809E+00 0.22883316E+04</pdfrwt>
<pdfrwt beam="2">  1       -2 0.78004953E-01 0.22883316E+04</pdfrwt>
<totfact> 0.41403436E+00</totfact>
</mgrwt>
</event>
<event>
 4    1  0.1295381E-008  0.2207501E+04  0.7816531E-02  0.8515312E-01
         -1   -1    0    0    0  501 -0.00000000000E+00  0.00000000000E+00  0.46294084124E+03  0.46294084124E+03  0.00000000000E+00 0.  1.
          1   -1    0    0  501    0  0.00000000000E+00 -0.00000000000E+00 -0.26315787065E+04  0.26315787065E+04  0.00000000000E+00 0. -1.
    2000013    1    1    2    0    0  0.41814264506E+03 -0.27750536607E+02 -0.55952138873E+03  0.11794818983E+04  0.95000000000E+03 0.  0.
   -2000013    1    1    2    0    0 -0.41814264506E+03  0.27750536607E+02 -0.16091164766E+04  0.19150376495E+04  0.95000000000E+03 0.  0.
<mgrwt>
<rscale>  0 0.22075011E+04</rscale>
<asrwt>0</asrwt>
<pdfrwt beam="2">  1        1 0.40485827E+00 0.22075011E+04</pdfrwt>
<pdfrwt beam="1">  1       -1 0.71221667E-01 0.22075011E+04</pdfrwt>
<totfact> 0.19893891E+00</totfact>
</mgrwt>
</event>
<event>
 4    1  0.1295381E-008  0.2138530E+04  0.7816531E-02  0.8544458E-01
          1   -1    0    0  501    0  0.00000000000E+00  0.00000000000E+00  0.77291035395E+03  0.77291035395E+03  0.00000000000E+00 0.  1.
         -1   -1    0    0    0  501 -0.00000000000E+00 -0.00000000000E+00 -0.14792501368E+04  0.14792501368E+04  0.00000000000E+00 0. -1.
    2000013    1    1    2    0    0  0.38108128987E+03 -0.24031036918E+03 -0.55807356519E+03  0.11903437013E+04  0.95000000000E+03 0.  0.
   -2000013    1    1    2    0    0 -0.38108128987E+03  0.24031036918E+03 -0.14826621763E+03  0.10618167894E+04  0.95000000000E+03 0.  0.
<mgrwt>
<rscale>  0 0.21385301E+04</rscale>
<asrwt>0</asrwt>
<pdfrwt beam="1">  1        1 0.11890929E+00 0.21385301E+04</pdfrwt>
<pdfrwt beam="2">  1       -1 0.22757694E+00 0.21385301E+04</pdfrwt>
<totfact> 0.20971923E+00</totfact>
</mgrwt>
</event>
<event>
 4    1  0.1295381E-008  0.2567016E+04  0.7816531E-02  0.8379492E-01
          2   -1    0    0  501    0  0.00000000000E+00  0.00000000000E+00  0.24080382294E+04  0.24080382294E+04  0.00000000000E+00 0.  1.
         -2   -1    0    0    0  501 -0.00000000000E+00 -0.00000000000E+00 -0.68412247375E+03  0.68412247375E+03  0.00000000000E+00 0. -1.
    2000013    1    1    2    0    0 -0.63562964452E+03  0.57794645668E+03  0.76229135440E+03  0.14905150991E+04  0.95000000000E+03 0.  0.
   -2000013    1    1    2    0    0  0.63562964452E+03 -0.57794645668E+03  0.96162440128E+03  0.16016456040E+04  0.95000000000E+03 0.  0.
<mgrwt>
<rscale>  0 0.25670162E+04</rscale>
<asrwt>0</asrwt>
<pdfrwt beam="1">  1        2 0.37046741E+00 0.25670162E+04</pdfrwt>
<pdfrwt beam="2">  1       -2 0.10524961E+00 0.25670162E+04</pdfrwt>
<totfact> 0.25495538E+00</totfact>
</mgrwt>
</event>
<event>
 4    1  0.1295381E-008  0.2446391E+04  0.7816531E-02  0.8422337E-01
         -2   -1    0    0    0  501 -0.00000000000E+00  0.00000000000E+00  0.76325320982E+03  0.76325320982E+03  0.00000000000E+00 0. -1.
          2   -1    0    0  501    0  0.00000000000E+00 -0.00000000000E+00 -0.19603027213E+04  0.19603027213E+04  0.00000000000E+00 0.  1.
    2000013    1    1    2    0    0  0.34522702227E+03 -0.48595570528E+03 -0.54975795461E+02  0.11228788815E+04  0.95000000000E+03 0.  0.
   -2000013    1    1    2    0    0 -0.34522702227E+03  0.48595570528E+03 -0.11420737160E+04  0.16006770496E+04  0.95000000000E+03 0.  0.
<mgrwt>
<rscale>  0 0.24463911E+04</rscale>
<asrwt>0</asrwt>
<pdfrwt beam="2">  1        2 0.30158504E+00 0.24463911E+04</pdfrwt>
<pdfrwt beam="1">  1       -2 0.11742357E+00 0.24463911E+04</pdfrwt>
<totfact> 0.35283655E+00</totfact>
</mgrwt>
</event>
<event>
 4    1  0.1295381E-008  0.2444507E+04  0.7816531E-02  0.8423026E-01
          2   -1    0    0  501    0  0.00000000000E+00  0.00000000000E+00  0.14898174848E+04  0.14898174848E+04  0.00000000000E+00 0.  1.
         -2   -1    0    0    0  501 -0.00000000000E+00 -0.00000000000E+00 -0.10027423080E+04  0.10027423080E+04  0.00000000000E+00 0. -1.
    2000013    1    1    2    0    0  0.97772268768E+02  0.75229254828E+03  0.11496555607E+03  0.12211554257E+04  0.95000000000E+03 0.  0.
   -2000013    1    1    2    0    0 -0.97772268768E+02 -0.75229254828E+03  0.37210962075E+03  0.12714043671E+04  0.95000000000E+03 0.  0.
<mgrwt>
<rscale>  0 0.24445065E+04</rscale>
<asrwt>0</asrwt>
<pdfrwt beam="1">  1        2 0.22920269E+00 0.24445065E+04</pdfrwt>
<pdfrwt beam="2">  1       -2 0.15426805E+00 0.24445065E+04</pdfrwt>
<totfact> 0.32047835E+00</totfact>
</mgrwt>
</event>
<event>
 4    1  0.1295381E-008  0.2462432E+04  0.7816531E-02  0.8416493E-01
          1   -1    0    0  501    0  0.00000000000E+00  0.00000000000E+00  0.17181620437E+04  0.17181620437E+04  0.00000000000E+00 0.  1.
         -1   -1    0    0    0  501 -0.00000000000E+00 -0.00000000000E+00 -0.88227607019E+03  0.88227607019E+03  0.00000000000E+00 0. -1.
    2000013    1    1    2    0    0 -0.63489166163E+03  0.28257004096E+03  0.79937831407E+03  0.14228277967E+04  0.95000000000E+03 0.  0.
   -2000013    1    1    2    0    0  0.63489166163E+03 -0.28257004096E+03  0.36507659484E+02  0.11776103172E+04  0.95000000000E+03 0.  0.
<mgrwt>
<rscale>  0 0.24624323E+04</rscale>
<asrwt>0</asrwt>
<pdfrwt beam="1">  1        1 0.26433262E+00 0.24624323E+04</pdfrwt>
<pdfrwt beam="2">  1       -1 0.13573478E+00 0.24624323E+04</pdfrwt>
<totfact> 0.18752829E+00</totfact>
</mgrwt>
</event>
<event>
 4    1  0.1295381E-008  0.2353685E+04  0.7816531E-02  0.8457050E-01
          2   -1    0    0  501    0  0.00000000000E+00  0.00000000000E+00  0.80768579807E+03  0.80768579807E+03  0.00000000000E+00 0.  1.
         -2   -1    0    0    0  501 -0.00000000000E+00 -0.00000000000E+00 -0.17147243786E+04  0.17147243786E+04  0.00000000000E+00 0. -1.
    2000013    1    1    2    0    0 -0.65997457976E+03 -0.70281719103E+02 -0.67302538093E+03  0.13401377278E+04  0.95000000000E+03 0.  0.
   -2000013    1    1    2    0    0  0.65997457976E+03  0.70281719103E+02 -0.23401319965E+03  0.11822724490E+04  0.95000000000E+03 0.  0.
<mgrwt>
<rscale>  0 0.23536852E+04</rscale>
<asrwt>0</asrwt>
<pdfrwt beam="1">  1        2 0.12425935E+00 0.23536852E+04</pdfrwt>
<pdfrwt beam="2">  1       -2 0.26380375E+00 0.23536852E+04</pdfrwt>
<totfact> 0.16232924E+00</totfact>
</mgrwt>
</event>
<event>
 4    1  0.1295381E-008  0.2185574E+04  0.7816531E-02  0.8524456E-01
         -2   -1    0    0    0  501 -0.00000000000E+00  0.00000000000E+00  0.36349707864E+03  0.36349707864E+03  0.00000000000E+00 0. -1.
          2   -1    0    0  501    0  0.00000000000E+00 -0.00000000000E+00 -0.32852637179E+04  0.32852637179E+04  0.00000000000E+00 0.  1.
    2000013    1    1    2    0    0  0.14846690115E+02  0.43901592687E+03 -0.19854500808E+04  0.22444303134E+04  0.95000000000E+03 0.  0.
   -2000013    1    1    2    0    0 -0.14846690115E+02 -0.43901592687E+03 -0.93631655841E+03  0.14043304831E+04  0.95000000000E+03 0.  0.
<mgrwt>
<rscale>  0 0.21855743E+04</rscale>
<asrwt>0</asrwt>
<pdfrwt beam="2">  1        2 0.50542518E+00 0.21855743E+04</pdfrwt>
<pdfrwt beam="1">  1       -2 0.55922628E-01 0.21855743E+04</pdfrwt>
<totfact> 0.31388303E+00</totfact>
</mgrwt>
</event>
<event>
 4    1  0.1295381E-008  0.2260457E+04  0.7816531E-02  0.8493678E-01
         -2   -1    0    0    0  501 -0.00000000000E+00  0.00000000000E+00  0.10310959859E+04  0.10310959859E+04  0.00000000000E+00 0. -1.
          2   -1    0    0  501    0  0.00000000000E+00 -0.00000000000E+00 -0.12388919621E+04  0.12388919621E+04  0.00000000000E+00 0.  1.
    2000013    1    1    2    0    0 -0.16116669511E+03 -0.34252216115E+03  0.37940078047E+03  0.10907525323E+04  0.95000000000E+03 0.  0.
   -2000013    1    1    2    0    0  0.16116669511E+03  0.34252216115E+03 -0.58719675675E+03  0.11792354157E+04  0.95000000000E+03 0.  0.
<mgrwt>
<rscale>  0 0.22604571E+04</rscale>
<asrwt>0</asrwt>
<pdfrwt beam="2">  1        2 0.19059876E+00 0.22604571E+04</pdfrwt>
<pdfrwt beam="1">  1       -2 0.15863015E+00 0.22604571E+04</pdfrwt>
<totfact> 0.42118919E+00</totfact>
</mgrwt>
</event>
<event>
 4    1  0.1295381E-008  0.2082197E+04  0.7816531E-02  0.8569126E-01
          1   -1    0    0  501    0  0.00000000000E+00  0.00000000000E+00  0.88347377001E+03  0.88347377001E+03  0.00000000000E+00 0.  1.
         -1   -1    0    0    0  501 -0.00000000000E+00 -0.00000000000E+00 -0.12268461368E+04  0.12268461368E+04  0.00000000000E+00 0. -1.
    2000013    1    1    2    0    0 -0.17946768810E+03 -0.36193888132E+03 -0.35039469345E+02  0.10329260231E+04  0.95000000000E+03 0.  0.
   -2000013    1    1    2    0    0  0.17946768810E+03  0.36193888132E+03 -0.30833289742E+03  0.10773938836E+04  0.95000000000E+03 0.  0.
<mgrwt>
<rscale>  0 0.20821973E+04</rscale>
<asrwt>0</asrwt>
<pdfrwt beam="1">  1        1 0.13591904E+00 0.20821973E+04</pdfrwt>
<pdfrwt beam="2">  1       -1 0.18874556E+00 0.20821973E+04</pdfrwt>
<totfact> 0.31186685E+00</totfact>
</mgrwt>
</event>
<event>
 4    1  0.1295381E-008  0.2332831E+04  0.7816531E-02  0.8465088E-01
          2   -1    0    0  501    0  0.00000000000E+00  0.00000000000E+00  0.12035697294E+04  0.12035697294E+04  0.00000000000E+00 0. -1.
         -2   -1    0    0    0  501 -0.00000000000E+00 -0.00000000000E+00 -0.11304078585E+04  0.11304078585E+04  0.00000000000E+00 0.  1.
    2000013    1    1    2    0    0 -0.51398885259E+03  0.43985347498E+03  0.55801324388E+02  0.11675912846E+04  0.95000000000E+03 0.  0.
   -2000013    1    1    2    0    0  0.51398885259E+03 -0.43985347498E+03  0.17360546492E+02  0.11663863033E+04  0.95000000000E+03 0.  0.
<mgrwt>
<rscale>  0 0.23328306E+04</rscale>
<asrwt>0</asrwt>
<pdfrwt beam="1">  1        2 0.18516457E+00 0.23328306E+04</pdfrwt>
<pdfrwt beam="2">  1       -2 0.17390890E+00 0.23328306E+04</pdfrwt>
<totfact> 0.34081959E+00</totfact>
</mgrwt>
</event>
<event>
 4    1  0.1295381E-008  0.2831884E+04  0.7816531E-02  0.8293437E-01
          2   -1    0    0  501    0  0.00000000000E+00  0.00000000000E+00  0.23282405442E+04  0.23282405442E+04  0.00000000000E+00 0.  1.
         -2   -1    0    0    0  501 -0.00000000000E+00 -0.00000000000E+00 -0.86111907807E+03  0.86111907807E+03  0.00000000000E+00 0. -1.
    2000013    1    1    2    0    0 -0.70129070255E+03  0.74997224524E+03  0.98062778875E+03  0.17083318993E+04  0.95000000000E+03 0.  0.
   -2000013    1    1    2    0    0  0.70129070255E+03 -0.74997224524E+03  0.48649367741E+03  0.14810277230E+04  0.95000000000E+03 0.  0.
<mgrwt>
<rscale>  0 0.28318844E+04</rscale>
<asrwt>0</asrwt>
<pdfrwt beam="1">  1        2 0.35819085E+00 0.28318844E+04</pdfrwt>
<pdfrwt beam="2">  1       -2 0.13247986E+00 0.28318844E+04</pdfrwt>
<totfact> 0.15694418E+00</totfact>
</mgrwt>
</event>
<event>
 4    1  0.1295381E-008  0.2463061E+04  0.7816531E-02  0.8416265E-01
          2   -1    0    0  501    0  0.00000000000E+00  0.00000000000E+00  0.26389195859E+04  0.26389195859E+04  0.00000000000E+00 0.  1.
         -2   -1    0    0    0  501 -0.00000000000E+00 -0.00000000000E+00 -0.57473043530E+03  0.57473043530E+03  0.00000000000E+00 0. -1.
    2000013    1    1    2    0    0  0.18673563895E+03 -0.72910033295E+03  0.74710583864E+03  0.14237712697E+04  0.95000000000E+03 0.  0.
   -2000013    1    1    2    0    0 -0.18673563895E+03  0.72910033295E+03  0.13170833120E+04  0.17898787515E+04  0.95000000000E+03 0.  0.
<mgrwt>
<rscale>  0 0.24630610E+04</rscale>
<asrwt>0</asrwt>
<pdfrwt beam="1">  1        2 0.40598762E+00 0.24630610E+04</pdfrwt>
<pdfrwt beam="2">  1       -2 0.88420069E-01 0.24630610E+04</pdfrwt>
<totfact> 0.28425328E+00</totfact>
</mgrwt>
</event>
<event>
 4    1  0.1295381E-008  0.2283485E+04  0.7816531E-02  0.8484461E-01
         -2   -1    0    0    0  501 -0.00000000000E+00  0.00000000000E+00  0.50730710924E+03  0.50730710924E+03  0.00000000000E+00 0. -1.
          2   -1    0    0  501    0  0.00000000000E+00 -0.00000000000E+00 -0.25695992341E+04  0.25695992341E+04  0.00000000000E+00 0.  1.
    2000013    1    1    2    0    0 -0.40252992831E+03  0.19338041971E+03 -0.16362288853E+04  0.19440090779E+04  0.95000000000E+03 0.  0.
   -2000013    1    1    2    0    0  0.40252992831E+03 -0.19338041971E+03 -0.42606323958E+03  0.11328972654E+04  0.95000000000E+03 0.  0.
<mgrwt>
<rscale>  0 0.22834850E+04</rscale>
<asrwt>0</asrwt>
<pdfrwt beam="2">  1        2 0.39532295E+00 0.22834850E+04</pdfrwt>
<pdfrwt beam="1">  1       -2 0.78047249E-01 0.22834850E+04</pdfrwt>
<totfact> 0.42062350E+00</totfact>
</mgrwt>
</event>
<event>
 4    1  0.1295381E-008  0.2223105E+04  0.7816531E-02  0.8508872E-01
         -2   -1    0    0    0  501 -0.00000000000E+00  0.00000000000E+00  0.45933965237E+03  0.45933965237E+03  0.00000000000E+00 0. -1.
          2   -1    0    0  501    0  0.00000000000E+00 -0.00000000000E+00 -0.26898385015E+04  0.26898385015E+04  0.00000000000E+00 0.  1.
    2000013    1    1    2    0    0  0.26724361684E+03  0.48729465925E+03 -0.13354982679E+04  0.17305868540E+04  0.95000000000E+03 0.  0.
   -2000013    1    1    2    0    0 -0.26724361684E+03 -0.48729465925E+03 -0.89500058128E+03  0.14185912999E+04  0.95000000000E+03 0.  0.
<mgrwt>
<rscale>  0 0.22231055E+04</rscale>
<asrwt>0</asrwt>
<pdfrwt beam="2">  1        2 0.41382131E+00 0.22231055E+04</pdfrwt>
<pdfrwt beam="1">  1       -2 0.70667639E-01 0.22231055E+04</pdfrwt>
<totfact> 0.44743301E+00</totfact>
</mgrwt>
</event>
<event>
 4    1  0.1295381E-008  0.2307821E+04  0.7816531E-02  0.8474844E-01
          2   -1    0    0  501    0  0.00000000000E+00  0.00000000000E+00  0.26035589064E+04  0.26035589064E+04  0.00000000000E+00 0.  1.
         -2   -1    0    0    0  501 -0.00000000000E+00 -0.00000000000E+00 -0.51141888853E+03  0.51141888853E+03  0.00000000000E+00 0. -1.
    2000013    1    1    2    0    0 -0.49759855223E+03  0.33434684592E+03  0.14022017989E+04  0.17966808335E+04  0.95000000000E+03 0.  0.
   -2000013    1    1    2    0    0  0.49759855223E+03 -0.33434684592E+03  0.68993821893E+03  0.13182969614E+04  0.95000000000E+03 0.  0.
<mgrwt>
<rscale>  0 0.23078208E+04</rscale>
<asrwt>0</asrwt>
<pdfrwt beam="1">  1        2 0.40054752E+00 0.23078208E+04</pdfrwt>
<pdfrwt beam="2">  1       -2 0.78679831E-01 0.23078208E+04</pdfrwt>
<totfact> 0.39378166E+00</totfact>
</mgrwt>
</event>
<event>
 4    1  0.1295381E-008  0.3426660E+04  0.7816531E-02  0.8131394E-01
         -2   -1    0    0    0  501 -0.00000000000E+00  0.00000000000E+00  0.11221116875E+04  0.11221116875E+04  0.00000000000E+00 0. -1.
          2   -1    0    0  501    0  0.00000000000E+00 -0.00000000000E+00 -0.26160492328E+04  0.26160492328E+04  0.00000000000E+00 0.  1.
    2000013    1    1    2    0    0  0.12497986088E+04 -0.67986235418E+03 -0.64469074930E+03  0.18282055534E+04  0.95000000000E+03 0.  0.
   -2000013    1    1    2    0    0 -0.12497986088E+04  0.67986235418E+03 -0.84924679598E+03  0.19099553669E+04  0.95000000000E+03 0.  0.
<mgrwt>
<rscale>  0 0.34266598E+04</rscale>
<asrwt>0</asrwt>
<pdfrwt beam="2">  1        2 0.40246912E+00 0.34266598E+04</pdfrwt>
<pdfrwt beam="1">  1       -2 0.17263257E+00 0.34266598E+04</pdfrwt>
<totfact> 0.50245634E-01</totfact>
</mgrwt>
</event>
<event>
 4    1  0.1295381E-008  0.2107544E+04  0.7816531E-02  0.8557927E-01
          2   -1    0    0  501    0  0.00000000000E+00  0.00000000000E+00  0.31228983055E+04  0.31228983055E+04  0.00000000000E+00 0.  1.
         -2   -1    0    0    0  501 -0.00000000000E+00 -0.00000000000E+00 -0.35557856893E+03  0.35557856893E+03  0.00000000000E+00 0. -1.
    2000013    1    1    2    0    0  0.39984943449E+03  0.15210317963E+03  0.11231086661E+04  0.15319556206E+04  0.95000000000E+03 0.  0.
   -2000013    1    1    2    0    0 -0.39984943449E+03 -0.15210317963E+03  0.16442110704E+04  0.19465212538E+04  0.95000000000E+03 0.  0.
<mgrwt>
<rscale>  0 0.21075443E+04</rscale>
<asrwt>0</asrwt>
<pdfrwt beam="1">  1        2 0.48044588E+00 0.21075443E+04</pdfrwt>
<pdfrwt beam="2">  1       -2 0.54704397E-01 0.21075443E+04</pdfrwt>
<totfact> 0.42222382E+00</totfact>
</mgrwt>
</event>
<event>
 4    1  0.1295381E-008  0.2507719E+04  0.7816531E-02  0.8400241E-01
          2   -1    0    0  501    0  0.00000000000E+00  0.00000000000E+00  0.73857207725E+03  0.73857207725E+03  0.00000000000E+00 0.  1.
         -2   -1    0    0    0  501 -0.00000000000E+00 -0.00000000000E+00 -0.21286534812E+04  0.21286534812E+04  0.00000000000E+00 0. -1.
    2000013    1    1    2    0    0 -0.32101092462E+03 -0.54436801891E+03 -0.10062610514E+03  0.11454301230E+04  0.95000000000E+03 0.  0.
   -2000013    1    1    2    0    0  0.32101092462E+03  0.54436801891E+03 -0.12894552988E+04  0.17217954354E+04  0.95000000000E+03 0.  0.
<mgrwt>
<rscale>  0 0.25077193E+04</rscale>
<asrwt>0</asrwt>
<pdfrwt beam="1">  1        2 0.11362647E+00 0.25077193E+04</pdfrwt>
<pdfrwt beam="2">  1       -2 0.32748515E+00 0.25077193E+04</pdfrwt>
<totfact> 0.73398854E-01</totfact>
</mgrwt>
</event>
<event>
 4    1  0.1295381E-008  0.2713017E+04  0.7816531E-02  0.8330794E-01
          2   -1    0    0  501    0  0.00000000000E+00  0.00000000000E+00  0.25807807329E+04  0.25807807329E+04  0.00000000000E+00 0.  1.
         -2   -1    0    0    0  501 -0.00000000000E+00 -0.00000000000E+00 -0.71300739017E+03  0.71300739017E+03  0.00000000000E+00 0. -1.
    2000013    1    1    2    0    0 -0.69343865861E+03 -0.45844528364E+03  0.33101104271E+03  0.13050278011E+04  0.95000000000E+03 0.  0.
   -2000013    1    1    2    0    0  0.69343865861E+03  0.45844528364E+03  0.15367623001E+04  0.19887603220E+04  0.95000000000E+03 0.  0.
<mgrwt>
<rscale>  0 0.27130173E+04</rscale>
<asrwt>0</asrwt>
<pdfrwt beam="1">  1        2 0.39704318E+00 0.27130173E+04</pdfrwt>
<pdfrwt beam="2">  1       -2 0.10969345E+00 0.27130173E+04</pdfrwt>
<totfact> 0.18100688E+00</totfact>
</mgrwt>
</event>
<event>
 4    1  0.1295381E-008  0.2558340E+04  0.7816531E-02  0.8382491E-01
          2   -1    0    0  501    0  0.00000000000E+00  0.00000000000E+00  0.24037573874E+04  0.24037573874E+04  0.00000000000E+00 0.  1.
         -2   -1    0    0    0  501 -0.00000000000E+00 -0.00000000000E+00 -0.68071589999E+03  0.68071589999E+03  0.00000000000E+00 0. -1.
    2000013    1    1    2    0    0 -0.75827793618E+02  0.85072199359E+03  0.94056338587E+03  0.15863912656E+04  0.95000000000E+03 0.  0.
   -2000013    1    1    2    0    0  0.75827793618E+02 -0.85072199359E+03  0.78247810152E+03  0.14980820218E+04  0.95000000000E+03 0.  0.
<mgrwt>
<rscale>  0 0.25583400E+04</rscale>
<asrwt>0</asrwt>
<pdfrwt beam="1">  1        2 0.36980882E+00 0.25583400E+04</pdfrwt>
<pdfrwt beam="2">  1       -2 0.10472552E+00 0.25583400E+04</pdfrwt>
<totfact> 0.25968171E+00</totfact>
</mgrwt>
</event>
<event>
 4    1  0.1295381E-008  0.2664283E+04  0.7816531E-02  0.8346688E-01
          2   -1    0    0  501    0  0.00000000000E+00  0.00000000000E+00  0.10570685589E+04  0.10570685589E+04  0.00000000000E+00 0.  1.
         -2   -1    0    0    0  501 -0.00000000000E+00 -0.00000000000E+00 -0.16787948823E+04  0.16787948823E+04  0.00000000000E+00 0. -1.
    2000013    1    1    2    0    0  0.92444809667E+03  0.12321187568E+03 -0.26144711101E+03  0.13567018986E+04  0.95000000000E+03 0.  0.
   -2000013    1    1    2    0    0 -0.92444809667E+03 -0.12321187568E+03 -0.36027921243E+03  0.13791615426E+04  0.95000000000E+03 0.  0.
<mgrwt>
<rscale>  0 0.26642832E+04</rscale>
<asrwt>0</asrwt>
<pdfrwt beam="1">  1        2 0.16262593E+00 0.26642832E+04</pdfrwt>
<pdfrwt beam="2">  1       -2 0.25827614E+00 0.26642832E+04</pdfrwt>
<totfact> 0.11653489E+00</totfact>
</mgrwt>
</event>
<event>
 4    1  0.1295381E-008  0.3410684E+04  0.7816531E-02  0.8135289E-01
          2   -1    0    0  501    0  0.00000000000E+00  0.00000000000E+00  0.19171758181E+04  0.19171758181E+04  0.00000000000E+00 0.  1.
         -2   -1    0    0    0  501 -0.00000000000E+00 -0.00000000000E+00 -0.15169140371E+04  0.15169140371E+04  0.00000000000E+00 0. -1.
    2000013    1    1    2    0    0  0.64720094684E+02 -0.10472847700E+04 -0.75755201827E+03  0.16054217952E+04  0.95000000000E+03 0.  0.
   -2000013    1    1    2    0    0 -0.64720094684E+02  0.10472847700E+04  0.11578137993E+04  0.18286680600E+04  0.95000000000E+03 0.  0.
<mgrwt>
<rscale>  0 0.34106837E+04</rscale>
<asrwt>0</asrwt>
<pdfrwt beam="1">  1        2 0.29495012E+00 0.34106837E+04</pdfrwt>
<pdfrwt beam="2">  1       -2 0.23337139E+00 0.34106837E+04</pdfrwt>
<totfact> 0.50083781E-01</totfact>
</mgrwt>
</event>
<event>
 4    1  0.1295381E-008  0.3753446E+04  0.7816531E-02  0.8056220E-01
         -2   -1    0    0    0  501 -0.00000000000E+00  0.00000000000E+00  0.14963059797E+04  0.14963059797E+04  0.00000000000E+00 0. -1.
          2   -1    0    0  501    0  0.00000000000E+00 -0.00000000000E+00 -0.23538563859E+04  0.23538563859E+04  0.00000000000E+00 0.  1.
    2000013    1    1    2    0    0  0.26671794127E+03  0.15946861752E+04 -0.35320929608E+03  0.19082503149E+04  0.95000000000E+03 0.  0.
   -2000013    1    1    2    0    0 -0.26671794127E+03 -0.15946861752E+04 -0.50434111008E+03  0.19419120507E+04  0.95000000000E+03 0.  0.
<mgrwt>
<rscale>  0 0.37534461E+04</rscale>
<asrwt>0</asrwt>
<pdfrwt beam="2">  1        2 0.36213175E+00 0.37534461E+04</pdfrwt>
<pdfrwt beam="1">  1       -2 0.23020092E+00 0.37534461E+04</pdfrwt>
<totfact> 0.28988763E-01</totfact>
</mgrwt>
</event>
<event>
 4    1  0.1295381E-008  0.2431357E+04  0.7816531E-02  0.8427857E-01
         -2   -1    0    0    0  501 -0.00000000000E+00  0.00000000000E+00  0.60153073212E+03  0.60153073212E+03  0.00000000000E+00 0. -1.
          2   -1    0    0  501    0  0.00000000000E+00 -0.00000000000E+00 -0.24568550036E+04  0.24568550036E+04  0.00000000000E+00 0.  1.
    2000013    1    1    2    0    0  0.64516288672E+03  0.22745577649E+03 -0.51542149680E+03  0.12791132084E+04  0.95000000000E+03 0.  0.
   -2000013    1    1    2    0    0 -0.64516288672E+03 -0.22745577649E+03 -0.13399027746E+04  0.17792725272E+04  0.95000000000E+03 0.  0.
<mgrwt>
<rscale>  0 0.24313566E+04</rscale>
<asrwt>0</asrwt>
<pdfrwt beam="2">  1        2 0.37797769E+00 0.24313566E+04</pdfrwt>
<pdfrwt beam="1">  1       -2 0.92543190E-01 0.24313566E+04</pdfrwt>
<totfact> 0.32758962E+00</totfact>
</mgrwt>
</event>
<event>
 4    1  0.1295381E-008  0.5365796E+04  0.7816531E-02  0.7774430E-01
          2   -1    0    0  501    0  0.00000000000E+00  0.00000000000E+00  0.24180256693E+04  0.24180256693E+04  0.00000000000E+00 0.  1.
         -2   -1    0    0    0  501 -0.00000000000E+00 -0.00000000000E+00 -0.29767845992E+04  0.29767845992E+04  0.00000000000E+00 0. -1.
    2000013    1    1    2    0    0 -0.17847747897E+04  0.17590465061E+04 -0.40566082858E+03  0.27104845265E+04  0.95000000000E+03 0.  0.
   -2000013    1    1    2    0    0  0.17847747897E+04 -0.17590465061E+04 -0.15309810132E+03  0.26843257420E+04  0.95000000000E+03 0.  0.
<mgrwt>
<rscale>  0 0.53657960E+04</rscale>
<asrwt>0</asrwt>
<pdfrwt beam="1">  1        2 0.37200395E+00 0.53657960E+04</pdfrwt>
<pdfrwt beam="2">  1       -2 0.45796686E+00 0.53657960E+04</pdfrwt>
<totfact> 0.84787780E-03</totfact>
</mgrwt>
</event>
<event>
 4    1  0.1295381E-008  0.2268991E+04  0.7816531E-02  0.8490249E-01
          2   -1    0    0  501    0  0.00000000000E+00  0.00000000000E+00  0.16595687922E+04  0.16595687922E+04  0.00000000000E+00 0.  1.
         -2   -1    0    0    0  501 -0.00000000000E+00 -0.00000000000E+00 -0.77555078952E+03  0.77555078952E+03  0.00000000000E+00 0. -1.
    2000013    1    1    2    0    0  0.61903993743E+03 -0.21947072345E+02  0.41003201626E+03  0.12059512314E+04  0.95000000000E+03 0.  0.
   -2000013    1    1    2    0    0 -0.61903993743E+03  0.21947072345E+02  0.47398598640E+03  0.12291683503E+04  0.95000000000E+03 0.  0.
<mgrwt>
<rscale>  0 0.22689909E+04</rscale>
<asrwt>0</asrwt>
<pdfrwt beam="1">  1        2 0.25531827E+00 0.22689909E+04</pdfrwt>
<pdfrwt beam="2">  1       -2 0.11931551E+00 0.22689909E+04</pdfrwt>
<totfact> 0.50571873E+00</totfact>
</mgrwt>
</event>
<event>
 4    1  0.1295381E-008  0.3170449E+04  0.7816531E-02  0.8196665E-01
          2   -1    0    0  501    0  0.00000000000E+00  0.00000000000E+00  0.19241020012E+04  0.19241020012E+04  0.00000000000E+00 0. -1.
         -2   -1    0    0    0  501 -0.00000000000E+00 -0.00000000000E+00 -0.13060311504E+04  0.13060311504E+04  0.00000000000E+00 0.  1.
    2000013    1    1    2    0    0 -0.10893917594E+04  0.48886347120E+03  0.74686386214E+03  0.16988429967E+04  0.95000000000E+03 0.  0.
   -2000013    1    1    2    0    0  0.10893917594E+04 -0.48886347120E+03 -0.12879301139E+03  0.15312901549E+04  0.95000000000E+03 0.  0.
<mgrwt>
<rscale>  0 0.31704493E+04</rscale>
<asrwt>0</asrwt>
<pdfrwt beam="1">  1        2 0.29601569E+00 0.31704493E+04</pdfrwt>
<pdfrwt beam="2">  1       -2 0.20092787E+00 0.31704493E+04</pdfrwt>
<totfact> 0.81517915E-01</totfact>
</mgrwt>
</event>
<event>
 4    1  0.1295381E-008  0.2336729E+04  0.7816531E-02  0.8463579E-01
          2   -1    0    0  501    0  0.00000000000E+00  0.00000000000E+00  0.19259510331E+04  0.19259510331E+04  0.00000000000E+00 0.  1.
         -2   -1    0    0    0  501 -0.00000000000E+00 -0.00000000000E+00 -0.70878007631E+03  0.70878007631E+03  0.00000000000E+00 0. -1.
    2000013    1    1    2    0    0 -0.48994947736E+03  0.39492243587E+03  0.31768831844E+03  0.11829793271E+04  0.95000000000E+03 0.  0.
   -2000013    1    1    2    0    0  0.48994947736E+03 -0.39492243587E+03  0.89948263836E+03  0.14517517823E+04  0.95000000000E+03 0.  0.
<mgrwt>
<rscale>  0 0.23367291E+04</rscale>
<asrwt>0</asrwt>
<pdfrwt beam="1">  1        2 0.29630016E+00 0.23367291E+04</pdfrwt>
<pdfrwt beam="2">  1       -2 0.10904309E+00 0.23367291E+04</pdfrwt>
<totfact> 0.44556420E+00</totfact>
</mgrwt>
</event>
<event>
 4    1  0.1295381E-008  0.2599223E+04  0.7816531E-02  0.8368465E-01
          2   -1    0    0  501    0  0.00000000000E+00  0.00000000000E+00  0.23173565534E+04  0.23173565534E+04  0.00000000000E+00 0.  1.
         -2   -1    0    0    0  501 -0.00000000000E+00 -0.00000000000E+00 -0.72884349266E+03  0.72884349266E+03  0.00000000000E+00 0. -1.
    2000013    1    1    2    0    0  0.68535470878E+03 -0.55936389513E+03  0.72114992190E+03  0.14849768530E+04  0.95000000000E+03 0.  0.
   -2000013    1    1    2    0    0 -0.68535470878E+03  0.55936389513E+03  0.86736313885E+03  0.15612231931E+04  0.95000000000E+03 0.  0.
<mgrwt>
<rscale>  0 0.25992231E+04</rscale>
<asrwt>0</asrwt>
<pdfrwt beam="1">  1        2 0.35651639E+00 0.25992231E+04</pdfrwt>
<pdfrwt beam="2">  1       -2 0.11212977E+00 0.25992231E+04</pdfrwt>
<totfact> 0.24582314E+00</totfact>
</mgrwt>
</event>
<event>
 4    1  0.1295381E-008  0.2579615E+04  0.7816531E-02  0.8375159E-01
          2   -1    0    0  501    0  0.00000000000E+00  0.00000000000E+00  0.24648610400E+04  0.24648610400E+04  0.00000000000E+00 0.  1.
         -2   -1    0    0    0  501 -0.00000000000E+00 -0.00000000000E+00 -0.67492786044E+03  0.67492786044E+03  0.00000000000E+00 0. -1.
    2000013    1    1    2    0    0  0.83704375939E+03 -0.24582489886E+03  0.90177090431E+03  0.15737734589E+04  0.95000000000E+03 0.  0.
   -2000013    1    1    2    0    0 -0.83704375939E+03  0.24582489886E+03  0.88816227526E+03  0.15660154416E+04  0.95000000000E+03 0.  0.
<mgrwt>
<rscale>  0 0.25796150E+04</rscale>
<asrwt>0</asrwt>
<pdfrwt beam="1">  1        2 0.37920939E+00 0.25796150E+04</pdfrwt>
<pdfrwt beam="2">  1       -2 0.10383506E+00 0.25796150E+04</pdfrwt>
<totfact> 0.24400288E+00</totfact>
</mgrwt>
</event>
<event>
 4    1  0.1295381E-008  0.2957770E+04  0.7816531E-02  0.8255894E-01
         -2   -1    0    0    0  501 -0.00000000000E+00  0.00000000000E+00  0.64758316976E+03  0.64758316976E+03  0.00000000000E+00 0. -1.
          2   -1    0    0  501    0  0.00000000000E+00 -0.00000000000E+00 -0.33773283061E+04  0.33773283061E+04  0.00000000000E+00 0.  1.
    2000013    1    1    2    0    0 -0.66248442883E+03 -0.86309474421E+03 -0.17968739745E+04  0.23054444769E+04  0.95000000000E+03 0.  0.
   -2000013    1    1    2    0    0  0.66248442883E+03  0.86309474421E+03 -0.93287116189E+03  0.17194669990E+04  0.95000000000E+03 0.  0.
<mgrwt>
<rscale>  0 0.29577701E+04</rscale>
<asrwt>0</asrwt>
<pdfrwt beam="2">  1        2 0.51958896E+00 0.29577701E+04</pdfrwt>
<pdfrwt beam="1">  1       -2 0.99628183E-01 0.29577701E+04</pdfrwt>
<totfact> 0.70670900E-01</totfact>
</mgrwt>
</event>
<event>
 4    1  0.1295381E-008  0.1991265E+04  0.7816531E-02  0.8610716E-01
         -2   -1    0    0    0  501 -0.00000000000E+00  0.00000000000E+00  0.27557444178E+03  0.27557444178E+03  0.00000000000E+00 0. -1.
          2   -1    0    0  501    0  0.00000000000E+00 -0.00000000000E+00 -0.35971542199E+04  0.35971542199E+04  0.00000000000E+00 0.  1.
    2000013    1    1    2    0    0  0.26104523248E+03  0.14353810521E+03 -0.16491263933E+04  0.19263607300E+04  0.95000000000E+03 0.  0.
   -2000013    1    1    2    0    0 -0.26104523248E+03 -0.14353810521E+03 -0.16724533848E+04  0.19463679317E+04  0.95000000000E+03 0.  0.
<mgrwt>
<rscale>  0 0.19912647E+04</rscale>
<asrwt>0</asrwt>
<pdfrwt beam="2">  1        2 0.55340834E+00 0.19912647E+04</pdfrwt>
<pdfrwt beam="1">  1       -2 0.42396068E-01 0.19912647E+04</pdfrwt>
<totfact> 0.34233841E+00</totfact>
</mgrwt>
</event>
<event>
 4    1  0.1295381E-008  0.3448976E+04  0.7816531E-02  0.8125990E-01
          2   -1    0    0  501    0  0.00000000000E+00  0.00000000000E+00  0.16784934836E+04  0.16784934836E+04  0.00000000000E+00 0.  1.
         -2   -1    0    0    0  501 -0.00000000000E+00 -0.00000000000E+00 -0.17717425854E+04  0.17717425854E+04  0.00000000000E+00 0. -1.
    2000013    1    1    2    0    0  0.26481170789E+03  0.14026001155E+04 -0.23093644344E+03  0.17300994091E+04  0.95000000000E+03 0.  0.
   -2000013    1    1    2    0    0 -0.26481170789E+03 -0.14026001155E+04  0.13768734172E+03  0.17201366599E+04  0.95000000000E+03 0.  0.
<mgrwt>
<rscale>  0 0.34489757E+04</rscale>
<asrwt>0</asrwt>
<pdfrwt beam="1">  1        2 0.25822977E+00 0.34489757E+04</pdfrwt>
<pdfrwt beam="2">  1       -2 0.27257578E+00 0.34489757E+04</pdfrwt>
<totfact> 0.38882379E-01</totfact>
</mgrwt>
</event>
<event>
 4    1  0.1295381E-008  0.2728950E+04  0.7816531E-02  0.8325673E-01
         -1   -1    0    0    0  501 -0.00000000000E+00  0.00000000000E+00  0.69265958889E+03  0.69265958889E+03  0.00000000000E+00 0.  1.
          1   -1    0    0  501    0  0.00000000000E+00 -0.00000000000E+00 -0.26878879606E+04  0.26878879606E+04  0.00000000000E+00 0. -1.
    2000013    1    1    2    0    0  0.61538089924E+03 -0.60522488403E+03 -0.15710742754E+04  0.20287348743E+04  0.95000000000E+03 0.  0.
   -2000013    1    1    2    0    0 -0.61538089924E+03  0.60522488403E+03 -0.42415409632E+03  0.13518126752E+04  0.95000000000E+03 0.  0.
<mgrwt>
<rscale>  0 0.27289495E+04</rscale>
<asrwt>0</asrwt>
<pdfrwt beam="2">  1        1 0.41352122E+00 0.27289495E+04</pdfrwt>
<pdfrwt beam="1">  1       -1 0.10656301E+00 0.27289495E+04</pdfrwt>
<totfact> 0.71662435E-01</totfact>
</mgrwt>
</event>
<event>
 4    1  0.1295381E-008  0.2733302E+04  0.7816531E-02  0.8324280E-01
          2   -1    0    0  501    0  0.00000000000E+00  0.00000000000E+00  0.31405553674E+04  0.31405553674E+04  0.00000000000E+00 0.  1.
         -2   -1    0    0    0  501 -0.00000000000E+00 -0.00000000000E+00 -0.59471507716E+03  0.59471507716E+03  0.00000000000E+00 0. -1.
    2000013    1    1    2    0    0  0.62258968068E+03 -0.76000145393E+03  0.12675386749E+04  0.18639673851E+04  0.95000000000E+03 0.  0.
   -2000013    1    1    2    0    0 -0.62258968068E+03  0.76000145393E+03  0.12783016154E+04  0.18713030594E+04  0.95000000000E+03 0.  0.
<mgrwt>
<rscale>  0 0.27333025E+04</rscale>
<asrwt>0</asrwt>
<pdfrwt beam="1">  1        2 0.48316236E+00 0.27333025E+04</pdfrwt>
<pdfrwt beam="2">  1       -2 0.91494629E-01 0.27333025E+04</pdfrwt>
<totfact> 0.12610504E+00</totfact>
</mgrwt>
</event>
<event>
 4    1  0.1295381E-008  0.2533200E+04  0.7816531E-02  0.8391252E-01
         -2   -1    0    0    0  501 -0.00000000000E+00  0.00000000000E+00  0.53324386925E+03  0.53324386925E+03  0.00000000000E+00 0. -1.
          2   -1    0    0  501    0  0.00000000000E+00 -0.00000000000E+00 -0.30085210425E+04  0.30085210425E+04  0.00000000000E+00 0.  1.
    2000013    1    1    2    0    0 -0.48763576086E+03 -0.61826836277E+03 -0.16373473532E+04  0.20502318793E+04  0.95000000000E+03 0.  0.
   -2000013    1    1    2    0    0  0.48763576086E+03  0.61826836277E+03 -0.83792982000E+03  0.14915330325E+04  0.95000000000E+03 0.  0.
<mgrwt>
<rscale>  0 0.25331999E+04</rscale>
<asrwt>0</asrwt>
<pdfrwt beam="2">  1        2 0.46284940E+00 0.25331999E+04</pdfrwt>
<pdfrwt beam="1">  1       -2 0.82037517E-01 0.25331999E+04</pdfrwt>
<totfact> 0.19979787E+00</totfact>
</mgrwt>
</event>
<event>
 4    1  0.1295381E-008  0.2134482E+04  0.7816531E-02  0.8546204E-01
          2   -1    0    0  501    0  0.00000000000E+00  0.00000000000E+00  0.27514725731E+04  0.27514725731E+04  0.00000000000E+00 0.  1.
         -2   -1    0    0    0  501 -0.00000000000E+00 -0.00000000000E+00 -0.41396139306E+03  0.41396139306E+03  0.00000000000E+00 0. -1.
    2000013    1    1    2    0    0  0.45072474524E+03  0.14322898788E+03  0.10007371445E+04  0.14586439495E+04  0.95000000000E+03 0.  0.
   -2000013    1    1    2    0    0 -0.45072474524E+03 -0.14322898788E+03  0.13367740355E+04  0.17067900166E+04  0.95000000000E+03 0.  0.
<mgrwt>
<rscale>  0 0.21344821E+04</rscale>
<asrwt>0</asrwt>
<pdfrwt beam="1">  1        2 0.42330346E+00 0.21344821E+04</pdfrwt>
<pdfrwt beam="2">  1       -2 0.63686370E-01 0.21344821E+04</pdfrwt>
<totfact> 0.51892116E+00</totfact>
</mgrwt>
</event>
<event>
 4    1  0.1295381E-008  0.2594817E+04  0.7816531E-02  0.8369964E-01
          2   -1    0    0  501    0  0.00000000000E+00  0.00000000000E+00  0.17580527006E+04  0.17580527006E+04  0.00000000000E+00 0.  1.
         -2   -1    0    0    0  501 -0.00000000000E+00 -0.00000000000E+00 -0.95746211583E+03  0.95746211583E+03  0.00000000000E+00 0. -1.
    2000013    1    1    2    0    0  0.27141849130E+03  0.81043592824E+03  0.63499121408E+03  0.14269506765E+04  0.95000000000E+03 0.  0.
   -2000013    1    1    2    0    0 -0.27141849130E+03 -0.81043592824E+03  0.16559937071E+03  0.12885641400E+04  0.95000000000E+03 0.  0.
<mgrwt>
<rscale>  0 0.25948170E+04</rscale>
<asrwt>0</asrwt>
<pdfrwt beam="1">  1        2 0.27046965E+00 0.25948170E+04</pdfrwt>
<pdfrwt beam="2">  1       -2 0.14730186E+00 0.25948170E+04</pdfrwt>
<totfact> 0.25331244E+00</totfact>
</mgrwt>
</event>
<event>
 4    1  0.1295381E-008  0.2099958E+04  0.7816531E-02  0.8561262E-01
         -1   -1    0    0    0  501 -0.00000000000E+00  0.00000000000E+00  0.35946476539E+03  0.35946476539E+03  0.00000000000E+00 0.  1.
          1   -1    0    0  501    0  0.00000000000E+00 -0.00000000000E+00 -0.30669359235E+04  0.30669359235E+04  0.00000000000E+00 0. -1.
    2000013    1    1    2    0    0 -0.74713791398E+02  0.43506329594E+03 -0.12372902281E+04  0.16211876297E+04  0.95000000000E+03 0.  0.
   -2000013    1    1    2    0    0  0.74713791398E+02 -0.43506329594E+03 -0.14701809300E+04  0.18052130592E+04  0.95000000000E+03 0.  0.
<mgrwt>
<rscale>  0 0.20999575E+04</rscale>
<asrwt>0</asrwt>
<pdfrwt beam="2">  1        1 0.47183629E+00 0.20999575E+04</pdfrwt>
<pdfrwt beam="1">  1       -1 0.55302273E-01 0.20999575E+04</pdfrwt>
<totfact> 0.16255843E+00</totfact>
</mgrwt>
</event>
<event>
 4    1  0.1295381E-008  0.2591358E+04  0.7816531E-02  0.8371142E-01
          2   -1    0    0  501    0  0.00000000000E+00  0.00000000000E+00  0.41443963579E+04  0.41443963579E+04  0.00000000000E+00 0.  1.
         -2   -1    0    0    0  501 -0.00000000000E+00 -0.00000000000E+00 -0.40507335074E+03  0.40507335074E+03  0.00000000000E+00 0. -1.
    2000013    1    1    2    0    0 -0.66825450167E+03 -0.50315798544E+03  0.13839113544E+04  0.18754846504E+04  0.95000000000E+03 0.  0.
   -2000013    1    1    2    0    0  0.66825450167E+03  0.50315798544E+03  0.23554116528E+04  0.26739850582E+04  0.95000000000E+03 0.  0.
<mgrwt>
<rscale>  0 0.25913583E+04</rscale>
<asrwt>0</asrwt>
<pdfrwt beam="1">  1        2 0.63759941E+00 0.25913583E+04</pdfrwt>
<pdfrwt beam="2">  1       -2 0.62318980E-01 0.25913583E+04</pdfrwt>
<totfact> 0.55072196E-01</totfact>
</mgrwt>
</event>
<event>
 4    1  0.1295381E-008  0.2116664E+04  0.7816531E-02  0.8553938E-01
         -2   -1    0    0    0  501 -0.00000000000E+00  0.00000000000E+00  0.11952005420E+04  0.11952005420E+04  0.00000000000E+00 0. -1.
          2   -1    0    0  501    0  0.00000000000E+00 -0.00000000000E+00 -0.93713687261E+03  0.93713687261E+03  0.00000000000E+00 0.  1.
    2000013    1    1    2    0    0 -0.40698165600E+02 -0.34237365095E+03  0.44550841106E+03  0.11044699190E+04  0.95000000000E+03 0.  0.
   -2000013    1    1    2    0    0  0.40698165600E+02  0.34237365095E+03 -0.18744474163E+03  0.10278674957E+04  0.95000000000E+03 0.  0.
<mgrwt>
<rscale>  0 0.21166639E+04</rscale>
<asrwt>0</asrwt>
<pdfrwt beam="2">  1        2 0.14417490E+00 0.21166639E+04</pdfrwt>
<pdfrwt beam="1">  1       -2 0.18387701E+00 0.21166639E+04</pdfrwt>
<totfact> 0.43439833E+00</totfact>
</mgrwt>
</event>
<event>
 4    1  0.1295381E-008  0.2949028E+04  0.7816531E-02  0.8258438E-01
         -2   -1    0    0    0  501 -0.00000000000E+00  0.00000000000E+00  0.67517912078E+03  0.67517912078E+03  0.00000000000E+00 0. -1.
          2   -1    0    0  501    0  0.00000000000E+00 -0.00000000000E+00 -0.32201693834E+04  0.32201693834E+04  0.00000000000E+00 0.  1.
    2000013    1    1    2    0    0  0.88577379289E+03 -0.69665232559E+03 -0.13280897693E+04  0.19839964996E+04  0.95000000000E+03 0.  0.
   -2000013    1    1    2    0    0 -0.88577379289E+03  0.69665232559E+03 -0.12169004933E+04  0.19113520046E+04  0.95000000000E+03 0.  0.
<mgrwt>
<rscale>  0 0.29490277E+04</rscale>
<asrwt>0</asrwt>
<pdfrwt beam="2">  1        2 0.49541067E+00 0.29490277E+04</pdfrwt>
<pdfrwt beam="1">  1       -2 0.10387371E+00 0.29490277E+04</pdfrwt>
<totfact> 0.81517865E-01</totfact>
</mgrwt>
</event>
<event>
 4    1  0.1295381E-008  0.2033980E+04  0.7816531E-02  0.8590897E-01
          2   -1    0    0  501    0  0.00000000000E+00  0.00000000000E+00  0.12204830204E+04  0.12204830204E+04  0.00000000000E+00 0.  1.
         -2   -1    0    0    0  501 -0.00000000000E+00 -0.00000000000E+00 -0.84742574873E+03  0.84742574873E+03  0.00000000000E+00 0. -1.
    2000013    1    1    2    0    0 -0.26622751332E+03 -0.19840115043E+03  0.37354717275E+02  0.10070429386E+04  0.95000000000E+03 0.  0.
   -2000013    1    1    2    0    0  0.26622751332E+03  0.19840115043E+03  0.33570255442E+03  0.10608658305E+04  0.95000000000E+03 0.  0.
<mgrwt>
<rscale>  0 0.20339801E+04</rscale>
<asrwt>0</asrwt>
<pdfrwt beam="1">  1        2 0.18776662E+00 0.20339801E+04</pdfrwt>
<pdfrwt beam="2">  1       -2 0.13037319E+00 0.20339801E+04</pdfrwt>
<totfact> 0.73573403E+00</totfact>
</mgrwt>
</event>
<event>
 4    1  0.1295381E-008  0.2144373E+04  0.7816531E-02  0.8541945E-01
          2   -1    0    0  501    0  0.00000000000E+00  0.00000000000E+00  0.12515486590E+04  0.12515486590E+04  0.00000000000E+00 0.  1.
         -2   -1    0    0    0  501 -0.00000000000E+00 -0.00000000000E+00 -0.91852888190E+03  0.91852888190E+03  0.00000000000E+00 0. -1.
    2000013    1    1    2    0    0  0.34573174453E+03 -0.30695221610E+03 -0.18253262652E+02  0.10566850447E+04  0.95000000000E+03 0.  0.
   -2000013    1    1    2    0    0 -0.34573174453E+03  0.30695221610E+03  0.35127303979E+03  0.11133924962E+04  0.95000000000E+03 0.  0.
<mgrwt>
<rscale>  0 0.21443727E+04</rscale>
<asrwt>0</asrwt>
<pdfrwt beam="1">  1        2 0.19254595E+00 0.21443727E+04</pdfrwt>
<pdfrwt beam="2">  1       -2 0.14131214E+00 0.21443727E+04</pdfrwt>
<totfact> 0.56819326E+00</totfact>
</mgrwt>
</event>
<event>
 4    1  0.1295381E-008  0.3218610E+04  0.7816531E-02  0.8183920E-01
          2   -1    0    0  501    0  0.00000000000E+00  0.00000000000E+00  0.20067498604E+04  0.20067498604E+04  0.00000000000E+00 0.  1.
         -2   -1    0    0    0  501 -0.00000000000E+00 -0.00000000000E+00 -0.12905757879E+04  0.12905757879E+04  0.00000000000E+00 0. -1.
    2000013    1    1    2    0    0  0.67855371729E+03  0.10583495682E+04  0.23254591839E+02  0.15759377309E+04  0.95000000000E+03 0.  0.
   -2000013    1    1    2    0    0 -0.67855371729E+03 -0.10583495682E+04  0.69291948064E+03  0.17213879174E+04  0.95000000000E+03 0.  0.
<mgrwt>
<rscale>  0 0.32186101E+04</rscale>
<asrwt>0</asrwt>
<pdfrwt beam="1">  1        2 0.30873075E+00 0.32186101E+04</pdfrwt>
<pdfrwt beam="2">  1       -2 0.19855012E+00 0.32186101E+04</pdfrwt>
<totfact> 0.75719021E-01</totfact>
</mgrwt>
</event>
<event>
 4    1  0.1295381E-008  0.2633386E+04  0.7816531E-02  0.8356948E-01
         -2   -1    0    0    0  501 -0.00000000000E+00  0.00000000000E+00  0.14577124233E+04  0.14577124233E+04  0.00000000000E+00 0. -1.
          2   -1    0    0  501    0  0.00000000000E+00 -0.00000000000E+00 -0.11893160946E+04  0.11893160946E+04  0.00000000000E+00 0.  1.
    2000013    1    1    2    0    0  0.53944459153E+03  0.35319238703E+03  0.78208008417E+03  0.13892064597E+04  0.95000000000E+03 0.  0.
   -2000013    1    1    2    0    0 -0.53944459153E+03 -0.35319238703E+03 -0.51368375545E+03  0.12578220582E+04  0.95000000000E+03 0.  0.
<mgrwt>
<rscale>  0 0.26333863E+04</rscale>
<asrwt>0</asrwt>
<pdfrwt beam="2">  1        2 0.18297171E+00 0.26333863E+04</pdfrwt>
<pdfrwt beam="1">  1       -2 0.22426345E+00 0.26333863E+04</pdfrwt>
<totfact> 0.15750333E+00</totfact>
</mgrwt>
</event>
<event>
 4    1  0.1295381E-008  0.2726780E+04  0.7816531E-02  0.8326368E-01
          2   -1    0    0  501    0  0.00000000000E+00  0.00000000000E+00  0.20858136026E+04  0.20858136026E+04  0.00000000000E+00 0.  1.
         -2   -1    0    0    0  501 -0.00000000000E+00 -0.00000000000E+00 -0.89117856445E+03  0.89117856445E+03  0.00000000000E+00 0. -1.
    2000013    1    1    2    0    0 -0.30171760652E+03  0.66705168399E+03  0.13051466173E+04  0.17725403115E+04  0.95000000000E+03 0.  0.
   -2000013    1    1    2    0    0  0.30171760652E+03 -0.66705168399E+03 -0.11051157917E+03  0.12044518555E+04  0.95000000000E+03 0.  0.
<mgrwt>
<rscale>  0 0.27267801E+04</rscale>
<asrwt>0</asrwt>
<pdfrwt beam="1">  1        2 0.32089440E+00 0.27267801E+04</pdfrwt>
<pdfrwt beam="2">  1       -2 0.13710440E+00 0.27267801E+04</pdfrwt>
<totfact> 0.19862283E+00</totfact>
</mgrwt>
</event>
<event>
 4    1  0.1295381E-008  0.2356296E+04  0.7816531E-02  0.8456049E-01
          2   -1    0    0  501    0  0.00000000000E+00  0.00000000000E+00  0.17948022541E+04  0.17948022541E+04  0.00000000000E+00 0.  1.
         -2   -1    0    0    0  501 -0.00000000000E+00 -0.00000000000E+00 -0.77336272198E+03  0.77336272198E+03  0.00000000000E+00 0. -1.
    2000013    1    1    2    0    0 -0.20850663339E+03 -0.64238582333E+03  0.32384257973E+03  0.12097555863E+04  0.95000000000E+03 0.  0.
   -2000013    1    1    2    0    0  0.20850663339E+03  0.64238582333E+03  0.69759695236E+03  0.13584093897E+04  0.95000000000E+03 0.  0.
<mgrwt>
<rscale>  0 0.23562964E+04</rscale>
<asrwt>0</asrwt>
<pdfrwt beam="1">  1        2 0.27612342E+00 0.23562964E+04</pdfrwt>
<pdfrwt beam="2">  1       -2 0.11897888E+00 0.23562964E+04</pdfrwt>
<totfact> 0.42522256E+00</totfact>
</mgrwt>
</event>
<event>
 4    1  0.1295381E-008  0.2482595E+04  0.7816531E-02  0.8409213E-01
         -2   -1    0    0    0  501 -0.00000000000E+00  0.00000000000E+00  0.68723220341E+03  0.68723220341E+03  0.00000000000E+00 0. -1.
          2   -1    0    0  501    0  0.00000000000E+00 -0.00000000000E+00 -0.22420651874E+04  0.22420651874E+04  0.00000000000E+00 0.  1.
    2000013    1    1    2    0    0 -0.72667439975E+03 -0.33071532859E+03 -0.81263878898E+03  0.14833442329E+04  0.95000000000E+03 0.  0.
   -2000013    1    1    2    0    0  0.72667439975E+03  0.33071532859E+03 -0.74219419497E+03  0.14459531579E+04  0.95000000000E+03 0.  0.
<mgrwt>
<rscale>  0 0.24825949E+04</rscale>
<asrwt>0</asrwt>
<pdfrwt beam="2">  1        2 0.34493311E+00 0.24825949E+04</pdfrwt>
<pdfrwt beam="1">  1       -2 0.10572803E+00 0.24825949E+04</pdfrwt>
<totfact> 0.31567462E+00</totfact>
</mgrwt>
</event>
<event>
 4    1  0.1295381E-008  0.2668085E+04  0.7816531E-02  0.8345435E-01
         -2   -1    0    0    0  501 -0.00000000000E+00  0.00000000000E+00  0.21097604652E+04  0.21097604652E+04  0.00000000000E+00 0. -1.
          2   -1    0    0  501    0  0.00000000000E+00 -0.00000000000E+00 -0.84354078160E+03  0.84354078160E+03  0.00000000000E+00 0.  1.
    2000013    1    1    2    0    0 -0.30995218964E+03 -0.66461441475E+03 -0.11735099688E+02  0.12001751508E+04  0.95000000000E+03 0.  0.
   -2000013    1    1    2    0    0  0.30995218964E+03  0.66461441475E+03  0.12779547833E+04  0.17531260959E+04  0.95000000000E+03 0.  0.
<mgrwt>
<rscale>  0 0.26680847E+04</rscale>
<asrwt>0</asrwt>
<pdfrwt beam="2">  1        2 0.12977551E+00 0.26680847E+04</pdfrwt>
<pdfrwt beam="1">  1       -2 0.32457853E+00 0.26680847E+04</pdfrwt>
<totfact> 0.63286104E-01</totfact>
</mgrwt>
</event>
<event>
 4    1  0.1295381E-008  0.2360098E+04  0.7816531E-02  0.8454595E-01
          1   -1    0    0  501    0  0.00000000000E+00  0.00000000000E+00  0.13359884540E+04  0.13359884540E+04  0.00000000000E+00 0. -1.
         -1   -1    0    0    0  501 -0.00000000000E+00 -0.00000000000E+00 -0.10423113589E+04  0.10423113589E+04  0.00000000000E+00 0.  1.
    2000013    1    1    2    0    0 -0.68707152596E+03 -0.13380197138E+03  0.15365023518E+03  0.11899910269E+04  0.95000000000E+03 0.  0.
   -2000013    1    1    2    0    0  0.68707152596E+03  0.13380197138E+03  0.14002685997E+03  0.11883087860E+04  0.95000000000E+03 0.  0.
<mgrwt>
<rscale>  0 0.23600983E+04</rscale>
<asrwt>0</asrwt>
<pdfrwt beam="1">  1        1 0.20553669E+00 0.23600983E+04</pdfrwt>
<pdfrwt beam="2">  1       -1 0.16035559E+00 0.23600983E+04</pdfrwt>
<totfact> 0.22269390E+00</totfact>
</mgrwt>
</event>
<event>
 4    1  0.1295381E-008  0.2200148E+04  0.7816531E-02  0.8518367E-01
         -2   -1    0    0    0  501 -0.00000000000E+00  0.00000000000E+00  0.71350012392E+03  0.71350012392E+03  0.00000000000E+00 0.  1.
          2   -1    0    0  501    0  0.00000000000E+00 -0.00000000000E+00 -0.16960926396E+04  0.16960926396E+04  0.00000000000E+00 0. -1.
    2000013    1    1    2    0    0  0.34075261772E+03  0.41689659721E+03 -0.34539580695E+03  0.11453005644E+04  0.95000000000E+03 0.  0.
   -2000013    1    1    2    0    0 -0.34075261772E+03 -0.41689659721E+03 -0.63719670872E+03  0.12642921992E+04  0.95000000000E+03 0.  0.
<mgrwt>
<rscale>  0 0.22001475E+04</rscale>
<asrwt>0</asrwt>
<pdfrwt beam="2">  1        2 0.26093733E+00 0.22001475E+04</pdfrwt>
<pdfrwt beam="1">  1       -2 0.10976925E+00 0.22001475E+04</pdfrwt>
<totfact> 0.59496395E+00</totfact>
</mgrwt>
</event>
<event>
 4    1  0.1295381E-008  0.2083004E+04  0.7816531E-02  0.8568768E-01
         -2   -1    0    0    0  501 -0.00000000000E+00  0.00000000000E+00  0.68048365219E+03  0.68048365219E+03  0.00000000000E+00 0.  1.
          2   -1    0    0  501    0  0.00000000000E+00 -0.00000000000E+00 -0.15940517259E+04  0.15940517259E+04  0.00000000000E+00 0. -1.
    2000013    1    1    2    0    0 -0.12721502227E+03  0.35845372629E+03 -0.66838970890E+03  0.12222591946E+04  0.95000000000E+03 0.  0.
   -2000013    1    1    2    0    0  0.12721502227E+03 -0.35845372629E+03 -0.24517836480E+03  0.10522761835E+04  0.95000000000E+03 0.  0.
<mgrwt>
<rscale>  0 0.20830037E+04</rscale>
<asrwt>0</asrwt>
<pdfrwt beam="2">  1        2 0.24523872E+00 0.20830037E+04</pdfrwt>
<pdfrwt beam="1">  1       -2 0.10468979E+00 0.20830037E+04</pdfrwt>
<totfact> 0.76783181E+00</totfact>
</mgrwt>
</event>
<event>
 4    1  0.1295381E-008  0.2248419E+04  0.7816531E-02  0.8498541E-01
         -2   -1    0    0    0  501 -0.00000000000E+00  0.00000000000E+00  0.64711337324E+03  0.64711337324E+03  0.00000000000E+00 0. -1.
          2   -1    0    0  501    0  0.00000000000E+00 -0.00000000000E+00 -0.19530532330E+04  0.19530532330E+04  0.00000000000E+00 0.  1.
    2000013    1    1    2    0    0  0.52790136599E+03 -0.10328282186E+03 -0.96327524362E+03  0.14559348847E+04  0.95000000000E+03 0.  0.
   -2000013    1    1    2    0    0 -0.52790136599E+03  0.10328282186E+03 -0.34266461618E+03  0.11442317216E+04  0.95000000000E+03 0.  0.
<mgrwt>
<rscale>  0 0.22484189E+04</rscale>
<asrwt>0</asrwt>
<pdfrwt beam="2">  1        2 0.30046972E+00 0.22484189E+04</pdfrwt>
<pdfrwt beam="1">  1       -2 0.99555905E-01 0.22484189E+04</pdfrwt>
<totfact> 0.53920918E+00</totfact>
</mgrwt>
</event>
<event>
 4    1  0.1295381E-008  0.4096473E+04  0.7816531E-02  0.7985363E-01
         -2   -1    0    0    0  501 -0.00000000000E+00  0.00000000000E+00  0.11689701932E+04  0.11689701932E+04  0.00000000000E+00 0. -1.
          2   -1    0    0  501    0  0.00000000000E+00 -0.00000000000E+00 -0.35888619877E+04  0.35888619877E+04  0.00000000000E+00 0.  1.
    2000013    1    1    2    0    0  0.16157138653E+04 -0.25148531724E+03 -0.21237290234E+04  0.28436773945E+04  0.95000000000E+03 0.  0.
   -2000013    1    1    2    0    0 -0.16157138653E+04  0.25148531724E+03 -0.29616277114E+03  0.19141547864E+04  0.95000000000E+03 0.  0.
<mgrwt>
<rscale>  0 0.40964730E+04</rscale>
<asrwt>0</asrwt>
<pdfrwt beam="2">  1        2 0.55213261E+00 0.40964730E+04</pdfrwt>
<pdfrwt beam="1">  1       -2 0.17984157E+00 0.40964730E+04</pdfrwt>
<totfact> 0.99854324E-02</totfact>
</mgrwt>
</event>
<event>
 4    1  0.1295381E-008  0.2232312E+04  0.7816531E-02  0.8505098E-01
          1   -1    0    0  501    0  0.00000000000E+00  0.00000000000E+00  0.10824207354E+04  0.10824207354E+04  0.00000000000E+00 0.  1.
         -1   -1    0    0    0  501 -0.00000000000E+00 -0.00000000000E+00 -0.11509424348E+04  0.11509424348E+04  0.00000000000E+00 0. -1.
    2000013    1    1    2    0    0 -0.19534055757E+02 -0.58508960246E+03 -0.58614345462E+02  0.11174287734E+04  0.95000000000E+03 0.  0.
   -2000013    1    1    2    0    0  0.19534055757E+02  0.58508960246E+03 -0.99073539085E+01  0.11159343968E+04  0.95000000000E+03 0.  0.
<mgrwt>
<rscale>  0 0.22323118E+04</rscale>
<asrwt>0</asrwt>
<pdfrwt beam="1">  1        1 0.16652627E+00 0.22323118E+04</pdfrwt>
<pdfrwt beam="2">  1       -1 0.17706807E+00 0.22323118E+04</pdfrwt>
<totfact> 0.25970788E+00</totfact>
</mgrwt>
</event>
<event>
 4    1  0.1295381E-008  0.3118847E+04  0.7816531E-02  0.8210584E-01
         -2   -1    0    0    0  501 -0.00000000000E+00  0.00000000000E+00  0.80385182224E+03  0.80385182224E+03  0.00000000000E+00 0. -1.
          2   -1    0    0  501    0  0.00000000000E+00 -0.00000000000E+00 -0.30251870368E+04  0.30251870368E+04  0.00000000000E+00 0.  1.
    2000013    1    1    2    0    0  0.61948442971E+03  0.10110756553E+04 -0.15417093999E+04  0.21645791307E+04  0.95000000000E+03 0.  0.
   -2000013    1    1    2    0    0 -0.61948442971E+03 -0.10110756553E+04 -0.67962581468E+03  0.16644597284E+04  0.95000000000E+03 0.  0.
<mgrwt>
<rscale>  0 0.31188473E+04</rscale>
<asrwt>0</asrwt>
<pdfrwt beam="2">  1        2 0.46541339E+00 0.31188473E+04</pdfrwt>
<pdfrwt beam="1">  1       -2 0.12366951E+00 0.31188473E+04</pdfrwt>
<totfact> 0.70043806E-01</totfact>
</mgrwt>
</event>
<event>
 4    1  0.1295381E-008  0.2008971E+04  0.7816531E-02  0.8602438E-01
          2   -1    0    0  501    0  0.00000000000E+00  0.00000000000E+00  0.24209994462E+04  0.24209994462E+04  0.00000000000E+00 0.  1.
         -2   -1    0    0    0  501 -0.00000000000E+00 -0.00000000000E+00 -0.41676640392E+03  0.41676640392E+03  0.00000000000E+00 0. -1.
    2000013    1    1    2    0    0  0.70857175595E+02 -0.27590500337E+03  0.77722893247E+03  0.12600512385E+04  0.95000000000E+03 0.  0.
   -2000013    1    1    2    0    0 -0.70857175595E+02  0.27590500337E+03  0.12270041098E+04  0.15777146116E+04  0.95000000000E+03 0.  0.
<mgrwt>
<rscale>  0 0.20089711E+04</rscale>
<asrwt>0</asrwt>
<pdfrwt beam="1">  1        2 0.37246144E+00 0.20089711E+04</pdfrwt>
<pdfrwt beam="2">  1       -2 0.64117910E-01 0.20089711E+04</pdfrwt>
<totfact> 0.80733654E+00</totfact>
</mgrwt>
</event>
<event>
 4    1  0.1295381E-008  0.3210112E+04  0.7816531E-02  0.8186152E-01
          1   -1    0    0  501    0  0.00000000000E+00  0.00000000000E+00  0.34488503980E+04  0.34488503980E+04  0.00000000000E+00 0.  1.
         -1   -1    0    0    0  501 -0.00000000000E+00 -0.00000000000E+00 -0.74697497557E+03  0.74697497557E+03  0.00000000000E+00 0. -1.
    2000013    1    1    2    0    0  0.15667558390E+03  0.12831101235E+04  0.14199293821E+04  0.21423394403E+04  0.95000000000E+03 0.  0.
   -2000013    1    1    2    0    0 -0.15667558390E+03 -0.12831101235E+04  0.12819460404E+04  0.20534859333E+04  0.95000000000E+03 0.  0.
<mgrwt>
<rscale>  0 0.32101121E+04</rscale>
<asrwt>0</asrwt>
<pdfrwt beam="1">  1        1 0.53059236E+00 0.32101121E+04</pdfrwt>
<pdfrwt beam="2">  1       -1 0.11491923E+00 0.32101121E+04</pdfrwt>
<totfact> 0.15735056E-01</totfact>
</mgrwt>
</event>
<event>
 4    1  0.1295381E-008  0.2753180E+04  0.7816531E-02  0.8317953E-01
          2   -1    0    0  501    0  0.00000000000E+00  0.00000000000E+00  0.26459538098E+04  0.26459538098E+04  0.00000000000E+00 0.  1.
         -2   -1    0    0    0  501 -0.00000000000E+00 -0.00000000000E+00 -0.71618794097E+03  0.71618794097E+03  0.00000000000E+00 0. -1.
    2000013    1    1    2    0    0  0.75034555504E+03  0.65527421615E+03  0.97693873548E+03  0.16879905341E+04  0.95000000000E+03 0.  0.
   -2000013    1    1    2    0    0 -0.75034555504E+03 -0.65527421615E+03  0.95282713339E+03  0.16741512167E+04  0.95000000000E+03 0.  0.
<mgrwt>
<rscale>  0 0.27531801E+04</rscale>
<asrwt>0</asrwt>
<pdfrwt beam="1">  1        2 0.40706981E+00 0.27531801E+04</pdfrwt>
<pdfrwt beam="2">  1       -2 0.11018276E+00 0.27531801E+04</pdfrwt>
<totfact> 0.16337969E+00</totfact>
</mgrwt>
</event>
<event>
 4    1  0.1295381E-008  0.2114622E+04  0.7816531E-02  0.8554829E-01
         -2   -1    0    0    0  501 -0.00000000000E+00  0.00000000000E+00  0.34012449846E+03  0.34012449846E+03  0.00000000000E+00 0. -1.
          2   -1    0    0  501    0  0.00000000000E+00 -0.00000000000E+00 -0.32867582607E+04  0.32867582607E+04  0.00000000000E+00 0.  1.
    2000013    1    1    2    0    0 -0.25418011332E+03 -0.23447362183E+03 -0.20042409105E+04  0.22447866350E+04  0.95000000000E+03 0.  0.
   -2000013    1    1    2    0    0  0.25418011332E+03  0.23447362183E+03 -0.94239285167E+03  0.13820961241E+04  0.95000000000E+03 0.  0.
<mgrwt>
<rscale>  0 0.21146224E+04</rscale>
<asrwt>0</asrwt>
<pdfrwt beam="2">  1        2 0.50565511E+00 0.21146224E+04</pdfrwt>
<pdfrwt beam="1">  1       -2 0.52326847E-01 0.21146224E+04</pdfrwt>
<totfact> 0.36176920E+00</totfact>
</mgrwt>
</event>
<event>
 4    1  0.1295381E-008  0.3379291E+04  0.7816531E-02  0.8143008E-01
          1   -1    0    0  501    0  0.00000000000E+00  0.00000000000E+00  0.25727786737E+04  0.25727786737E+04  0.00000000000E+00 0.  1.
         -1   -1    0    0    0  501 -0.00000000000E+00 -0.00000000000E+00 -0.11096572078E+04  0.11096572078E+04  0.00000000000E+00 0. -1.
    2000013    1    1    2    0    0  0.61025155544E+03  0.46539503084E+03  0.20039549087E+04  0.23467711375E+04  0.95000000000E+03 0.  0.
   -2000013    1    1    2    0    0 -0.61025155544E+03 -0.46539503084E+03 -0.54083344275E+03  0.13356647440E+04  0.95000000000E+03 0.  0.
<mgrwt>
<rscale>  0 0.33792913E+04</rscale>
<asrwt>0</asrwt>
<pdfrwt beam="1">  1        1 0.39581210E+00 0.33792913E+04</pdfrwt>
<pdfrwt beam="2">  1       -1 0.17071649E+00 0.33792913E+04</pdfrwt>
<totfact> 0.24144675E-01</totfact>
</mgrwt>
</event>
<event>
 4    1  0.1295381E-008  0.4974314E+04  0.7816531E-02  0.7832482E-01
         -2   -1    0    0    0  501 -0.00000000000E+00  0.00000000000E+00  0.22825102349E+04  0.22825102349E+04  0.00000000000E+00 0. -1.
          2   -1    0    0  501    0  0.00000000000E+00 -0.00000000000E+00 -0.27101517113E+04  0.27101517113E+04  0.00000000000E+00 0.  1.
    2000013    1    1    2    0    0  0.22505876832E+04  0.46151251158E+03 -0.14068012880E+03  0.24900661872E+04  0.95000000000E+03 0.  0.
   -2000013    1    1    2    0    0 -0.22505876832E+04 -0.46151251158E+03 -0.28696134765E+03  0.25025957590E+04  0.95000000000E+03 0.  0.
<mgrwt>
<rscale>  0 0.49743136E+04</rscale>
<asrwt>0</asrwt>
<pdfrwt beam="2">  1        2 0.41694642E+00 0.49743136E+04</pdfrwt>
<pdfrwt beam="1">  1       -2 0.35115542E+00 0.49743136E+04</pdfrwt>
<totfact> 0.29227079E-02</totfact>
</mgrwt>
</event>
<event>
 4    1  0.1295381E-008  0.2825962E+04  0.7816531E-02  0.8295253E-01
         -2   -1    0    0    0  501 -0.00000000000E+00  0.00000000000E+00  0.85985627588E+03  0.85985627588E+03  0.00000000000E+00 0. -1.
          2   -1    0    0  501    0  0.00000000000E+00 -0.00000000000E+00 -0.23219169431E+04  0.23219169431E+04  0.00000000000E+00 0.  1.
    2000013    1    1    2    0    0  0.11475803228E+03  0.10266674643E+04 -0.91534726252E+03  0.16755823164E+04  0.95000000000E+03 0.  0.
   -2000013    1    1    2    0    0 -0.11475803228E+03 -0.10266674643E+04 -0.54671340474E+03  0.15061909026E+04  0.95000000000E+03 0.  0.
<mgrwt>
<rscale>  0 0.28259617E+04</rscale>
<asrwt>0</asrwt>
<pdfrwt beam="2">  1        2 0.35721798E+00 0.28259617E+04</pdfrwt>
<pdfrwt beam="1">  1       -2 0.13228558E+00 0.28259617E+04</pdfrwt>
<totfact> 0.15891968E+00</totfact>
</mgrwt>
</event>
<event>
 4    1  0.1295381E-008  0.2539972E+04  0.7816531E-02  0.8388882E-01
         -2   -1    0    0    0  501 -0.00000000000E+00  0.00000000000E+00  0.70001168068E+03  0.70001168068E+03  0.00000000000E+00 0. -1.
          2   -1    0    0  501    0  0.00000000000E+00 -0.00000000000E+00 -0.23040529642E+04  0.23040529642E+04  0.00000000000E+00 0.  1.
    2000013    1    1    2    0    0  0.11925037385E+03 -0.83434513146E+03 -0.80603801504E+03  0.15041774270E+04  0.95000000000E+03 0.  0.
   -2000013    1    1    2    0    0 -0.11925037385E+03  0.83434513146E+03 -0.79800326851E+03  0.14998872180E+04  0.95000000000E+03 0.  0.
<mgrwt>
<rscale>  0 0.25399716E+04</rscale>
<asrwt>0</asrwt>
<pdfrwt beam="2">  1        2 0.35446968E+00 0.25399716E+04</pdfrwt>
<pdfrwt beam="1">  1       -2 0.10769411E+00 0.25399716E+04</pdfrwt>
<totfact> 0.27719529E+00</totfact>
</mgrwt>
</event>
<event>
 4    1  0.1295381E-008  0.3001339E+04  0.7816531E-02  0.8243349E-01
          2   -1    0    0  501    0  0.00000000000E+00  0.00000000000E+00  0.33478609215E+04  0.33478609215E+04  0.00000000000E+00 0.  1.
         -2   -1    0    0    0  501 -0.00000000000E+00 -0.00000000000E+00 -0.67267109731E+03  0.67267109731E+03  0.00000000000E+00 0. -1.
    2000013    1    1    2    0    0  0.87433958888E+03 -0.53378408230E+03  0.60373755325E+03  0.15219704979E+04  0.95000000000E+03 0.  0.
   -2000013    1    1    2    0    0 -0.87433958888E+03  0.53378408230E+03  0.20714522710E+04  0.24985615210E+04  0.95000000000E+03 0.  0.
<mgrwt>
<rscale>  0 0.30013392E+04</rscale>
<asrwt>0</asrwt>
<pdfrwt beam="1">  1        2 0.51505552E+00 0.30013392E+04</pdfrwt>
<pdfrwt beam="2">  1       -2 0.10348786E+00 0.30013392E+04</pdfrwt>
<totfact> 0.67335247E-01</totfact>
</mgrwt>
</event>
<event>
 4    1  0.1295381E-008  0.2289615E+04  0.7816531E-02  0.8482027E-01
          2   -1    0    0  501    0  0.00000000000E+00  0.00000000000E+00  0.12343650655E+04  0.12343650655E+04  0.00000000000E+00 0.  1.
         -2   -1    0    0    0  501 -0.00000000000E+00 -0.00000000000E+00 -0.10617480338E+04  0.10617480338E+04  0.00000000000E+00 0. -1.
    2000013    1    1    2    0    0 -0.53773749201E+03  0.13252626847E+03  0.40558265021E+03  0.11720589184E+04  0.95000000000E+03 0.  0.
   -2000013    1    1    2    0    0  0.53773749201E+03 -0.13252626847E+03 -0.23296561845E+03  0.11240541809E+04  0.95000000000E+03 0.  0.
<mgrwt>
<rscale>  0 0.22896154E+04</rscale>
<asrwt>0</asrwt>
<pdfrwt beam="1">  1        2 0.18990232E+00 0.22896154E+04</pdfrwt>
<pdfrwt beam="2">  1       -2 0.16334585E+00 0.22896154E+04</pdfrwt>
<totfact> 0.39027231E+00</totfact>
</mgrwt>
</event>
<event>
 4    1  0.1295381E-008  0.3709586E+04  0.7816531E-02  0.8065841E-01
          2   -1    0    0  501    0  0.00000000000E+00  0.00000000000E+00  0.24732218246E+04  0.24732218246E+04  0.00000000000E+00 0.  1.
         -2   -1    0    0    0  501 -0.00000000000E+00 -0.00000000000E+00 -0.13910024695E+04  0.13910024695E+04  0.00000000000E+00 0. -1.
    2000013    1    1    2    0    0  0.71398496058E+03  0.74382760835E+03  0.18061058750E+04  0.22863885205E+04  0.95000000000E+03 0.  0.
   -2000013    1    1    2    0    0 -0.71398496058E+03 -0.74382760835E+03 -0.72388651992E+03  0.15778357736E+04  0.95000000000E+03 0.  0.
<mgrwt>
<rscale>  0 0.37095863E+04</rscale>
<asrwt>0</asrwt>
<pdfrwt beam="1">  1        2 0.38049567E+00 0.37095863E+04</pdfrwt>
<pdfrwt beam="2">  1       -2 0.21400038E+00 0.37095863E+04</pdfrwt>
<totfact> 0.31450841E-01</totfact>
</mgrwt>
</event>
<event>
 4    1  0.1295381E-008  0.3292692E+04  0.7816531E-02  0.8164758E-01
          2   -1    0    0  501    0  0.00000000000E+00  0.00000000000E+00  0.48954917503E+04  0.48954917503E+04  0.00000000000E+00 0.  1.
         -2   -1    0    0    0  501 -0.00000000000E+00 -0.00000000000E+00 -0.55366335030E+03  0.55366335030E+03  0.00000000000E+00 0. -1.
    2000013    1    1    2    0    0 -0.29974402165E+03 -0.12567818633E+04  0.15547860211E+04  0.22336532188E+04  0.95000000000E+03 0.  0.
   -2000013    1    1    2    0    0  0.29974402165E+03  0.12567818633E+04  0.27870423789E+04  0.32155018819E+04  0.95000000000E+03 0.  0.
<mgrwt>
<rscale>  0 0.32926915E+04</rscale>
<asrwt>0</asrwt>
<pdfrwt beam="1">  1        2 0.75315255E+00 0.32926915E+04</pdfrwt>
<pdfrwt beam="2">  1       -2 0.85178980E-01 0.32926915E+04</pdfrwt>
<totfact> 0.46003505E-02</totfact>
</mgrwt>
</event>
<event>
 4    1  0.1295381E-008  0.2441831E+04  0.7816531E-02  0.8424007E-01
         -4   -1    0    0    0  501 -0.00000000000E+00  0.00000000000E+00  0.22393404138E+04  0.22393404138E+04  0.00000000000E+00 0. -1.
          4   -1    0    0  501    0  0.00000000000E+00 -0.00000000000E+00 -0.66565795927E+03  0.66565795927E+03  0.00000000000E+00 0.  1.
    2000013    1    1    2    0    0 -0.33327266029E+03 -0.32128682496E+02 -0.33979435563E+02  0.10078479649E+04  0.95000000000E+03 0.  0.
   -2000013    1    1    2    0    0  0.33327266029E+03  0.32128682496E+02  0.16076618901E+04  0.18971504081E+04  0.95000000000E+03 0.  0.
<mgrwt>
<rscale>  0 0.24418311E+04</rscale>
<asrwt>0</asrwt>
<pdfrwt beam="2">  1        4 0.10240892E+00 0.24418311E+04</pdfrwt>
<pdfrwt beam="1">  1       -4 0.34451390E+00 0.24418311E+04</pdfrwt>
<totfact> 0.22468248E-02</totfact>
</mgrwt>
</event>
<event>
 4    1  0.1295381E-008  0.2132682E+04  0.7816531E-02  0.8546982E-01
         -2   -1    0    0    0  501 -0.00000000000E+00  0.00000000000E+00  0.16677664346E+04  0.16677664346E+04  0.00000000000E+00 0. -1.
          2   -1    0    0  501    0  0.00000000000E+00 -0.00000000000E+00 -0.68180015750E+03  0.68180015750E+03  0.00000000000E+00 0.  1.
    2000013    1    1    2    0    0  0.28402262170E+03 -0.30526217406E+03  0.76447806250E+03  0.12887127502E+04  0.95000000000E+03 0.  0.
   -2000013    1    1    2    0    0 -0.28402262170E+03  0.30526217406E+03  0.22148821456E+03  0.10608538418E+04  0.95000000000E+03 0.  0.
<mgrwt>
<rscale>  0 0.21326823E+04</rscale>
<asrwt>0</asrwt>
<pdfrwt beam="2">  1        2 0.10489233E+00 0.21326823E+04</pdfrwt>
<pdfrwt beam="1">  1       -2 0.25657945E+00 0.21326823E+04</pdfrwt>
<totfact> 0.22792547E+00</totfact>
</mgrwt>
</event>
<event>
 4    1  0.1295381E-008  0.2946066E+04  0.7816531E-02  0.8259302E-01
         -1   -1    0    0    0  501 -0.00000000000E+00  0.00000000000E+00  0.17752507214E+04  0.17752507214E+04  0.00000000000E+00 0. -1.
          1   -1    0    0  501    0  0.00000000000E+00 -0.00000000000E+00 -0.12222648256E+04  0.12222648256E+04  0.00000000000E+00 0.  1.
    2000013    1    1    2    0    0 -0.17256670938E+03 -0.10458141617E+04  0.66235188184E+03  0.15699415738E+04  0.95000000000E+03 0.  0.
   -2000013    1    1    2    0    0  0.17256670938E+03  0.10458141617E+04 -0.10936598605E+03  0.14275739732E+04  0.95000000000E+03 0.  0.
<mgrwt>
<rscale>  0 0.29460662E+04</rscale>
<asrwt>0</asrwt>
<pdfrwt beam="2">  1        1 0.18804074E+00 0.29460662E+04</pdfrwt>
<pdfrwt beam="1">  1       -1 0.27311549E+00 0.29460662E+04</pdfrwt>
<totfact> 0.43400959E-01</totfact>
</mgrwt>
</event>
<event>
 4    1  0.1295381E-008  0.2672687E+04  0.7816531E-02  0.8343922E-01
         -2   -1    0    0    0  501 -0.00000000000E+00  0.00000000000E+00  0.78704096119E+03  0.78704096119E+03  0.00000000000E+00 0. -1.
          2   -1    0    0  501    0  0.00000000000E+00 -0.00000000000E+00 -0.22690226427E+04  0.22690226427E+04  0.00000000000E+00 0.  1.
    2000013    1    1    2    0    0 -0.29201938249E+03  0.46926098192E+03 -0.16101820396E+04  0.19495300433E+04  0.95000000000E+03 0.  0.
   -2000013    1    1    2    0    0  0.29201938249E+03 -0.46926098192E+03  0.12820035813E+03  0.11065335606E+04  0.95000000000E+03 0.  0.
<mgrwt>
<rscale>  0 0.26726869E+04</rscale>
<asrwt>0</asrwt>
<pdfrwt beam="2">  1        2 0.34908040E+00 0.26726869E+04</pdfrwt>
<pdfrwt beam="1">  1       -2 0.12108323E+00 0.26726869E+04</pdfrwt>
<totfact> 0.21550085E+00</totfact>
</mgrwt>
</event>
<event>
 4    1  0.1295381E-008  0.2524289E+04  0.7816531E-02  0.8394383E-01
         -2   -1    0    0    0  501 -0.00000000000E+00  0.00000000000E+00  0.12475500897E+04  0.12475500897E+04  0.00000000000E+00 0. -1.
          2   -1    0    0  501    0  0.00000000000E+00 -0.00000000000E+00 -0.12769092248E+04  0.12769092248E+04  0.00000000000E+00 0.  1.
    2000013    1    1    2    0    0  0.51169247538E+03  0.62415619784E+03  0.18309141000E+03  0.12599296064E+04  0.95000000000E+03 0.  0.
   -2000013    1    1    2    0    0 -0.51169247538E+03 -0.62415619784E+03 -0.21245054503E+03  0.12645297081E+04  0.95000000000E+03 0.  0.
<mgrwt>
<rscale>  0 0.25242886E+04</rscale>
<asrwt>0</asrwt>
<pdfrwt beam="2">  1        2 0.19644757E+00 0.25242886E+04</pdfrwt>
<pdfrwt beam="1">  1       -2 0.19193078E+00 0.25242886E+04</pdfrwt>
<totfact> 0.22839009E+00</totfact>
</mgrwt>
</event>
<event>
 4    1  0.1295381E-008  0.2714763E+04  0.7816531E-02  0.8330231E-01
          1   -1    0    0  501    0  0.00000000000E+00  0.00000000000E+00  0.15695964077E+04  0.15695964077E+04  0.00000000000E+00 0. -1.
         -1   -1    0    0    0  501 -0.00000000000E+00 -0.00000000000E+00 -0.11738591386E+04  0.11738591386E+04  0.00000000000E+00 0.  1.
    2000013    1    1    2    0    0  0.13045353613E+03 -0.89506049981E+03  0.55060447820E+03  0.14226091223E+04  0.95000000000E+03 0.  0.
   -2000013    1    1    2    0    0 -0.13045353613E+03  0.89506049981E+03 -0.15486720903E+03  0.13208464240E+04  0.95000000000E+03 0.  0.
<mgrwt>
<rscale>  0 0.27147634E+04</rscale>
<asrwt>0</asrwt>
<pdfrwt beam="1">  1        1 0.24147637E+00 0.27147634E+04</pdfrwt>
<pdfrwt beam="2">  1       -1 0.18059371E+00 0.27147634E+04</pdfrwt>
<totfact> 0.10523520E+00</totfact>
</mgrwt>
</event>
<event>
 4    1  0.1295381E-008  0.2302341E+04  0.7816531E-02  0.8476998E-01
          2   -1    0    0  501    0  0.00000000000E+00  0.00000000000E+00  0.46071946106E+03  0.46071946106E+03  0.00000000000E+00 0.  1.
         -2   -1    0    0    0  501 -0.00000000000E+00 -0.00000000000E+00 -0.28763578691E+04  0.28763578691E+04  0.00000000000E+00 0. -1.
    2000013    1    1    2    0    0  0.11566993914E+03  0.53361653189E+03 -0.69625561610E+03  0.12982288014E+04  0.95000000000E+03 0.  0.
   -2000013    1    1    2    0    0 -0.11566993914E+03 -0.53361653189E+03 -0.17193827920E+04  0.20388485288E+04  0.95000000000E+03 0.  0.
<mgrwt>
<rscale>  0 0.23023415E+04</rscale>
<asrwt>0</asrwt>
<pdfrwt beam="1">  1        2 0.70879916E-01 0.23023415E+04</pdfrwt>
<pdfrwt beam="2">  1       -2 0.44251660E+00 0.23023415E+04</pdfrwt>
<totfact> 0.23872412E-01</totfact>
</mgrwt>
</event>
<event>
 4    1  0.1295381E-008  0.3041089E+04  0.7816531E-02  0.8232094E-01
          2   -1    0    0  501    0  0.00000000000E+00  0.00000000000E+00  0.35473241536E+04  0.35473241536E+04  0.00000000000E+00 0.  1.
         -2   -1    0    0    0  501 -0.00000000000E+00 -0.00000000000E+00 -0.65177462654E+03  0.65177462654E+03  0.00000000000E+00 0. -1.
    2000013    1    1    2    0    0 -0.21391436303E+03 -0.11641298329E+04  0.13197387808E+04  0.20112603193E+04  0.95000000000E+03 0.  0.
   -2000013    1    1    2    0    0  0.21391436303E+03  0.11641298329E+04  0.15758107462E+04  0.21878384608E+04  0.95000000000E+03 0.  0.
<mgrwt>
<rscale>  0 0.30410892E+04</rscale>
<asrwt>0</asrwt>
<pdfrwt beam="1">  1        2 0.54574217E+00 0.30410892E+04</pdfrwt>
<pdfrwt beam="2">  1       -2 0.10027302E+00 0.30410892E+04</pdfrwt>
<totfact> 0.52663960E-01</totfact>
</mgrwt>
</event>
<event>
 4    1  0.1295381E-008  0.2052546E+04  0.7816531E-02  0.8582440E-01
          2   -1    0    0  501    0  0.00000000000E+00  0.00000000000E+00  0.10341405491E+04  0.10341405491E+04  0.00000000000E+00 0.  1.
         -2   -1    0    0    0  501 -0.00000000000E+00 -0.00000000000E+00 -0.10184652798E+04  0.10184652798E+04  0.00000000000E+00 0. -1.
    2000013    1    1    2    0    0  0.23760288997E+03  0.27797498454E+03  0.13826773296E+03  0.10272989785E+04  0.95000000000E+03 0.  0.
   -2000013    1    1    2    0    0 -0.23760288997E+03 -0.27797498454E+03 -0.12259246361E+03  0.10253068504E+04  0.95000000000E+03 0.  0.
<mgrwt>
<rscale>  0 0.20525460E+04</rscale>
<asrwt>0</asrwt>
<pdfrwt beam="1">  1        2 0.15909855E+00 0.20525460E+04</pdfrwt>
<pdfrwt beam="2">  1       -2 0.15668697E+00 0.20525460E+04</pdfrwt>
<totfact> 0.59079634E+00</totfact>
</mgrwt>
</event>
<event>
 4    1  0.1295381E-008  0.2189083E+04  0.7816531E-02  0.8522986E-01
          2   -1    0    0  501    0  0.00000000000E+00  0.00000000000E+00  0.21436249958E+04  0.21436249958E+04  0.00000000000E+00 0.  1.
         -2   -1    0    0    0  501 -0.00000000000E+00 -0.00000000000E+00 -0.55887647629E+03  0.55887647629E+03  0.00000000000E+00 0. -1.
    2000013    1    1    2    0    0 -0.50064695307E+03  0.11072253425E+02  0.10535350607E+04  0.15043955898E+04  0.95000000000E+03 0.  0.
   -2000013    1    1    2    0    0  0.50064695307E+03 -0.11072253425E+02  0.53121345882E+03  0.11981058823E+04  0.95000000000E+03 0.  0.
<mgrwt>
<rscale>  0 0.21890834E+04</rscale>
<asrwt>0</asrwt>
<pdfrwt beam="1">  1        2 0.32978846E+00 0.21890834E+04</pdfrwt>
<pdfrwt beam="2">  1       -2 0.85980998E-01 0.21890834E+04</pdfrwt>
<totfact> 0.59638615E+00</totfact>
</mgrwt>
</event>
<event>
 4    1  0.1295381E-008  0.2094950E+04  0.7816531E-02  0.8563471E-01
         -2   -1    0    0    0  501 -0.00000000000E+00  0.00000000000E+00  0.32212467843E+03  0.32212467843E+03  0.00000000000E+00 0. -1.
          2   -1    0    0  501    0  0.00000000000E+00 -0.00000000000E+00 -0.34061476414E+04  0.34061476414E+04  0.00000000000E+00 0.  1.
    2000013    1    1    2    0    0  0.37655258014E+03  0.15830846870E+03 -0.18390089242E+04  0.21098121339E+04  0.95000000000E+03 0.  0.
   -2000013    1    1    2    0    0 -0.37655258014E+03 -0.15830846870E+03 -0.12450140387E+04  0.16184601860E+04  0.95000000000E+03 0.  0.
<mgrwt>
<rscale>  0 0.20949503E+04</rscale>
<asrwt>0</asrwt>
<pdfrwt beam="2">  1        2 0.52402269E+00 0.20949503E+04</pdfrwt>
<pdfrwt beam="1">  1       -2 0.49557645E-01 0.20949503E+04</pdfrwt>
<totfact> 0.33678142E+00</totfact>
</mgrwt>
</event>
<event>
 4    1  0.1295381E-008  0.2308402E+04  0.7816531E-02  0.8474616E-01
          2   -1    0    0  501    0  0.00000000000E+00  0.00000000000E+00  0.22552806936E+04  0.22552806936E+04  0.00000000000E+00 0.  1.
         -2   -1    0    0    0  501 -0.00000000000E+00 -0.00000000000E+00 -0.59069383908E+03  0.59069383908E+03  0.00000000000E+00 0. -1.
    2000013    1    1    2    0    0  0.54250214936E+03 -0.34722394466E+03  0.98231659399E+03  0.15107345699E+04  0.95000000000E+03 0.  0.
   -2000013    1    1    2    0    0 -0.54250214936E+03  0.34722394466E+03  0.68227026051E+03  0.13352399628E+04  0.95000000000E+03 0.  0.
<mgrwt>
<rscale>  0 0.23084024E+04</rscale>
<asrwt>0</asrwt>
<pdfrwt beam="1">  1        2 0.34696626E+00 0.23084024E+04</pdfrwt>
<pdfrwt beam="2">  1       -2 0.90875976E-01 0.23084024E+04</pdfrwt>
<totfact> 0.44990271E+00</totfact>
</mgrwt>
</event>
<event>
 4    1  0.1295381E-008  0.2528457E+04  0.7816531E-02  0.8392917E-01
         -2   -1    0    0    0  501 -0.00000000000E+00  0.00000000000E+00  0.52850084396E+03  0.52850084396E+03  0.00000000000E+00 0. -1.
          2   -1    0    0  501    0  0.00000000000E+00 -0.00000000000E+00 -0.30241658295E+04  0.30241658295E+04  0.00000000000E+00 0.  1.
    2000013    1    1    2    0    0  0.81180203472E+02  0.65802848021E+03 -0.53666230704E+03  0.12767529667E+04  0.95000000000E+03 0.  0.
   -2000013    1    1    2    0    0 -0.81180203472E+02 -0.65802848021E+03 -0.19590026785E+04  0.22759137068E+04  0.95000000000E+03 0.  0.
<mgrwt>
<rscale>  0 0.25284574E+04</rscale>
<asrwt>0</asrwt>
<pdfrwt beam="2">  1        2 0.46525628E+00 0.25284574E+04</pdfrwt>
<pdfrwt beam="1">  1       -2 0.81307822E-01 0.25284574E+04</pdfrwt>
<totfact> 0.19939030E+00</totfact>
</mgrwt>
</event>
<event>
 4    1  0.1295381E-008  0.2745500E+04  0.7816531E-02  0.8320391E-01
          2   -1    0    0  501    0  0.00000000000E+00  0.00000000000E+00  0.10677409382E+04  0.10677409382E+04  0.00000000000E+00 0.  1.
         -2   -1    0    0    0  501 -0.00000000000E+00 -0.00000000000E+00 -0.17648869459E+04  0.17648869459E+04  0.00000000000E+00 0. -1.
    2000013    1    1    2    0    0 -0.93108471598E+03 -0.20001942872E+03 -0.63115449286E+03  0.14858608663E+04  0.95000000000E+03 0.  0.
   -2000013    1    1    2    0    0  0.93108471598E+03  0.20001942872E+03 -0.65991514768E+02  0.13467670178E+04  0.95000000000E+03 0.  0.
<mgrwt>
<rscale>  0 0.27454996E+04</rscale>
<asrwt>0</asrwt>
<pdfrwt beam="1">  1        2 0.16426784E+00 0.27454996E+04</pdfrwt>
<pdfrwt beam="2">  1       -2 0.27152107E+00 0.27454996E+04</pdfrwt>
<totfact> 0.94603753E-01</totfact>
</mgrwt>
</event>
<event>
 4    1  0.1295381E-008  0.2065686E+04  0.7816531E-02  0.8576512E-01
         -2   -1    0    0    0  501 -0.00000000000E+00  0.00000000000E+00  0.92652975677E+03  0.92652975677E+03  0.00000000000E+00 0. -1.
          2   -1    0    0  501    0  0.00000000000E+00 -0.00000000000E+00 -0.11513545372E+04  0.11513545372E+04  0.00000000000E+00 0.  1.
    2000013    1    1    2    0    0 -0.32279899352E+03  0.23028708288E+03 -0.19677007004E+03  0.10480695546E+04  0.95000000000E+03 0.  0.
   -2000013    1    1    2    0    0  0.32279899352E+03 -0.23028708288E+03 -0.28054710409E+02  0.10298147394E+04  0.95000000000E+03 0.  0.
<mgrwt>
<rscale>  0 0.20656856E+04</rscale>
<asrwt>0</asrwt>
<pdfrwt beam="2">  1        2 0.17713147E+00 0.20656856E+04</pdfrwt>
<pdfrwt beam="1">  1       -2 0.14254304E+00 0.20656856E+04</pdfrwt>
<totfact> 0.64178147E+00</totfact>
</mgrwt>
</event>
<event>
 4    1  0.1295381E-008  0.2512495E+04  0.7816531E-02  0.8398548E-01
         -2   -1    0    0    0  501 -0.00000000000E+00  0.00000000000E+00  0.95275478402E+03  0.95275478402E+03  0.00000000000E+00 0. -1.
          2   -1    0    0  501    0  0.00000000000E+00 -0.00000000000E+00 -0.16564151523E+04  0.16564151523E+04  0.00000000000E+00 0.  1.
    2000013    1    1    2    0    0  0.10022937318E+02 -0.80269906105E+03 -0.16830668961E+03  0.12550909862E+04  0.95000000000E+03 0.  0.
   -2000013    1    1    2    0    0 -0.10022937318E+02  0.80269906105E+03 -0.53535367864E+03  0.13540789501E+04  0.95000000000E+03 0.  0.
<mgrwt>
<rscale>  0 0.25124947E+04</rscale>
<asrwt>0</asrwt>
<pdfrwt beam="2">  1        2 0.25483310E+00 0.25124947E+04</pdfrwt>
<pdfrwt beam="1">  1       -2 0.14657766E+00 0.25124947E+04</pdfrwt>
<totfact> 0.29432615E+00</totfact>
</mgrwt>
</event>
<event>
 4    1  0.1295381E-008  0.2452041E+04  0.7816531E-02  0.8420273E-01
          2   -1    0    0  501    0  0.00000000000E+00  0.00000000000E+00  0.20063357298E+04  0.20063357298E+04  0.00000000000E+00 0.  1.
         -2   -1    0    0    0  501 -0.00000000000E+00 -0.00000000000E+00 -0.74918986715E+03  0.74918986715E+03  0.00000000000E+00 0. -1.
    2000013    1    1    2    0    0 -0.51992663757E+03 -0.50210986899E+03  0.94280303034E+03  0.15211231321E+04  0.95000000000E+03 0.  0.
   -2000013    1    1    2    0    0  0.51992663757E+03  0.50210986899E+03  0.31434283230E+03  0.12344024648E+04  0.95000000000E+03 0.  0.
<mgrwt>
<rscale>  0 0.24520411E+04</rscale>
<asrwt>0</asrwt>
<pdfrwt beam="1">  1        2 0.30866703E+00 0.24520411E+04</pdfrwt>
<pdfrwt beam="2">  1       -2 0.11525998E+00 0.24520411E+04</pdfrwt>
<totfact> 0.34796450E+00</totfact>
</mgrwt>
</event>
<event>
 4    1  0.1295381E-008  0.2288685E+04  0.7816531E-02  0.8482396E-01
          2   -1    0    0  501    0  0.00000000000E+00  0.00000000000E+00  0.26980963717E+04  0.26980963717E+04  0.00000000000E+00 0.  1.
         -2   -1    0    0    0  501 -0.00000000000E+00 -0.00000000000E+00 -0.48534956351E+03  0.48534956351E+03  0.00000000000E+00 0. -1.
    2000013    1    1    2    0    0  0.50342840813E+03  0.11022308446E+03  0.58327531544E+03  0.12281284070E+04  0.95000000000E+03 0.  0.
   -2000013    1    1    2    0    0 -0.50342840813E+03 -0.11022308446E+03  0.16294714928E+04  0.19553175282E+04  0.95000000000E+03 0.  0.
<mgrwt>
<rscale>  0 0.22886851E+04</rscale>
<asrwt>0</asrwt>
<pdfrwt beam="1">  1        2 0.41509174E+00 0.22886851E+04</pdfrwt>
<pdfrwt beam="2">  1       -2 0.74669165E-01 0.22886851E+04</pdfrwt>
<totfact> 0.38968418E+00</totfact>
</mgrwt>
</event>
<event>
 4    1  0.1295381E-008  0.2345110E+04  0.7816531E-02  0.8460344E-01
          1   -1    0    0  501    0  0.00000000000E+00  0.00000000000E+00  0.51037125014E+03  0.51037125014E+03  0.00000000000E+00 0.  1.
         -1   -1    0    0    0  501 -0.00000000000E+00 -0.00000000000E+00 -0.26938918514E+04  0.26938918514E+04  0.00000000000E+00 0. -1.
    2000013    1    1    2    0    0  0.30632583921E+03  0.61210720891E+03 -0.11768066824E+04  0.16600857576E+04  0.95000000000E+03 0.  0.
   -2000013    1    1    2    0    0 -0.30632583921E+03 -0.61210720891E+03 -0.10067139188E+04  0.15441773439E+04  0.95000000000E+03 0.  0.
<mgrwt>
<rscale>  0 0.23451098E+04</rscale>
<asrwt>0</asrwt>
<pdfrwt beam="1">  1        1 0.78518653E-01 0.23451098E+04</pdfrwt>
<pdfrwt beam="2">  1       -1 0.41444491E+00 0.23451098E+04</pdfrwt>
<totfact> 0.22092215E-01</totfact>
</mgrwt>
</event>
<event>
 4    1  0.1295381E-008  0.2801692E+04  0.7816531E-02  0.8302743E-01
         -2   -1    0    0    0  501 -0.00000000000E+00  0.00000000000E+00  0.15979952500E+04  0.15979952500E+04  0.00000000000E+00 0. -1.
          2   -1    0    0  501    0  0.00000000000E+00 -0.00000000000E+00 -0.12280193353E+04  0.12280193353E+04  0.00000000000E+00 0.  1.
    2000013    1    1    2    0    0  0.85096647566E+03 -0.73463665281E+02  0.76471944852E+03  0.14889045261E+04  0.95000000000E+03 0.  0.
   -2000013    1    1    2    0    0 -0.85096647566E+03  0.73463665281E+02 -0.39474353383E+03  0.13371100592E+04  0.95000000000E+03 0.  0.
<mgrwt>
<rscale>  0 0.28016917E+04</rscale>
<asrwt>0</asrwt>
<pdfrwt beam="2">  1        2 0.18892605E+00 0.28016917E+04</pdfrwt>
<pdfrwt beam="1">  1       -2 0.24584542E+00 0.28016917E+04</pdfrwt>
<totfact> 0.10808780E+00</totfact>
</mgrwt>
</event>
<event>
 4    1  0.1295381E-008  0.2157528E+04  0.7816531E-02  0.8536317E-01
         -4   -1    0    0    0  501 -0.00000000000E+00  0.00000000000E+00  0.10259361745E+04  0.10259361745E+04  0.00000000000E+00 0. -1.
          4   -1    0    0  501    0  0.00000000000E+00 -0.00000000000E+00 -0.11343117895E+04  0.11343117895E+04  0.00000000000E+00 0.  1.
    2000013    1    1    2    0    0  0.42514351212E+03  0.22187134474E+03 -0.23120890049E+03  0.10890048003E+04  0.95000000000E+03 0.  0.
   -2000013    1    1    2    0    0 -0.42514351212E+03 -0.22187134474E+03  0.12283328548E+03  0.10712431636E+04  0.95000000000E+03 0.  0.
<mgrwt>
<rscale>  0 0.21575277E+04</rscale>
<asrwt>0</asrwt>
<pdfrwt beam="2">  1        4 0.17450951E+00 0.21575277E+04</pdfrwt>
<pdfrwt beam="1">  1       -4 0.15783633E+00 0.21575277E+04</pdfrwt>
<totfact> 0.93542699E-02</totfact>
</mgrwt>
</event>
<event>
 4    1  0.1295381E-008  0.2293465E+04  0.7816531E-02  0.8480502E-01
         -2   -1    0    0    0  501 -0.00000000000E+00  0.00000000000E+00  0.10031855760E+04  0.10031855760E+04  0.00000000000E+00 0. -1.
          2   -1    0    0  501    0  0.00000000000E+00 -0.00000000000E+00 -0.13108193857E+04  0.13108193857E+04  0.00000000000E+00 0.  1.
    2000013    1    1    2    0    0  0.56354542249E+03  0.23197545194E+03  0.50727732977E+02  0.11298094337E+04  0.95000000000E+03 0.  0.
   -2000013    1    1    2    0    0 -0.56354542249E+03 -0.23197545194E+03 -0.35836154269E+03  0.11841955281E+04  0.95000000000E+03 0.  0.
<mgrwt>
<rscale>  0 0.22934647E+04</rscale>
<asrwt>0</asrwt>
<pdfrwt beam="2">  1        2 0.20166452E+00 0.22934647E+04</pdfrwt>
<pdfrwt beam="1">  1       -2 0.15433624E+00 0.22934647E+04</pdfrwt>
<totfact> 0.41047241E+00</totfact>
</mgrwt>
</event>
<event>
 4    1  0.1295381E-008  0.2293658E+04  0.7816531E-02  0.8480426E-01
          2   -1    0    0  501    0  0.00000000000E+00  0.00000000000E+00  0.35754795128E+04  0.35754795128E+04  0.00000000000E+00 0.  1.
         -2   -1    0    0    0  501 -0.00000000000E+00 -0.00000000000E+00 -0.36784349207E+03  0.36784349207E+03  0.00000000000E+00 0. -1.
    2000013    1    1    2    0    0 -0.40449863088E+03 -0.49696845849E+03  0.16829787170E+04  0.20360535733E+04  0.95000000000E+03 0.  0.
   -2000013    1    1    2    0    0  0.40449863088E+03  0.49696845849E+03  0.15246573037E+04  0.19072694316E+04  0.95000000000E+03 0.  0.
<mgrwt>
<rscale>  0 0.22936581E+04</rscale>
<asrwt>0</asrwt>
<pdfrwt beam="1">  1        2 0.55007375E+00 0.22936581E+04</pdfrwt>
<pdfrwt beam="2">  1       -2 0.56591309E-01 0.22936581E+04</pdfrwt>
<totfact> 0.19162007E+00</totfact>
</mgrwt>
</event>
<event>
 4    1  0.1295381E-008  0.2201476E+04  0.7816531E-02  0.8517814E-01
          2   -1    0    0  501    0  0.00000000000E+00  0.00000000000E+00  0.26898542008E+04  0.26898542008E+04  0.00000000000E+00 0.  1.
         -2   -1    0    0    0  501 -0.00000000000E+00 -0.00000000000E+00 -0.45044249604E+03  0.45044249604E+03  0.00000000000E+00 0. -1.
    2000013    1    1    2    0    0 -0.26701309958E+03 -0.45926865564E+03  0.88574649423E+03  0.14033070033E+04  0.95000000000E+03 0.  0.
   -2000013    1    1    2    0    0  0.26701309958E+03  0.45926865564E+03  0.13536652106E+04  0.17369896936E+04  0.95000000000E+03 0.  0.
<mgrwt>
<rscale>  0 0.22014765E+04</rscale>
<asrwt>0</asrwt>
<pdfrwt beam="1">  1        2 0.41382371E+00 0.22014765E+04</pdfrwt>
<pdfrwt beam="2">  1       -2 0.69298847E-01 0.22014765E+04</pdfrwt>
<totfact> 0.46783332E+00</totfact>
</mgrwt>
</event>
<event>
 4    1  0.1295381E-008  0.2725888E+04  0.7816531E-02  0.8326654E-01
         -2   -1    0    0    0  501 -0.00000000000E+00  0.00000000000E+00  0.57001998791E+03  0.57001998791E+03  0.00000000000E+00 0. -1.
          2   -1    0    0  501    0  0.00000000000E+00 -0.00000000000E+00 -0.32588613825E+04  0.32588613825E+04  0.00000000000E+00 0.  1.
    2000013    1    1    2    0    0 -0.75827658369E+03 -0.13404032204E+03 -0.21897340545E+04  0.25080640771E+04  0.95000000000E+03 0.  0.
   -2000013    1    1    2    0    0  0.75827658369E+03  0.13404032204E+03 -0.49910734000E+03  0.13208172933E+04  0.95000000000E+03 0.  0.
<mgrwt>
<rscale>  0 0.27258878E+04</rscale>
<asrwt>0</asrwt>
<pdfrwt beam="2">  1        2 0.50136329E+00 0.27258878E+04</pdfrwt>
<pdfrwt beam="1">  1       -2 0.87695382E-01 0.27258878E+04</pdfrwt>
<totfact> 0.11648233E+00</totfact>
</mgrwt>
</event>
<event>
 4    1  0.1295381E-008  0.3321311E+04  0.7816531E-02  0.8157494E-01
         -2   -1    0    0    0  501 -0.00000000000E+00  0.00000000000E+00  0.17398064884E+04  0.17398064884E+04  0.00000000000E+00 0. -1.
          2   -1    0    0  501    0  0.00000000000E+00 -0.00000000000E+00 -0.15851058220E+04  0.15851058220E+04  0.00000000000E+00 0.  1.
    2000013    1    1    2    0    0 -0.12633616830E+04  0.45127030921E+03  0.31329582809E+03  0.16734341666E+04  0.95000000000E+03 0.  0.
   -2000013    1    1    2    0    0  0.12633616830E+04 -0.45127030921E+03 -0.15859516165E+03  0.16514781438E+04  0.95000000000E+03 0.  0.
<mgrwt>
<rscale>  0 0.33213114E+04</rscale>
<asrwt>0</asrwt>
<pdfrwt beam="2">  1        2 0.24386243E+00 0.33213114E+04</pdfrwt>
<pdfrwt beam="1">  1       -2 0.26766254E+00 0.33213114E+04</pdfrwt>
<totfact> 0.47474851E-01</totfact>
</mgrwt>
</event>
<event>
 4    1  0.1295381E-008  0.2260298E+04  0.7816531E-02  0.8493742E-01
         -2   -1    0    0    0  501 -0.00000000000E+00  0.00000000000E+00  0.15429887711E+04  0.15429887711E+04  0.00000000000E+00 0. -1.
          2   -1    0    0  501    0  0.00000000000E+00 -0.00000000000E+00 -0.82776816388E+03  0.82776816388E+03  0.00000000000E+00 0.  1.
    2000013    1    1    2    0    0  0.43779829356E+03  0.39800496777E+03  0.19289549874E+03  0.11356865649E+04  0.95000000000E+03 0.  0.
   -2000013    1    1    2    0    0 -0.43779829356E+03 -0.39800496777E+03  0.52232510852E+03  0.12350703701E+04  0.95000000000E+03 0.  0.
<mgrwt>
<rscale>  0 0.22602982E+04</rscale>
<asrwt>0</asrwt>
<pdfrwt beam="2">  1        2 0.12734895E+00 0.22602982E+04</pdfrwt>
<pdfrwt beam="1">  1       -2 0.23738289E+00 0.22602982E+04</pdfrwt>
<totfact> 0.23007277E+00</totfact>
</mgrwt>
</event>
<event>
 4    1  0.1295381E-008  0.4952266E+04  0.7816531E-02  0.7835913E-01
          2   -1    0    0  501    0  0.00000000000E+00  0.00000000000E+00  0.41828925699E+04  0.41828925699E+04  0.00000000000E+00 0.  1.
         -2   -1    0    0    0  501 -0.00000000000E+00 -0.00000000000E+00 -0.14657881337E+04  0.14657881337E+04  0.00000000000E+00 0. -1.
    2000013    1    1    2    0    0  0.20304125826E+04  0.11733716571E+03  0.25507056051E+04  0.33977849181E+04  0.95000000000E+03 0.  0.
   -2000013    1    1    2    0    0 -0.20304125826E+04 -0.11733716571E+03  0.16639883113E+03  0.22508957855E+04  0.95000000000E+03 0.  0.
<mgrwt>
<rscale>  0 0.49522659E+04</rscale>
<asrwt>0</asrwt>
<pdfrwt beam="1">  1        2 0.64352193E+00 0.49522659E+04</pdfrwt>
<pdfrwt beam="2">  1       -2 0.22550587E+00 0.49522659E+04</pdfrwt>
<totfact> 0.15943177E-02</totfact>
</mgrwt>
</event>
<event>
 4    1  0.1295381E-008  0.2276215E+04  0.7816531E-02  0.8487359E-01
          2   -1    0    0  501    0  0.00000000000E+00  0.00000000000E+00  0.61935869018E+03  0.61935869018E+03  0.00000000000E+00 0.  1.
         -2   -1    0    0    0  501 -0.00000000000E+00 -0.00000000000E+00 -0.20913388437E+04  0.20913388437E+04  0.00000000000E+00 0. -1.
    2000013    1    1    2    0    0  0.42345107106E+03  0.26559785354E+03 -0.11862241315E+04  0.15998377166E+04  0.95000000000E+03 0.  0.
   -2000013    1    1    2    0    0 -0.42345107106E+03 -0.26559785354E+03 -0.28575602196E+03  0.11108598172E+04  0.95000000000E+03 0.  0.
<mgrwt>
<rscale>  0 0.22762152E+04</rscale>
<asrwt>0</asrwt>
<pdfrwt beam="1">  1        2 0.95285954E-01 0.22762152E+04</pdfrwt>
<pdfrwt beam="2">  1       -2 0.32174443E+00 0.22762152E+04</pdfrwt>
<totfact> 0.10131406E+00</totfact>
</mgrwt>
</event>
<event>
 4    1  0.1295381E-008  0.2710201E+04  0.7816531E-02  0.8331703E-01
          2   -1    0    0  501    0  0.00000000000E+00  0.00000000000E+00  0.27610252261E+04  0.27610252261E+04  0.00000000000E+00 0.  1.
         -2   -1    0    0    0  501 -0.00000000000E+00 -0.00000000000E+00 -0.66507811156E+03  0.66507811156E+03  0.00000000000E+00 0. -1.
    2000013    1    1    2    0    0 -0.50620917853E+03 -0.10332262576E+03  0.15637996270E+02  0.10815118327E+04  0.95000000000E+03 0.  0.
   -2000013    1    1    2    0    0  0.50620917853E+03  0.10332262576E+03  0.20803091183E+04  0.23445915050E+04  0.95000000000E+03 0.  0.
<mgrwt>
<rscale>  0 0.27102011E+04</rscale>
<asrwt>0</asrwt>
<pdfrwt beam="1">  1        2 0.42477311E+00 0.27102011E+04</pdfrwt>
<pdfrwt beam="2">  1       -2 0.10231971E+00 0.27102011E+04</pdfrwt>
<totfact> 0.16729757E+00</totfact>
</mgrwt>
</event>
<event>
 4    1  0.1295381E-008  0.2376841E+04  0.7816531E-02  0.8448225E-01
          1   -1    0    0  501    0  0.00000000000E+00  0.00000000000E+00  0.16765067305E+04  0.16765067305E+04  0.00000000000E+00 0. -1.
         -1   -1    0    0    0  501 -0.00000000000E+00 -0.00000000000E+00 -0.84243253410E+03  0.84243253410E+03  0.00000000000E+00 0.  1.
    2000013    1    1    2    0    0  0.70772901355E+03  0.18937284898E+02  0.31872911565E+03  0.12269177750E+04  0.95000000000E+03 0.  0.
   -2000013    1    1    2    0    0 -0.70772901355E+03 -0.18937284898E+02  0.51534508073E+03  0.12920214896E+04  0.95000000000E+03 0.  0.
<mgrwt>
<rscale>  0 0.23768414E+04</rscale>
<asrwt>0</asrwt>
<pdfrwt beam="1">  1        1 0.25792411E+00 0.23768414E+04</pdfrwt>
<pdfrwt beam="2">  1       -1 0.12960501E+00 0.23768414E+04</pdfrwt>
<totfact> 0.22693111E+00</totfact>
</mgrwt>
</event>
<event>
 4    1  0.1295381E-008  0.2608908E+04  0.7816531E-02  0.8365182E-01
         -2   -1    0    0    0  501 -0.00000000000E+00  0.00000000000E+00  0.97875926332E+03  0.97875926332E+03  0.00000000000E+00 0. -1.
          2   -1    0    0  501    0  0.00000000000E+00 -0.00000000000E+00 -0.17385284357E+04  0.17385284357E+04  0.00000000000E+00 0.  1.
    2000013    1    1    2    0    0  0.18629159517E+03 -0.60477985397E+03  0.27772162185E+03  0.11747733949E+04  0.95000000000E+03 0.  0.
   -2000013    1    1    2    0    0 -0.18629159517E+03  0.60477985397E+03 -0.10374907942E+04  0.15425143041E+04  0.95000000000E+03 0.  0.
<mgrwt>
<rscale>  0 0.26089084E+04</rscale>
<asrwt>0</asrwt>
<pdfrwt beam="2">  1        2 0.26746591E+00 0.26089084E+04</pdfrwt>
<pdfrwt beam="1">  1       -2 0.15057835E+00 0.26089084E+04</pdfrwt>
<totfact> 0.24473924E+00</totfact>
</mgrwt>
</event>
<event>
 4    1  0.1295381E-008  0.3301560E+04  0.7816531E-02  0.8162499E-01
         -2   -1    0    0    0  501 -0.00000000000E+00  0.00000000000E+00  0.23160971341E+04  0.23160971341E+04  0.00000000000E+00 0. -1.
          2   -1    0    0  501    0  0.00000000000E+00 -0.00000000000E+00 -0.11765803092E+04  0.11765803092E+04  0.00000000000E+00 0.  1.
    2000013    1    1    2    0    0 -0.59753326175E+02 -0.13441068504E+04  0.45204929530E+03  0.17079350839E+04  0.95000000000E+03 0.  0.
   -2000013    1    1    2    0    0  0.59753326175E+02  0.13441068504E+04  0.68746752957E+03  0.17847423594E+04  0.95000000000E+03 0.  0.
<mgrwt>
<rscale>  0 0.33015598E+04</rscale>
<asrwt>0</asrwt>
<pdfrwt beam="2">  1        2 0.18101236E+00 0.33015598E+04</pdfrwt>
<pdfrwt beam="1">  1       -2 0.35632264E+00 0.33015598E+04</pdfrwt>
<totfact> 0.23173051E-01</totfact>
</mgrwt>
</event>
<event>
 4    1  0.1295381E-008  0.2739082E+04  0.7816531E-02  0.8322434E-01
         -2   -1    0    0    0  501 -0.00000000000E+00  0.00000000000E+00  0.87799048503E+03  0.87799048503E+03  0.00000000000E+00 0. -1.
          2   -1    0    0  501    0  0.00000000000E+00 -0.00000000000E+00 -0.21362908040E+04  0.21362908040E+04  0.00000000000E+00 0.  1.
    2000013    1    1    2    0    0 -0.47547103696E+03 -0.86058983363E+03 -0.54073203567E+03  0.14702308333E+04  0.95000000000E+03 0.  0.
   -2000013    1    1    2    0    0  0.47547103696E+03  0.86058983363E+03 -0.71756828333E+03  0.15440504558E+04  0.95000000000E+03 0.  0.
<mgrwt>
<rscale>  0 0.27390823E+04</rscale>
<asrwt>0</asrwt>
<pdfrwt beam="2">  1        2 0.32866012E+00 0.27390823E+04</pdfrwt>
<pdfrwt beam="1">  1       -2 0.13507546E+00 0.27390823E+04</pdfrwt>
<totfact> 0.19317391E+00</totfact>
</mgrwt>
</event>
<event>
 4    1  0.1295381E-008  0.3230727E+04  0.7816531E-02  0.8180749E-01
          2   -1    0    0  501    0  0.00000000000E+00  0.00000000000E+00  0.12597480394E+04  0.12597480394E+04  0.00000000000E+00 0.  1.
         -2   -1    0    0    0  501 -0.00000000000E+00 -0.00000000000E+00 -0.20713654215E+04  0.20713654215E+04  0.00000000000E+00 0. -1.
    2000013    1    1    2    0    0  0.62049432345E+03  0.10942136376E+04 -0.41879752429E+02  0.15768863636E+04  0.95000000000E+03 0.  0.
   -2000013    1    1    2    0    0 -0.62049432345E+03 -0.10942136376E+04 -0.76973762965E+03  0.17542270972E+04  0.95000000000E+03 0.  0.
<mgrwt>
<rscale>  0 0.32307266E+04</rscale>
<asrwt>0</asrwt>
<pdfrwt beam="1">  1        2 0.19380739E+00 0.32307266E+04</pdfrwt>
<pdfrwt beam="2">  1       -2 0.31867160E+00 0.32307266E+04</pdfrwt>
<totfact> 0.35766930E-01</totfact>
</mgrwt>
</event>
<event>
 4    1  0.1295381E-008  0.1981243E+04  0.7816531E-02  0.8615441E-01
          2   -1    0    0  501    0  0.00000000000E+00  0.00000000000E+00  0.22526301400E+04  0.22526301400E+04  0.00000000000E+00 0.  1.
         -2   -1    0    0    0  501 -0.00000000000E+00 -0.00000000000E+00 -0.43563767166E+03  0.43563767166E+03  0.00000000000E+00 0. -1.
    2000013    1    1    2    0    0 -0.83554175411E+02  0.26286020719E+03  0.83729328799E+03  0.12960080397E+04  0.95000000000E+03 0.  0.
   -2000013    1    1    2    0    0  0.83554175411E+02 -0.26286020719E+03  0.97969918038E+03  0.13922597720E+04  0.95000000000E+03 0.  0.
<mgrwt>
<rscale>  0 0.19812426E+04</rscale>
<asrwt>0</asrwt>
<pdfrwt beam="1">  1        2 0.34655848E+00 0.19812426E+04</pdfrwt>
<pdfrwt beam="2">  1       -2 0.67021181E-01 0.19812426E+04</pdfrwt>
<totfact> 0.91705689E+00</totfact>
</mgrwt>
</event>
<event>
 4    1  0.1295381E-008  0.2513003E+04  0.7816531E-02  0.8398368E-01
         -2   -1    0    0    0  501 -0.00000000000E+00  0.00000000000E+00  0.91894067017E+03  0.91894067017E+03  0.00000000000E+00 0. -1.
          2   -1    0    0  501    0  0.00000000000E+00 -0.00000000000E+00 -0.17180604117E+04  0.17180604117E+04  0.00000000000E+00 0.  1.
    2000013    1    1    2    0    0  0.10661738698E+03 -0.80006712300E+03 -0.23423953565E+03  0.12684016827E+04  0.95000000000E+03 0.  0.
   -2000013    1    1    2    0    0 -0.10661738698E+03  0.80006712300E+03 -0.56488020590E+03  0.13685993992E+04  0.95000000000E+03 0.  0.
<mgrwt>
<rscale>  0 0.25130027E+04</rscale>
<asrwt>0</asrwt>
<pdfrwt beam="2">  1        2 0.26431698E+00 0.25130027E+04</pdfrwt>
<pdfrwt beam="1">  1       -2 0.14137549E+00 0.25130027E+04</pdfrwt>
<totfact> 0.29896167E+00</totfact>
</mgrwt>
</event>
<event>
 4    1  0.1295381E-008  0.3924137E+04  0.7816531E-02  0.8020028E-01
          2   -1    0    0  501    0  0.00000000000E+00  0.00000000000E+00  0.15297759460E+04  0.15297759460E+04  0.00000000000E+00 0.  1.
         -2   -1    0    0    0  501 -0.00000000000E+00 -0.00000000000E+00 -0.25165202167E+04  0.25165202167E+04  0.00000000000E+00 0. -1.
    2000013    1    1    2    0    0  0.16834941617E+04  0.31917447262E+03 -0.60243413180E+03  0.20497443303E+04  0.95000000000E+03 0.  0.
   -2000013    1    1    2    0    0 -0.16834941617E+04 -0.31917447262E+03 -0.38431013891E+03  0.19965518323E+04  0.95000000000E+03 0.  0.
<mgrwt>
<rscale>  0 0.39241366E+04</rscale>
<asrwt>0</asrwt>
<pdfrwt beam="1">  1        2 0.23535015E+00 0.39241366E+04</pdfrwt>
<pdfrwt beam="2">  1       -2 0.38715695E+00 0.39241366E+04</pdfrwt>
<totfact> 0.87186117E-02</totfact>
</mgrwt>
</event>
<event>
 4    1  0.1295381E-008  0.2147109E+04  0.7816531E-02  0.8540771E-01
          2   -1    0    0  501    0  0.00000000000E+00  0.00000000000E+00  0.82457491074E+03  0.82457491074E+03  0.00000000000E+00 0.  1.
         -2   -1    0    0    0  501 -0.00000000000E+00 -0.00000000000E+00 -0.13977129817E+04  0.13977129817E+04  0.00000000000E+00 0. -1.
    2000013    1    1    2    0    0 -0.22861782355E+02 -0.25333597246E+03 -0.73212701590E+03  0.12260553590E+04  0.95000000000E+03 0.  0.
   -2000013    1    1    2    0    0  0.22861782355E+02  0.25333597246E+03  0.15898894491E+03  0.99623253342E+03  0.95000000000E+03 0.  0.
<mgrwt>
<rscale>  0 0.21471088E+04</rscale>
<asrwt>0</asrwt>
<pdfrwt beam="1">  1        2 0.12685768E+00 0.21471088E+04</pdfrwt>
<pdfrwt beam="2">  1       -2 0.21503276E+00 0.21471088E+04</pdfrwt>
<totfact> 0.32263624E+00</totfact>
</mgrwt>
</event>
<event>
 4    1  0.1295381E-008  0.2424442E+04  0.7816531E-02  0.8430409E-01
         -2   -1    0    0    0  501 -0.00000000000E+00  0.00000000000E+00  0.12891714613E+04  0.12891714613E+04  0.00000000000E+00 0.  1.
          2   -1    0    0  501    0  0.00000000000E+00 -0.00000000000E+00 -0.11398638049E+04  0.11398638049E+04  0.00000000000E+00 0. -1.
    2000013    1    1    2    0    0 -0.57542672582E+03 -0.46573478618E+03  0.21259210701E+03  0.12229964071E+04  0.95000000000E+03 0.  0.
   -2000013    1    1    2    0    0  0.57542672582E+03  0.46573478618E+03 -0.63284450625E+02  0.12060388591E+04  0.95000000000E+03 0.  0.
<mgrwt>
<rscale>  0 0.24244421E+04</rscale>
<asrwt>0</asrwt>
<pdfrwt beam="2">  1        2 0.17536366E+00 0.24244421E+04</pdfrwt>
<pdfrwt beam="1">  1       -2 0.19833407E+00 0.24244421E+04</pdfrwt>
<totfact> 0.25206013E+00</totfact>
</mgrwt>
</event>
<event>
 4    1  0.1295381E-008  0.3011862E+04  0.7816531E-02  0.8240352E-01
         -2   -1    0    0    0  501 -0.00000000000E+00  0.00000000000E+00  0.18802513557E+04  0.18802513557E+04  0.00000000000E+00 0. -1.
          2   -1    0    0  501    0  0.00000000000E+00 -0.00000000000E+00 -0.12061299529E+04  0.12061299529E+04  0.00000000000E+00 0.  1.
    2000013    1    1    2    0    0  0.64829036892E+03  0.56990198775E+03  0.11441118231E+04  0.17194651907E+04  0.95000000000E+03 0.  0.
   -2000013    1    1    2    0    0 -0.64829036892E+03 -0.56990198775E+03 -0.46999042032E+03  0.13669161179E+04  0.95000000000E+03 0.  0.
<mgrwt>
<rscale>  0 0.30118615E+04</rscale>
<asrwt>0</asrwt>
<pdfrwt beam="2">  1        2 0.18555845E+00 0.30118615E+04</pdfrwt>
<pdfrwt beam="1">  1       -2 0.28926944E+00 0.30118615E+04</pdfrwt>
<totfact> 0.59373617E-01</totfact>
</mgrwt>
</event>
<event>
 4    1  0.1295381E-008  0.2919744E+04  0.7816531E-02  0.8267027E-01
         -2   -1    0    0    0  501 -0.00000000000E+00  0.00000000000E+00  0.11729313156E+04  0.11729313156E+04  0.00000000000E+00 0. -1.
          2   -1    0    0  501    0  0.00000000000E+00 -0.00000000000E+00 -0.18170082326E+04  0.18170082326E+04  0.00000000000E+00 0.  1.
    2000013    1    1    2    0    0 -0.38539227127E+03  0.10256336346E+04 -0.49423071458E+03  0.15320625165E+04  0.95000000000E+03 0.  0.
   -2000013    1    1    2    0    0  0.38539227127E+03 -0.10256336346E+04 -0.14984620245E+03  0.14578770317E+04  0.95000000000E+03 0.  0.
<mgrwt>
<rscale>  0 0.29197437E+04</rscale>
<asrwt>0</asrwt>
<pdfrwt beam="2">  1        2 0.27953973E+00 0.29197437E+04</pdfrwt>
<pdfrwt beam="1">  1       -2 0.18045097E+00 0.29197437E+04</pdfrwt>
<totfact> 0.13099412E+00</totfact>
</mgrwt>
</event>
<event>
 4    1  0.1295381E-008  0.2699052E+04  0.7816531E-02  0.8335313E-01
          2   -1    0    0  501    0  0.00000000000E+00  0.00000000000E+00  0.23728839003E+04  0.23728839003E+04  0.00000000000E+00 0.  1.
         -2   -1    0    0    0  501 -0.00000000000E+00 -0.00000000000E+00 -0.76751351351E+03  0.76751351351E+03  0.00000000000E+00 0. -1.
    2000013    1    1    2    0    0 -0.87245930663E+03  0.31360795809E+03  0.10857462728E+04  0.17148994612E+04  0.95000000000E+03 0.  0.
   -2000013    1    1    2    0    0  0.87245930663E+03 -0.31360795809E+03  0.51962411399E+03  0.14254979526E+04  0.95000000000E+03 0.  0.
<mgrwt>
<rscale>  0 0.26990520E+04</rscale>
<asrwt>0</asrwt>
<pdfrwt beam="1">  1        2 0.36505906E+00 0.26990520E+04</pdfrwt>
<pdfrwt beam="2">  1       -2 0.11807900E+00 0.26990520E+04</pdfrwt>
<totfact> 0.19975650E+00</totfact>
</mgrwt>
</event>
<event>
 4    1  0.1295381E-008  0.2799371E+04  0.7816531E-02  0.8303464E-01
         -1   -1    0    0    0  501 -0.00000000000E+00  0.00000000000E+00  0.30949089263E+04  0.30949089263E+04  0.00000000000E+00 0. -1.
          1   -1    0    0  501    0  0.00000000000E+00 -0.00000000000E+00 -0.63301355948E+03  0.63301355948E+03  0.00000000000E+00 0.  1.
    2000013    1    1    2    0    0 -0.89433534468E+03  0.48341268368E+03  0.14333301065E+04  0.19976132573E+04  0.95000000000E+03 0.  0.
   -2000013    1    1    2    0    0  0.89433534468E+03 -0.48341268368E+03  0.10285652603E+04  0.17303092285E+04  0.95000000000E+03 0.  0.
<mgrwt>
<rscale>  0 0.27993709E+04</rscale>
<asrwt>0</asrwt>
<pdfrwt beam="2">  1        1 0.97386703E-01 0.27993709E+04</pdfrwt>
<pdfrwt beam="1">  1       -1 0.47613983E+00 0.27993709E+04</pdfrwt>
<totfact> 0.58676367E-02</totfact>
</mgrwt>
</event>
<event>
 4    1  0.1295381E-008  0.2544278E+04  0.7816531E-02  0.8387379E-01
          2   -1    0    0  501    0  0.00000000000E+00  0.00000000000E+00  0.21745203210E+04  0.21745203210E+04  0.00000000000E+00 0.  1.
         -2   -1    0    0    0  501 -0.00000000000E+00 -0.00000000000E+00 -0.74422720782E+03  0.74422720782E+03  0.00000000000E+00 0. -1.
    2000013    1    1    2    0    0 -0.71583901704E+03 -0.15012471602E+02  0.19804094121E+03  0.12059730872E+04  0.95000000000E+03 0.  0.
   -2000013    1    1    2    0    0  0.71583901704E+03  0.15012471602E+02  0.12322521720E+04  0.17127744416E+04  0.95000000000E+03 0.  0.
<mgrwt>
<rscale>  0 0.25442776E+04</rscale>
<asrwt>0</asrwt>
<pdfrwt beam="1">  1        2 0.33454159E+00 0.25442776E+04</pdfrwt>
<pdfrwt beam="2">  1       -2 0.11449649E+00 0.25442776E+04</pdfrwt>
<totfact> 0.28263910E+00</totfact>
</mgrwt>
</event>
<event>
 4    1  0.1295381E-008  0.2503761E+04  0.7816531E-02  0.8401647E-01
         -2   -1    0    0    0  501 -0.00000000000E+00  0.00000000000E+00  0.16320225613E+04  0.16320225613E+04  0.00000000000E+00 0. -1.
          2   -1    0    0  501    0  0.00000000000E+00 -0.00000000000E+00 -0.96028370313E+03  0.96028370313E+03  0.00000000000E+00 0.  1.
    2000013    1    1    2    0    0  0.45461222334E+03  0.62625540336E+03  0.70208897835E+02  0.12273130787E+04  0.95000000000E+03 0.  0.
   -2000013    1    1    2    0    0 -0.45461222334E+03 -0.62625540336E+03  0.60152996030E+03  0.13649931857E+04  0.95000000000E+03 0.  0.
<mgrwt>
<rscale>  0 0.25037609E+04</rscale>
<asrwt>0</asrwt>
<pdfrwt beam="2">  1        2 0.14773596E+00 0.25037609E+04</pdfrwt>
<pdfrwt beam="1">  1       -2 0.25108039E+00 0.25037609E+04</pdfrwt>
<totfact> 0.15080968E+00</totfact>
</mgrwt>
</event>
<event>
 4    1  0.1295381E-008  0.2498536E+04  0.7816531E-02  0.8403507E-01
          2   -1    0    0  501    0  0.00000000000E+00  0.00000000000E+00  0.25761174408E+04  0.25761174408E+04  0.00000000000E+00 0.  1.
         -2   -1    0    0    0  501 -0.00000000000E+00 -0.00000000000E+00 -0.60582277001E+03  0.60582277001E+03  0.00000000000E+00 0. -1.
    2000013    1    1    2    0    0  0.28372459799E+01  0.71853148849E+03  0.14648359537E+04  0.18879989198E+04  0.95000000000E+03 0.  0.
   -2000013    1    1    2    0    0 -0.28372459799E+01 -0.71853148849E+03  0.50545871709E+03  0.12939412910E+04  0.95000000000E+03 0.  0.
<mgrwt>
<rscale>  0 0.24985361E+04</rscale>
<asrwt>0</asrwt>
<pdfrwt beam="1">  1        2 0.39632575E+00 0.24985361E+04</pdfrwt>
<pdfrwt beam="2">  1       -2 0.93203504E-01 0.24985361E+04</pdfrwt>
<totfact> 0.27315396E+00</totfact>
</mgrwt>
</event>
<event>
 4    1  0.1295381E-008  0.2899260E+04  0.7816531E-02  0.8273098E-01
          1   -1    0    0  501    0  0.00000000000E+00  0.00000000000E+00  0.19612486177E+04  0.19612486177E+04  0.00000000000E+00 0.  1.
         -1   -1    0    0    0  501 -0.00000000000E+00 -0.00000000000E+00 -0.10714741555E+04  0.10714741555E+04  0.00000000000E+00 0. -1.
    2000013    1    1    2    0    0 -0.52855727349E+03  0.74936532376E+03 -0.18099224484E+03  0.13327337966E+04  0.95000000000E+03 0.  0.
   -2000013    1    1    2    0    0  0.52855727349E+03 -0.74936532376E+03  0.10707667070E+04  0.16999889766E+04  0.95000000000E+03 0.  0.
<mgrwt>
<rscale>  0 0.28992600E+04</rscale>
<asrwt>0</asrwt>
<pdfrwt beam="1">  1        1 0.30173056E+00 0.28992600E+04</pdfrwt>
<pdfrwt beam="2">  1       -1 0.16484218E+00 0.28992600E+04</pdfrwt>
<totfact> 0.73028303E-01</totfact>
</mgrwt>
</event>
<event>
 4    1  0.1295381E-008  0.1950124E+04  0.7816531E-02  0.8630301E-01
         -2   -1    0    0    0  501 -0.00000000000E+00  0.00000000000E+00  0.32552627329E+03  0.32552627329E+03  0.00000000000E+00 0. -1.
          2   -1    0    0  501    0  0.00000000000E+00 -0.00000000000E+00 -0.29206414273E+04  0.29206414273E+04  0.00000000000E+00 0.  1.
    2000013    1    1    2    0    0 -0.19976247910E+03 -0.90947250536E+02 -0.12837234934E+04  0.16120243354E+04  0.95000000000E+03 0.  0.
   -2000013    1    1    2    0    0  0.19976247910E+03  0.90947250536E+02 -0.13113916606E+04  0.16341433652E+04  0.95000000000E+03 0.  0.
<mgrwt>
<rscale>  0 0.19501236E+04</rscale>
<asrwt>0</asrwt>
<pdfrwt beam="2">  1        2 0.44932944E+00 0.19501236E+04</pdfrwt>
<pdfrwt beam="1">  1       -2 0.50080966E-01 0.19501236E+04</pdfrwt>
<totfact> 0.68800697E+00</totfact>
</mgrwt>
</event>
<event>
 4    1  0.1295381E-008  0.2233101E+04  0.7816531E-02  0.8504776E-01
          2   -1    0    0  501    0  0.00000000000E+00  0.00000000000E+00  0.12964788350E+04  0.12964788350E+04  0.00000000000E+00 0.  1.
         -2   -1    0    0    0  501 -0.00000000000E+00 -0.00000000000E+00 -0.96159273511E+03  0.96159273511E+03  0.00000000000E+00 0. -1.
    2000013    1    1    2    0    0  0.52261298110E+03  0.15650045159E+03 -0.50766008973E+02  0.10966740204E+04  0.95000000000E+03 0.  0.
   -2000013    1    1    2    0    0 -0.52261298110E+03 -0.15650045159E+03  0.38565210884E+03  0.11613975497E+04  0.95000000000E+03 0.  0.
<mgrwt>
<rscale>  0 0.22331007E+04</rscale>
<asrwt>0</asrwt>
<pdfrwt beam="1">  1        2 0.19945828E+00 0.22331007E+04</pdfrwt>
<pdfrwt beam="2">  1       -2 0.14793734E+00 0.22331007E+04</pdfrwt>
<totfact> 0.47066253E+00</totfact>
</mgrwt>
</event>
<event>
 4    1  0.1295381E-008  0.3572771E+04  0.7816531E-02  0.8096757E-01
          2   -1    0    0  501    0  0.00000000000E+00  0.00000000000E+00  0.22380648327E+04  0.22380648327E+04  0.00000000000E+00 0.  1.
         -2   -1    0    0    0  501 -0.00000000000E+00 -0.00000000000E+00 -0.14258626285E+04  0.14258626285E+04  0.00000000000E+00 0. -1.
    2000013    1    1    2    0    0 -0.12088892527E+04 -0.87704316665E+03  0.65319484544E+03  0.18867383093E+04  0.95000000000E+03 0.  0.
   -2000013    1    1    2    0    0  0.12088892527E+04  0.87704316665E+03  0.15900735867E+03  0.17771891519E+04  0.95000000000E+03 0.  0.
<mgrwt>
<rscale>  0 0.35727709E+04</rscale>
<asrwt>0</asrwt>
<pdfrwt beam="1">  1        2 0.34431767E+00 0.35727709E+04</pdfrwt>
<pdfrwt beam="2">  1       -2 0.21936348E+00 0.35727709E+04</pdfrwt>
<totfact> 0.40050959E-01</totfact>
</mgrwt>
</event>
<event>
 4    1  0.1295381E-008  0.2429815E+04  0.7816531E-02  0.8428425E-01
         -2   -1    0    0    0  501 -0.00000000000E+00  0.00000000000E+00  0.64846076956E+03  0.64846076956E+03  0.00000000000E+00 0. -1.
          2   -1    0    0  501    0  0.00000000000E+00 -0.00000000000E+00 -0.22761588147E+04  0.22761588147E+04  0.00000000000E+00 0.  1.
    2000013    1    1    2    0    0  0.10780474757E+03 -0.73012160083E+03 -0.60958371292E+03  0.13486258631E+04  0.95000000000E+03 0.  0.
   -2000013    1    1    2    0    0 -0.10780474757E+03  0.73012160083E+03 -0.10181143322E+04  0.15759937211E+04  0.95000000000E+03 0.  0.
<mgrwt>
<rscale>  0 0.24298146E+04</rscale>
<asrwt>0</asrwt>
<pdfrwt beam="2">  1        2 0.35017828E+00 0.24298146E+04</pdfrwt>
<pdfrwt beam="1">  1       -2 0.99763196E-01 0.24298146E+04</pdfrwt>
<totfact> 0.34844941E+00</totfact>
</mgrwt>
</event>
<event>
 4    1  0.1295381E-008  0.2468337E+04  0.7816531E-02  0.8414353E-01
          1   -1    0    0  501    0  0.00000000000E+00  0.00000000000E+00  0.37009521166E+04  0.37009521166E+04  0.00000000000E+00 0.  1.
         -1   -1    0    0    0  501 -0.00000000000E+00 -0.00000000000E+00 -0.41156218805E+03  0.41156218805E+03  0.00000000000E+00 0. -1.
    2000013    1    1    2    0    0  0.56237999192E+03 -0.18583419963E+03  0.25102153940E+04  0.27485426919E+04  0.95000000000E+03 0.  0.
   -2000013    1    1    2    0    0 -0.56237999192E+03  0.18583419963E+03  0.77917453457E+03  0.13639716128E+04  0.95000000000E+03 0.  0.
<mgrwt>
<rscale>  0 0.24683371E+04</rscale>
<asrwt>0</asrwt>
<pdfrwt beam="1">  1        1 0.56937723E+00 0.24683371E+04</pdfrwt>
<pdfrwt beam="2">  1       -1 0.63317262E-01 0.24683371E+04</pdfrwt>
<totfact> 0.38879578E-01</totfact>
</mgrwt>
</event>
<event>
 4    1  0.1295381E-008  0.3065072E+04  0.7816531E-02  0.8225390E-01
          1   -1    0    0  501    0  0.00000000000E+00  0.00000000000E+00  0.14827056282E+04  0.14827056282E+04  0.00000000000E+00 0.  1.
         -1   -1    0    0    0  501 -0.00000000000E+00 -0.00000000000E+00 -0.15840407577E+04  0.15840407577E+04  0.00000000000E+00 0. -1.
    2000013    1    1    2    0    0 -0.86305391125E+03 -0.52890221019E+03 -0.70030387617E+03  0.15548392588E+04  0.95000000000E+03 0.  0.
   -2000013    1    1    2    0    0  0.86305391125E+03  0.52890221019E+03  0.59896874666E+03  0.15119071272E+04  0.95000000000E+03 0.  0.
<mgrwt>
<rscale>  0 0.30650717E+04</rscale>
<asrwt>0</asrwt>
<pdfrwt beam="1">  1        1 0.22810856E+00 0.30650717E+04</pdfrwt>
<pdfrwt beam="2">  1       -1 0.24369858E+00 0.30650717E+04</pdfrwt>
<totfact> 0.43636506E-01</totfact>
</mgrwt>
</event>
<event>
 4    1  0.1295381E-008  0.2256399E+04  0.7816531E-02  0.8495314E-01
          2   -1    0    0  501    0  0.00000000000E+00  0.00000000000E+00  0.23047268905E+04  0.23047268905E+04  0.00000000000E+00 0.  1.
         -2   -1    0    0    0  501 -0.00000000000E+00 -0.00000000000E+00 -0.55227111893E+03  0.55227111893E+03  0.00000000000E+00 0. -1.
    2000013    1    1    2    0    0 -0.37736411603E+03  0.62722543341E+02  0.14754867527E+04  0.17960787708E+04  0.95000000000E+03 0.  0.
   -2000013    1    1    2    0    0  0.37736411603E+03 -0.62722543341E+02  0.27696901888E+03  0.10609192386E+04  0.95000000000E+03 0.  0.
<mgrwt>
<rscale>  0 0.22563990E+04</rscale>
<asrwt>0</asrwt>
<pdfrwt beam="1">  1        2 0.35457336E+00 0.22563990E+04</pdfrwt>
<pdfrwt beam="2">  1       -2 0.84964789E-01 0.22563990E+04</pdfrwt>
<totfact> 0.49435723E+00</totfact>
</mgrwt>
</event>
<event>
 4    1  0.1295381E-008  0.2131714E+04  0.7816531E-02  0.8547400E-01
         -2   -1    0    0    0  501 -0.00000000000E+00  0.00000000000E+00  0.71944931936E+03  0.71944931936E+03  0.00000000000E+00 0. -1.
          2   -1    0    0  501    0  0.00000000000E+00 -0.00000000000E+00 -0.15790564951E+04  0.15790564951E+04  0.00000000000E+00 0.  1.
    2000013    1    1    2    0    0  0.45046172174E+03 -0.65874076228E+02 -0.25495536538E+03  0.10838622583E+04  0.95000000000E+03 0.  0.
   -2000013    1    1    2    0    0 -0.45046172174E+03  0.65874076228E+02 -0.60465181033E+03  0.12146435561E+04  0.95000000000E+03 0.  0.
<mgrwt>
<rscale>  0 0.21317140E+04</rscale>
<asrwt>0</asrwt>
<pdfrwt beam="2">  1        2 0.24293177E+00 0.21317140E+04</pdfrwt>
<pdfrwt beam="1">  1       -2 0.11068451E+00 0.21317140E+04</pdfrwt>
<totfact> 0.68167633E+00</totfact>
</mgrwt>
</event>
<event>
 4    1  0.1295381E-008  0.2047497E+04  0.7816531E-02  0.8584731E-01
         -2   -1    0    0    0  501 -0.00000000000E+00  0.00000000000E+00  0.35378729546E+03  0.35378729546E+03  0.00000000000E+00 0. -1.
          2   -1    0    0  501    0  0.00000000000E+00 -0.00000000000E+00 -0.29624033737E+04  0.29624033737E+04  0.00000000000E+00 0.  1.
    2000013    1    1    2    0    0  0.29116450067E+03  0.20135574374E+03 -0.15347274868E+04  0.18393502550E+04  0.95000000000E+03 0.  0.
   -2000013    1    1    2    0    0 -0.29116450067E+03 -0.20135574374E+03 -0.10738885915E+04  0.14768404142E+04  0.95000000000E+03 0.  0.
<mgrwt>
<rscale>  0 0.20474967E+04</rscale>
<asrwt>0</asrwt>
<pdfrwt beam="2">  1        2 0.45575438E+00 0.20474967E+04</pdfrwt>
<pdfrwt beam="1">  1       -2 0.54428813E-01 0.20474967E+04</pdfrwt>
<totfact> 0.54149815E+00</totfact>
</mgrwt>
</event>
<event>
 4    1  0.1295381E-008  0.2417858E+04  0.7816531E-02  0.8432848E-01
         -1   -1    0    0    0  501 -0.00000000000E+00  0.00000000000E+00  0.12698727903E+04  0.12698727903E+04  0.00000000000E+00 0. -1.
          1   -1    0    0  501    0  0.00000000000E+00 -0.00000000000E+00 -0.11509099937E+04  0.11509099937E+04  0.00000000000E+00 0.  1.
    2000013    1    1    2    0    0  0.53362814611E+02 -0.58808201444E+03  0.51864410067E+03  0.12329556962E+04  0.95000000000E+03 0.  0.
   -2000013    1    1    2    0    0 -0.53362814611E+02  0.58808201444E+03 -0.39968130402E+03  0.11878270878E+04  0.95000000000E+03 0.  0.
<mgrwt>
<rscale>  0 0.24178580E+04</rscale>
<asrwt>0</asrwt>
<pdfrwt beam="2">  1        1 0.17706308E+00 0.24178580E+04</pdfrwt>
<pdfrwt beam="1">  1       -1 0.19536504E+00 0.24178580E+04</pdfrwt>
<totfact> 0.16841759E+00</totfact>
</mgrwt>
</event>
<event>
 4    1  0.1295381E-008  0.2383971E+04  0.7816531E-02  0.8445529E-01
         -2   -1    0    0    0  501 -0.00000000000E+00  0.00000000000E+00  0.80134946683E+03  0.80134946683E+03  0.00000000000E+00 0. -1.
          2   -1    0    0  501    0  0.00000000000E+00 -0.00000000000E+00 -0.17730460537E+04  0.17730460537E+04  0.00000000000E+00 0.  1.
    2000013    1    1    2    0    0  0.51977536820E+03 -0.11969405594E+02  0.51947593177E+02  0.10842085835E+04  0.95000000000E+03 0.  0.
   -2000013    1    1    2    0    0 -0.51977536820E+03  0.11969405594E+02 -0.10236441801E+04  0.14901869371E+04  0.95000000000E+03 0.  0.
<mgrwt>
<rscale>  0 0.23839711E+04</rscale>
<asrwt>0</asrwt>
<pdfrwt beam="2">  1        2 0.27277631E+00 0.23839711E+04</pdfrwt>
<pdfrwt beam="1">  1       -2 0.12328453E+00 0.23839711E+04</pdfrwt>
<totfact> 0.39923302E+00</totfact>
</mgrwt>
</event>
<event>
 4    1  0.1295381E-008  0.3382240E+04  0.7816531E-02  0.8142279E-01
         -2   -1    0    0    0  501 -0.00000000000E+00  0.00000000000E+00  0.18303119692E+04  0.18303119692E+04  0.00000000000E+00 0. -1.
          2   -1    0    0  501    0  0.00000000000E+00 -0.00000000000E+00 -0.15625137783E+04  0.15625137783E+04  0.00000000000E+00 0.  1.
    2000013    1    1    2    0    0  0.24113506555E+03  0.10241591429E+04  0.10589236780E+04  0.17694257333E+04  0.95000000000E+03 0.  0.
   -2000013    1    1    2    0    0 -0.24113506555E+03 -0.10241591429E+04 -0.79112548708E+03  0.16234000142E+04  0.95000000000E+03 0.  0.
<mgrwt>
<rscale>  0 0.33822405E+04</rscale>
<asrwt>0</asrwt>
<pdfrwt beam="2">  1        2 0.24038674E+00 0.33822405E+04</pdfrwt>
<pdfrwt beam="1">  1       -2 0.28158646E+00 0.33822405E+04</pdfrwt>
<totfact> 0.39992341E-01</totfact>
</mgrwt>
</event>
<event>
 4    1  0.1295381E-008  0.2506949E+04  0.7816531E-02  0.8400514E-01
          2   -1    0    0  501    0  0.00000000000E+00  0.00000000000E+00  0.13465699936E+04  0.13465699936E+04  0.00000000000E+00 0.  1.
         -2   -1    0    0    0  501 -0.00000000000E+00 -0.00000000000E+00 -0.11668152018E+04  0.11668152018E+04  0.00000000000E+00 0. -1.
    2000013    1    1    2    0    0  0.81536038750E+03  0.61410752236E+02  0.79149602462E+02  0.12559253567E+04  0.95000000000E+03 0.  0.
   -2000013    1    1    2    0    0 -0.81536038750E+03 -0.61410752236E+02  0.10060518938E+03  0.12574598388E+04  0.95000000000E+03 0.  0.
<mgrwt>
<rscale>  0 0.25069490E+04</rscale>
<asrwt>0</asrwt>
<pdfrwt beam="1">  1        2 0.20716461E+00 0.25069490E+04</pdfrwt>
<pdfrwt beam="2">  1       -2 0.17951003E+00 0.25069490E+04</pdfrwt>
<totfact> 0.25304555E+00</totfact>
</mgrwt>
</event>
<event>
 4    1  0.1295381E-008  0.2302647E+04  0.7816531E-02  0.8476878E-01
         -2   -1    0    0    0  501 -0.00000000000E+00  0.00000000000E+00  0.91703053689E+03  0.91703053689E+03  0.00000000000E+00 0. -1.
          2   -1    0    0  501    0  0.00000000000E+00 -0.00000000000E+00 -0.14454764719E+04  0.14454764719E+04  0.00000000000E+00 0.  1.
    2000013    1    1    2    0    0 -0.38650462527E+03 -0.51293372034E+03 -0.36965242984E+03  0.12048359829E+04  0.95000000000E+03 0.  0.
   -2000013    1    1    2    0    0  0.38650462527E+03  0.51293372034E+03 -0.15879350512E+03  0.11576710258E+04  0.95000000000E+03 0.  0.
<mgrwt>
<rscale>  0 0.23026472E+04</rscale>
<asrwt>0</asrwt>
<pdfrwt beam="2">  1        2 0.22238099E+00 0.23026472E+04</pdfrwt>
<pdfrwt beam="1">  1       -2 0.14108162E+00 0.23026472E+04</pdfrwt>
<totfact> 0.43501715E+00</totfact>
</mgrwt>
</event>
<event>
 4    1  0.1295381E-008  0.3633540E+04  0.7816531E-02  0.8082852E-01
         -2   -1    0    0    0  501 -0.00000000000E+00  0.00000000000E+00  0.11642411948E+04  0.11642411948E+04  0.00000000000E+00 0. -1.
          2   -1    0    0  501    0  0.00000000000E+00 -0.00000000000E+00 -0.28350258785E+04  0.28350258785E+04  0.00000000000E+00 0.  1.
    2000013    1    1    2    0    0 -0.91362441490E+03  0.84241046730E+03  0.18161873181E+03  0.15747540540E+04  0.95000000000E+03 0.  0.
   -2000013    1    1    2    0    0  0.91362441490E+03 -0.84241046730E+03 -0.18524034155E+04  0.24245130193E+04  0.95000000000E+03 0.  0.
<mgrwt>
<rscale>  0 0.36335404E+04</rscale>
<asrwt>0</asrwt>
<pdfrwt beam="2">  1        2 0.43615782E+00 0.36335404E+04</pdfrwt>
<pdfrwt beam="1">  1       -2 0.17911403E+00 0.36335404E+04</pdfrwt>
<totfact> 0.32899460E-01</totfact>
</mgrwt>
</event>
<event>
 4    1  0.1295381E-008  0.2678704E+04  0.7816531E-02  0.8341948E-01
          2   -1    0    0  501    0  0.00000000000E+00  0.00000000000E+00  0.17428077201E+04  0.17428077201E+04  0.00000000000E+00 0.  1.
         -2   -1    0    0    0  501 -0.00000000000E+00 -0.00000000000E+00 -0.10292956214E+04  0.10292956214E+04  0.00000000000E+00 0. -1.
    2000013    1    1    2    0    0 -0.90862661181E+03 -0.19601915603E+03  0.52786477930E+03  0.14300933726E+04  0.95000000000E+03 0.  0.
   -2000013    1    1    2    0    0  0.90862661181E+03  0.19601915603E+03  0.18564731939E+03  0.13420099688E+04  0.95000000000E+03 0.  0.
<mgrwt>
<rscale>  0 0.26787044E+04</rscale>
<asrwt>0</asrwt>
<pdfrwt beam="1">  1        2 0.26812426E+00 0.26787044E+04</pdfrwt>
<pdfrwt beam="2">  1       -2 0.15835317E+00 0.26787044E+04</pdfrwt>
<totfact> 0.21141283E+00</totfact>
</mgrwt>
</event>
<event>
 4    1  0.1295381E-008  0.2727071E+04  0.7816531E-02  0.8326274E-01
         -2   -1    0    0    0  501 -0.00000000000E+00  0.00000000000E+00  0.17855683296E+04  0.17855683296E+04  0.00000000000E+00 0. -1.
          2   -1    0    0  501    0  0.00000000000E+00 -0.00000000000E+00 -0.10412535189E+04  0.10412535189E+04  0.00000000000E+00 0.  1.
    2000013    1    1    2    0    0 -0.55231895015E+03 -0.73751921988E+03  0.71239899267E+03  0.15029980529E+04  0.95000000000E+03 0.  0.
   -2000013    1    1    2    0    0  0.55231895015E+03  0.73751921988E+03  0.31915817988E+02  0.13238237956E+04  0.95000000000E+03 0.  0.
<mgrwt>
<rscale>  0 0.27270712E+04</rscale>
<asrwt>0</asrwt>
<pdfrwt beam="2">  1        2 0.16019285E+00 0.27270712E+04</pdfrwt>
<pdfrwt beam="1">  1       -2 0.27470282E+00 0.27270712E+04</pdfrwt>
<totfact> 0.94144297E-01</totfact>
</mgrwt>
</event>
<event>
 4    1  0.1295381E-008  0.2305997E+04  0.7816531E-02  0.8475560E-01
         -2   -1    0    0    0  501 -0.00000000000E+00  0.00000000000E+00  0.18721038017E+04  0.18721038017E+04  0.00000000000E+00 0. -1.
          2   -1    0    0  501    0  0.00000000000E+00 -0.00000000000E+00 -0.71011302883E+03  0.71011302883E+03  0.00000000000E+00 0.  1.
    2000013    1    1    2    0    0  0.46981073362E+03  0.33948193141E+03  0.91867124043E+03  0.14430616602E+04  0.95000000000E+03 0.  0.
   -2000013    1    1    2    0    0 -0.46981073362E+03 -0.33948193141E+03  0.24331953242E+03  0.11391551703E+04  0.95000000000E+03 0.  0.
<mgrwt>
<rscale>  0 0.23059968E+04</rscale>
<asrwt>0</asrwt>
<pdfrwt beam="2">  1        2 0.10924816E+00 0.23059968E+04</pdfrwt>
<pdfrwt beam="1">  1       -2 0.28801597E+00 0.23059968E+04</pdfrwt>
<totfact> 0.13720313E+00</totfact>
</mgrwt>
</event>
<event>
 4    1  0.1295381E-008  0.2512317E+04  0.7816531E-02  0.8398610E-01
         -2   -1    0    0    0  501 -0.00000000000E+00  0.00000000000E+00  0.12248659017E+04  0.12248659017E+04  0.00000000000E+00 0. -1.
          2   -1    0    0  501    0  0.00000000000E+00 -0.00000000000E+00 -0.12882510668E+04  0.12882510668E+04  0.00000000000E+00 0.  1.
    2000013    1    1    2    0    0  0.71450808678E+03 -0.34404087255E+03  0.18412796051E+03  0.12511151162E+04  0.95000000000E+03 0.  0.
   -2000013    1    1    2    0    0 -0.71450808678E+03  0.34404087255E+03 -0.24751312558E+03  0.12620018524E+04  0.95000000000E+03 0.  0.
<mgrwt>
<rscale>  0 0.25123175E+04</rscale>
<asrwt>0</asrwt>
<pdfrwt beam="2">  1        2 0.19819247E+00 0.25123175E+04</pdfrwt>
<pdfrwt beam="1">  1       -2 0.18844091E+00 0.25123175E+04</pdfrwt>
<totfact> 0.23762517E+00</totfact>
</mgrwt>
</event>
<event>
 4    1  0.1295381E-008  0.2169726E+04  0.7816531E-02  0.8531135E-01
          2   -1    0    0  501    0  0.00000000000E+00  0.00000000000E+00  0.48836965507E+03  0.48836965507E+03  0.00000000000E+00 0.  1.
         -2   -1    0    0    0  501 -0.00000000000E+00 -0.00000000000E+00 -0.24099118286E+04  0.24099118286E+04  0.00000000000E+00 0. -1.
    2000013    1    1    2    0    0 -0.45387506868E+03 -0.15574796288E+02 -0.13095679836E+04  0.16803908640E+04  0.95000000000E+03 0.  0.
   -2000013    1    1    2    0    0  0.45387506868E+03  0.15574796288E+02 -0.61197418991E+03  0.12178906196E+04  0.95000000000E+03 0.  0.
<mgrwt>
<rscale>  0 0.21697261E+04</rscale>
<asrwt>0</asrwt>
<pdfrwt beam="1">  1        2 0.75133793E-01 0.21697261E+04</pdfrwt>
<pdfrwt beam="2">  1       -2 0.37075567E+00 0.21697261E+04</pdfrwt>
<totfact> 0.66699354E-01</totfact>
</mgrwt>
</event>
<event>
 4    1  0.1295381E-008  0.2928759E+04  0.7816531E-02  0.8264372E-01
         -2   -1    0    0    0  501 -0.00000000000E+00  0.00000000000E+00  0.10227071116E+04  0.10227071116E+04  0.00000000000E+00 0. -1.
          2   -1    0    0  501    0  0.00000000000E+00 -0.00000000000E+00 -0.20967947018E+04  0.20967947018E+04  0.00000000000E+00 0.  1.
    2000013    1    1    2    0    0  0.35092030389E+03  0.10499038647E+04 -0.67371120282E+03  0.16068073841E+04  0.95000000000E+03 0.  0.
   -2000013    1    1    2    0    0 -0.35092030389E+03 -0.10499038647E+04 -0.40037638745E+03  0.15126944293E+04  0.95000000000E+03 0.  0.
<mgrwt>
<rscale>  0 0.29287587E+04</rscale>
<asrwt>0</asrwt>
<pdfrwt beam="2">  1        2 0.32258380E+00 0.29287587E+04</pdfrwt>
<pdfrwt beam="1">  1       -2 0.15733956E+00 0.29287587E+04</pdfrwt>
<totfact> 0.13393757E+00</totfact>
</mgrwt>
</event>
<event>
 4    1  0.1295381E-008  0.1947297E+04  0.7816531E-02  0.8631665E-01
          2   -1    0    0  501    0  0.00000000000E+00  0.00000000000E+00  0.67318916659E+03  0.67318916659E+03  0.00000000000E+00 0.  1.
         -2   -1    0    0    0  501 -0.00000000000E+00 -0.00000000000E+00 -0.14082095901E+04  0.14082095901E+04  0.00000000000E+00 0. -1.
    2000013    1    1    2    0    0  0.13089655258E+03  0.15556525571E+03 -0.43642497476E+03  0.10650357810E+04  0.95000000000E+03 0.  0.
   -2000013    1    1    2    0    0 -0.13089655258E+03 -0.15556525571E+03 -0.29859544872E+03  0.10163629756E+04  0.95000000000E+03 0.  0.
<mgrwt>
<rscale>  0 0.19472970E+04</rscale>
<asrwt>0</asrwt>
<pdfrwt beam="1">  1        2 0.10356757E+00 0.19472970E+04</pdfrwt>
<pdfrwt beam="2">  1       -2 0.21664763E+00 0.19472970E+04</pdfrwt>
<totfact> 0.41661119E+00</totfact>
</mgrwt>
</event>
<event>
 4    1  0.1295381E-008  0.2178119E+04  0.7816531E-02  0.8527591E-01
          1   -1    0    0  501    0  0.00000000000E+00  0.00000000000E+00  0.27785477345E+04  0.27785477345E+04  0.00000000000E+00 0.  1.
         -1   -1    0    0    0  501 -0.00000000000E+00 -0.00000000000E+00 -0.42685985315E+03  0.42685985315E+03  0.00000000000E+00 0. -1.
    2000013    1    1    2    0    0 -0.16512079240E+03 -0.44182198834E+03  0.81214051015E+03  0.13358681648E+04  0.95000000000E+03 0.  0.
   -2000013    1    1    2    0    0  0.16512079240E+03  0.44182198834E+03  0.15395473712E+04  0.18695394229E+04  0.95000000000E+03 0.  0.
<mgrwt>
<rscale>  0 0.21781189E+04</rscale>
<asrwt>0</asrwt>
<pdfrwt beam="1">  1        1 0.42746887E+00 0.21781189E+04</pdfrwt>
<pdfrwt beam="2">  1       -1 0.65670748E-01 0.21781189E+04</pdfrwt>
<totfact> 0.18543128E+00</totfact>
</mgrwt>
</event>
<event>
 4    1  0.1295381E-008  0.2523699E+04  0.7816531E-02  0.8394591E-01
          2   -1    0    0  501    0  0.00000000000E+00  0.00000000000E+00  0.21362857315E+04  0.21362857315E+04  0.00000000000E+00 0.  1.
         -2   -1    0    0    0  501 -0.00000000000E+00 -0.00000000000E+00 -0.74534227774E+03  0.74534227774E+03  0.00000000000E+00 0. -1.
    2000013    1    1    2    0    0  0.52081099561E+03 -0.38634704284E+03  0.10297900276E+03  0.11548215471E+04  0.95000000000E+03 0.  0.
   -2000013    1    1    2    0    0 -0.52081099561E+03  0.38634704284E+03  0.12879644510E+04  0.17268064621E+04  0.95000000000E+03 0.  0.
<mgrwt>
<rscale>  0 0.25236989E+04</rscale>
<asrwt>0</asrwt>
<pdfrwt beam="1">  1        2 0.32865934E+00 0.25236989E+04</pdfrwt>
<pdfrwt beam="2">  1       -2 0.11466804E+00 0.25236989E+04</pdfrwt>
<totfact> 0.29637700E+00</totfact>
</mgrwt>
</event>
<event>
 4    1  0.1295381E-008  0.2164798E+04  0.7816531E-02  0.8533225E-01
         -2   -1    0    0    0  501 -0.00000000000E+00  0.00000000000E+00  0.30720173355E+04  0.30720173355E+04  0.00000000000E+00 0. -1.
          2   -1    0    0  501    0  0.00000000000E+00 -0.00000000000E+00 -0.38137385329E+03  0.38137385329E+03  0.00000000000E+00 0.  1.
    2000013    1    1    2    0    0 -0.46846887082E+03 -0.22275743000E+03  0.13481454175E+04  0.17288956077E+04  0.95000000000E+03 0.  0.
   -2000013    1    1    2    0    0  0.46846887082E+03  0.22275743000E+03  0.13424980647E+04  0.17244955811E+04  0.95000000000E+03 0.  0.
<mgrwt>
<rscale>  0 0.21647975E+04</rscale>
<asrwt>0</asrwt>
<pdfrwt beam="2">  1        2 0.58672903E-01 0.21647975E+04</pdfrwt>
<pdfrwt beam="1">  1       -2 0.47261803E+00 0.21647975E+04</pdfrwt>
<totfact> 0.18943692E-01</totfact>
</mgrwt>
</event>
<event>
 4    1  0.1295381E-008  0.2319916E+04  0.7816531E-02  0.8470110E-01
          2   -1    0    0  501    0  0.00000000000E+00  0.00000000000E+00  0.17415034362E+04  0.17415034362E+04  0.00000000000E+00 0.  1.
         -2   -1    0    0    0  501 -0.00000000000E+00 -0.00000000000E+00 -0.77261004573E+03  0.77261004573E+03  0.00000000000E+00 0. -1.
    2000013    1    1    2    0    0  0.38903074970E+01 -0.59046688635E+03  0.81730012920E+03  0.13853323715E+04  0.95000000000E+03 0.  0.
   -2000013    1    1    2    0    0 -0.38903074970E+01  0.59046688635E+03  0.15159326126E+03  0.11287811104E+04  0.95000000000E+03 0.  0.
<mgrwt>
<rscale>  0 0.23199164E+04</rscale>
<asrwt>0</asrwt>
<pdfrwt beam="1">  1        2 0.26792361E+00 0.23199164E+04</pdfrwt>
<pdfrwt beam="2">  1       -2 0.11886308E+00 0.23199164E+04</pdfrwt>
<totfact> 0.45769236E+00</totfact>
</mgrwt>
</event>
<event>
 4    1  0.1295381E-008  0.2714055E+04  0.7816531E-02  0.8330459E-01
         -2   -1    0    0    0  501 -0.00000000000E+00  0.00000000000E+00  0.56111301046E+03  0.56111301046E+03  0.00000000000E+00 0. -1.
          2   -1    0    0  501    0  0.00000000000E+00 -0.00000000000E+00 -0.32819133651E+04  0.32819133651E+04  0.00000000000E+00 0.  1.
    2000013    1    1    2    0    0 -0.12829640303E+03  0.59936845649E+03 -0.24231545811E+04  0.26739260718E+04  0.95000000000E+03 0.  0.
   -2000013    1    1    2    0    0  0.12829640303E+03 -0.59936845649E+03 -0.29764577352E+03  0.11691003037E+04  0.95000000000E+03 0.  0.
<mgrwt>
<rscale>  0 0.27140555E+04</rscale>
<asrwt>0</asrwt>
<pdfrwt beam="2">  1        2 0.50490976E+00 0.27140555E+04</pdfrwt>
<pdfrwt beam="1">  1       -2 0.86325076E-01 0.27140555E+04</pdfrwt>
<totfact> 0.11670432E+00</totfact>
</mgrwt>
</event>
<event>
 4    1  0.1295381E-008  0.2053992E+04  0.7816531E-02  0.8581786E-01
         -1   -1    0    0    0  501 -0.00000000000E+00  0.00000000000E+00  0.42112428780E+03  0.42112428780E+03  0.00000000000E+00 0. -1.
          1   -1    0    0  501    0  0.00000000000E+00 -0.00000000000E+00 -0.25045346343E+04  0.25045346343E+04  0.00000000000E+00 0.  1.
    2000013    1    1    2    0    0 -0.33300179308E+03 -0.20263660698E+03 -0.10183620904E+04  0.14462064638E+04  0.95000000000E+03 0.  0.
   -2000013    1    1    2    0    0  0.33300179308E+03  0.20263660698E+03 -0.10650482561E+04  0.14794524584E+04  0.95000000000E+03 0.  0.
<mgrwt>
<rscale>  0 0.20539916E+04</rscale>
<asrwt>0</asrwt>
<pdfrwt beam="2">  1        1 0.38531302E+00 0.20539916E+04</pdfrwt>
<pdfrwt beam="1">  1       -1 0.64788353E-01 0.20539916E+04</pdfrwt>
<totfact> 0.30008212E+00</totfact>
</mgrwt>
</event>
<event>
 4    1  0.1295381E-008  0.2246535E+04  0.7816531E-02  0.8499305E-01
          2   -1    0    0  501    0  0.00000000000E+00  0.00000000000E+00  0.10165358428E+04  0.10165358428E+04  0.00000000000E+00 0.  1.
         -2   -1    0    0    0  501 -0.00000000000E+00 -0.00000000000E+00 -0.12412058846E+04  0.12412058846E+04  0.00000000000E+00 0. -1.
    2000013    1    1    2    0    0  0.30049412088E+03  0.43790679155E+03  0.16684775187E+03  0.11010891186E+04  0.95000000000E+03 0.  0.
   -2000013    1    1    2    0    0 -0.30049412088E+03 -0.43790679155E+03 -0.39151779359E+03  0.11566526088E+04  0.95000000000E+03 0.  0.
<mgrwt>
<rscale>  0 0.22465354E+04</rscale>
<asrwt>0</asrwt>
<pdfrwt beam="1">  1        2 0.15639013E+00 0.22465354E+04</pdfrwt>
<pdfrwt beam="2">  1       -2 0.19095475E+00 0.22465354E+04</pdfrwt>
<totfact> 0.34178538E+00</totfact>
</mgrwt>
</event>
<event>
 4    1  0.1295381E-008  0.3344108E+04  0.7816531E-02  0.8151762E-01
          2   -1    0    0  501    0  0.00000000000E+00  0.00000000000E+00  0.20242145866E+04  0.20242145866E+04  0.00000000000E+00 0.  1.
         -2   -1    0    0    0  501 -0.00000000000E+00 -0.00000000000E+00 -0.13811599800E+04  0.13811599800E+04  0.00000000000E+00 0. -1.
    2000013    1    1    2    0    0 -0.82628380023E+03 -0.10282059266E+04 -0.77196773494E+02  0.16273941403E+04  0.95000000000E+03 0.  0.
   -2000013    1    1    2    0    0  0.82628380023E+03  0.10282059266E+04  0.72025138012E+03  0.17779804264E+04  0.95000000000E+03 0.  0.
<mgrwt>
<rscale>  0 0.33441078E+04</rscale>
<asrwt>0</asrwt>
<pdfrwt beam="1">  1        2 0.31141763E+00 0.33441078E+04</pdfrwt>
<pdfrwt beam="2">  1       -2 0.21248615E+00 0.33441078E+04</pdfrwt>
<totfact> 0.59495273E-01</totfact>
</mgrwt>
</event>
<event>
 4    1  0.1295381E-008  0.2965879E+04  0.7816531E-02  0.8253542E-01
          2   -1    0    0  501    0  0.00000000000E+00  0.00000000000E+00  0.33863264991E+04  0.33863264991E+04  0.00000000000E+00 0.  1.
         -2   -1    0    0    0  501 -0.00000000000E+00 -0.00000000000E+00 -0.64940862133E+03  0.64940862133E+03  0.00000000000E+00 0. -1.
    2000013    1    1    2    0    0 -0.10833761679E+04  0.34319466430E+03  0.14658539413E+04  0.20839180108E+04  0.95000000000E+03 0.  0.
   -2000013    1    1    2    0    0  0.10833761679E+04 -0.34319466430E+03  0.12710639365E+04  0.19518171096E+04  0.95000000000E+03 0.  0.
<mgrwt>
<rscale>  0 0.29658790E+04</rscale>
<asrwt>0</asrwt>
<pdfrwt beam="1">  1        2 0.52097330E+00 0.29658790E+04</pdfrwt>
<pdfrwt beam="2">  1       -2 0.99909020E-01 0.29658790E+04</pdfrwt>
<totfact> 0.69171346E-01</totfact>
</mgrwt>
</event>
<event>
 4    1  0.1295381E-008  0.2211641E+04  0.7816531E-02  0.8513598E-01
         -2   -1    0    0    0  501 -0.00000000000E+00  0.00000000000E+00  0.46527710543E+03  0.46527710543E+03  0.00000000000E+00 0. -1.
          2   -1    0    0  501    0  0.00000000000E+00 -0.00000000000E+00 -0.26281962013E+04  0.26281962013E+04  0.00000000000E+00 0.  1.
    2000013    1    1    2    0    0  0.51180998741E+03  0.20943957481E+03 -0.12500339172E+04  0.16646018121E+04  0.95000000000E+03 0.  0.
   -2000013    1    1    2    0    0 -0.51180998741E+03 -0.20943957481E+03 -0.91288517872E+03  0.14288714947E+04  0.95000000000E+03 0.  0.
<mgrwt>
<rscale>  0 0.22116415E+04</rscale>
<asrwt>0</asrwt>
<pdfrwt beam="2">  1        2 0.40433788E+00 0.22116415E+04</pdfrwt>
<pdfrwt beam="1">  1       -2 0.71581093E-01 0.22116415E+04</pdfrwt>
<totfact> 0.47358281E+00</totfact>
</mgrwt>
</event>
<event>
 4    1  0.1295381E-008  0.2298564E+04  0.7816531E-02  0.8478488E-01
         -2   -1    0    0    0  501 -0.00000000000E+00  0.00000000000E+00  0.79553694736E+03  0.79553694736E+03  0.00000000000E+00 0. -1.
          2   -1    0    0  501    0  0.00000000000E+00 -0.00000000000E+00 -0.16603236313E+04  0.16603236313E+04  0.00000000000E+00 0.  1.
    2000013    1    1    2    0    0 -0.19766718841E+03 -0.61219962709E+03 -0.36081558938E+03  0.12027254842E+04  0.95000000000E+03 0.  0.
   -2000013    1    1    2    0    0  0.19766718841E+03  0.61219962709E+03 -0.50397109451E+03  0.12531350944E+04  0.95000000000E+03 0.  0.
<mgrwt>
<rscale>  0 0.22985637E+04</rscale>
<asrwt>0</asrwt>
<pdfrwt beam="2">  1        2 0.25543440E+00 0.22985637E+04</pdfrwt>
<pdfrwt beam="1">  1       -2 0.12239030E+00 0.22985637E+04</pdfrwt>
<totfact> 0.47304760E+00</totfact>
</mgrwt>
</event>
<event>
 4    1  0.1295381E-008  0.3909287E+04  0.7816531E-02  0.8023100E-01
          2   -1    0    0  501    0  0.00000000000E+00  0.00000000000E+00  0.19568043160E+04  0.19568043160E+04  0.00000000000E+00 0.  1.
         -2   -1    0    0    0  501 -0.00000000000E+00 -0.00000000000E+00 -0.19524851557E+04  0.19524851557E+04  0.00000000000E+00 0. -1.
    2000013    1    1    2    0    0 -0.89306511173E+03  0.13687496727E+04 -0.49492262724E+03  0.19540955369E+04  0.95000000000E+03 0.  0.
   -2000013    1    1    2    0    0  0.89306511173E+03 -0.13687496727E+04  0.49924178756E+03  0.19551939348E+04  0.95000000000E+03 0.  0.
<mgrwt>
<rscale>  0 0.39092871E+04</rscale>
<asrwt>0</asrwt>
<pdfrwt beam="1">  1        2 0.30104682E+00 0.39092871E+04</pdfrwt>
<pdfrwt beam="2">  1       -2 0.30038233E+00 0.39092871E+04</pdfrwt>
<totfact> 0.17739342E-01</totfact>
</mgrwt>
</event>
<event>
 4    1  0.1295381E-008  0.2378771E+04  0.7816531E-02  0.8447494E-01
         -2   -1    0    0    0  501 -0.00000000000E+00  0.00000000000E+00  0.73840874287E+03  0.73840874287E+03  0.00000000000E+00 0. -1.
          2   -1    0    0  501    0  0.00000000000E+00 -0.00000000000E+00 -0.19157927652E+04  0.19157927652E+04  0.00000000000E+00 0.  1.
    2000013    1    1    2    0    0 -0.70586137827E+03  0.69305818675E+01 -0.45738040628E+03  0.12688519040E+04  0.95000000000E+03 0.  0.
   -2000013    1    1    2    0    0  0.70586137827E+03 -0.69305818675E+01 -0.72000361603E+03  0.13853496040E+04  0.95000000000E+03 0.  0.
<mgrwt>
<rscale>  0 0.23787712E+04</rscale>
<asrwt>0</asrwt>
<pdfrwt beam="2">  1        2 0.29473735E+00 0.23787712E+04</pdfrwt>
<pdfrwt beam="1">  1       -2 0.11360134E+00 0.23787712E+04</pdfrwt>
<totfact> 0.40725563E+00</totfact>
</mgrwt>
</event>
<event>
 4    1  0.1295381E-008  0.2990352E+04  0.7816531E-02  0.8246491E-01
          2   -1    0    0  501    0  0.00000000000E+00  0.00000000000E+00  0.10053638453E+04  0.10053638453E+04  0.00000000000E+00 0.  1.
         -2   -1    0    0    0  501 -0.00000000000E+00 -0.00000000000E+00 -0.22236240713E+04  0.22236240713E+04  0.00000000000E+00 0. -1.
    2000013    1    1    2    0    0  0.84199553896E+03  0.73657464803E+03 -0.30076667855E+03  0.14981519598E+04  0.95000000000E+03 0.  0.
   -2000013    1    1    2    0    0 -0.84199553896E+03 -0.73657464803E+03 -0.91749354744E+03  0.17308359568E+04  0.95000000000E+03 0.  0.
<mgrwt>
<rscale>  0 0.29903520E+04</rscale>
<asrwt>0</asrwt>
<pdfrwt beam="1">  1        2 0.15467136E+00 0.29903520E+04</pdfrwt>
<pdfrwt beam="2">  1       -2 0.34209601E+00 0.29903520E+04</pdfrwt>
<totfact> 0.37338962E-01</totfact>
</mgrwt>
</event>
<event>
 4    1  0.1295381E-008  0.2434895E+04  0.7816531E-02  0.8426554E-01
         -2   -1    0    0    0  501 -0.00000000000E+00  0.00000000000E+00  0.55957350233E+03  0.55957350233E+03  0.00000000000E+00 0. -1.
          2   -1    0    0  501    0  0.00000000000E+00 -0.00000000000E+00 -0.26487648447E+04  0.26487648447E+04  0.00000000000E+00 0.  1.
    2000013    1    1    2    0    0 -0.73600394433E+03  0.43640749339E+02 -0.79433833880E+03  0.14412077288E+04  0.95000000000E+03 0.  0.
   -2000013    1    1    2    0    0  0.73600394433E+03 -0.43640749339E+02 -0.12948530036E+04  0.17671306183E+04  0.95000000000E+03 0.  0.
<mgrwt>
<rscale>  0 0.24348952E+04</rscale>
<asrwt>0</asrwt>
<pdfrwt beam="2">  1        2 0.40750228E+00 0.24348952E+04</pdfrwt>
<pdfrwt beam="1">  1       -2 0.86088233E-01 0.24348952E+04</pdfrwt>
<totfact> 0.29889689E+00</totfact>
</mgrwt>
</event>
<event>
 4    1  0.1295381E-008  0.2477909E+04  0.7816531E-02  0.8410898E-01
         -2   -1    0    0    0  501 -0.00000000000E+00  0.00000000000E+00  0.36472032454E+03  0.36472032454E+03  0.00000000000E+00 0. -1.
          2   -1    0    0  501    0  0.00000000000E+00 -0.00000000000E+00 -0.42087261309E+04  0.42087261309E+04  0.00000000000E+00 0.  1.
    2000013    1    1    2    0    0  0.15815583178E+03  0.77524781505E+03 -0.20706411718E+04  0.24116544745E+04  0.95000000000E+03 0.  0.
   -2000013    1    1    2    0    0 -0.15815583178E+03 -0.77524781505E+03 -0.17733646345E+04  0.21617919810E+04  0.95000000000E+03 0.  0.
<mgrwt>
<rscale>  0 0.24779088E+04</rscale>
<asrwt>0</asrwt>
<pdfrwt beam="2">  1        2 0.64749630E+00 0.24779088E+04</pdfrwt>
<pdfrwt beam="1">  1       -2 0.56110821E-01 0.24779088E+04</pdfrwt>
<totfact> 0.61172670E-01</totfact>
</mgrwt>
</event>
<event>
 4    1  0.1295381E-008  0.2324306E+04  0.7816531E-02  0.8468399E-01
         -2   -1    0    0    0  501 -0.00000000000E+00  0.00000000000E+00  0.47397742972E+03  0.47397742972E+03  0.00000000000E+00 0. -1.
          2   -1    0    0  501    0  0.00000000000E+00 -0.00000000000E+00 -0.28495029135E+04  0.28495029135E+04  0.00000000000E+00 0.  1.
    2000013    1    1    2    0    0 -0.82771418857E+02 -0.61268201474E+03 -0.82078256610E+03  0.13994335925E+04  0.95000000000E+03 0.  0.
   -2000013    1    1    2    0    0  0.82771418857E+02  0.61268201474E+03 -0.15547429177E+04  0.19240467507E+04  0.95000000000E+03 0.  0.
<mgrwt>
<rscale>  0 0.23243064E+04</rscale>
<asrwt>0</asrwt>
<pdfrwt beam="2">  1        2 0.43838507E+00 0.23243064E+04</pdfrwt>
<pdfrwt beam="1">  1       -2 0.72919603E-01 0.23243064E+04</pdfrwt>
<totfact> 0.33187931E+00</totfact>
</mgrwt>
</event>
<event>
 4    1  0.1295381E-008  0.3262418E+04  0.7816531E-02  0.8172524E-01
         -2   -1    0    0    0  501 -0.00000000000E+00  0.00000000000E+00  0.59480071866E+03  0.59480071866E+03  0.00000000000E+00 0. -1.
          2   -1    0    0  501    0  0.00000000000E+00 -0.00000000000E+00 -0.44735036363E+04  0.44735036363E+04  0.00000000000E+00 0.  1.
    2000013    1    1    2    0    0  0.82716642432E+03  0.48399506986E+03 -0.51560174198E+03  0.14445762969E+04  0.95000000000E+03 0.  0.
   -2000013    1    1    2    0    0 -0.82716642432E+03 -0.48399506986E+03 -0.33631011757E+04  0.36237280581E+04  0.95000000000E+03 0.  0.
<mgrwt>
<rscale>  0 0.32624182E+04</rscale>
<asrwt>0</asrwt>
<pdfrwt beam="2">  1        2 0.68823131E+00 0.32624182E+04</pdfrwt>
<pdfrwt beam="1">  1       -2 0.91507805E-01 0.32624182E+04</pdfrwt>
<totfact> 0.11092376E-01</totfact>
</mgrwt>
</event>
<event>
 4    1  0.1295381E-008  0.2057850E+04  0.7816531E-02  0.8580042E-01
         -2   -1    0    0    0  501 -0.00000000000E+00  0.00000000000E+00  0.34416718765E+03  0.34416718765E+03  0.00000000000E+00 0. -1.
          2   -1    0    0  501    0  0.00000000000E+00 -0.00000000000E+00 -0.30760811476E+04  0.30760811476E+04  0.00000000000E+00 0.  1.
    2000013    1    1    2    0    0  0.36270284247E+03  0.13881635687E+03 -0.14876715133E+04  0.18073433167E+04  0.95000000000E+03 0.  0.
   -2000013    1    1    2    0    0 -0.36270284247E+03 -0.13881635687E+03 -0.12442424466E+04  0.16129050185E+04  0.95000000000E+03 0.  0.
<mgrwt>
<rscale>  0 0.20578496E+04</rscale>
<asrwt>0</asrwt>
<pdfrwt beam="2">  1        2 0.47324326E+00 0.20578496E+04</pdfrwt>
<pdfrwt beam="1">  1       -2 0.52948798E-01 0.20578496E+04</pdfrwt>
<totfact> 0.48602246E+00</totfact>
</mgrwt>
</event>
<event>
 4    1  0.1295381E-008  0.2608577E+04  0.7816531E-02  0.8365294E-01
          2   -1    0    0  501    0  0.00000000000E+00  0.00000000000E+00  0.20613023167E+04  0.20613023167E+04  0.00000000000E+00 0.  1.
         -2   -1    0    0    0  501 -0.00000000000E+00 -0.00000000000E+00 -0.82528808893E+03  0.82528808893E+03  0.00000000000E+00 0. -1.
    2000013    1    1    2    0    0  0.58746200328E+03  0.16084584317E+03 -0.10566806105E+03  0.11334234556E+04  0.95000000000E+03 0.  0.
   -2000013    1    1    2    0    0 -0.58746200328E+03 -0.16084584317E+03  0.13416822888E+04  0.17531669500E+04  0.95000000000E+03 0.  0.
<mgrwt>
<rscale>  0 0.26085768E+04</rscale>
<asrwt>0</asrwt>
<pdfrwt beam="1">  1        2 0.31712343E+00 0.26085768E+04</pdfrwt>
<pdfrwt beam="2">  1       -2 0.12696740E+00 0.26085768E+04</pdfrwt>
<totfact> 0.25165841E+00</totfact>
</mgrwt>
</event>
<event>
 4    1  0.1295381E-008  0.2917833E+04  0.7816531E-02  0.8267591E-01
          2   -1    0    0  501    0  0.00000000000E+00  0.00000000000E+00  0.27281407433E+04  0.27281407433E+04  0.00000000000E+00 0.  1.
         -2   -1    0    0    0  501 -0.00000000000E+00 -0.00000000000E+00 -0.78017856293E+03  0.78017856293E+03  0.00000000000E+00 0. -1.
    2000013    1    1    2    0    0  0.31652230026E+03 -0.95562057431E+03  0.15282990333E+04  0.20619396169E+04  0.95000000000E+03 0.  0.
   -2000013    1    1    2    0    0 -0.31652230026E+03  0.95562057431E+03  0.41966314705E+03  0.14463796893E+04  0.95000000000E+03 0.  0.
<mgrwt>
<rscale>  0 0.29178327E+04</rscale>
<asrwt>0</asrwt>
<pdfrwt beam="1">  1        2 0.41971395E+00 0.29178327E+04</pdfrwt>
<pdfrwt beam="2">  1       -2 0.12002747E+00 0.29178327E+04</pdfrwt>
<totfact> 0.11679654E+00</totfact>
</mgrwt>
</event>
<event>
 4    1  0.1295381E-008  0.2656210E+04  0.7816531E-02  0.8349355E-01
         -2   -1    0    0    0  501 -0.00000000000E+00  0.00000000000E+00  0.19114973295E+04  0.19114973295E+04  0.00000000000E+00 0. -1.
          2   -1    0    0  501    0  0.00000000000E+00 -0.00000000000E+00 -0.92276486361E+03  0.92276486361E+03  0.00000000000E+00 0.  1.
    2000013    1    1    2    0    0  0.53116819816E+03 -0.92613295970E+02  0.13004142766E+04  0.16983209850E+04  0.95000000000E+03 0.  0.
   -2000013    1    1    2    0    0 -0.53116819816E+03  0.92613295970E+02 -0.31168181063E+03  0.11359412082E+04  0.95000000000E+03 0.  0.
<mgrwt>
<rscale>  0 0.26562098E+04</rscale>
<asrwt>0</asrwt>
<pdfrwt beam="2">  1        2 0.14196383E+00 0.26562098E+04</pdfrwt>
<pdfrwt beam="1">  1       -2 0.29407651E+00 0.26562098E+04</pdfrwt>
<totfact> 0.86104807E-01</totfact>
</mgrwt>
</event>
<event>
 4    1  0.1295381E-008  0.2096257E+04  0.7816531E-02  0.8562894E-01
          2   -1    0    0  501    0  0.00000000000E+00  0.00000000000E+00  0.27877796161E+04  0.27877796161E+04  0.00000000000E+00 0.  1.
         -2   -1    0    0    0  501 -0.00000000000E+00 -0.00000000000E+00 -0.39406744143E+03  0.39406744143E+03  0.00000000000E+00 0. -1.
    2000013    1    1    2    0    0 -0.25836089635E+03  0.14332577855E+03  0.16974786648E+04  0.19675432521E+04  0.95000000000E+03 0.  0.
   -2000013    1    1    2    0    0  0.25836089635E+03 -0.14332577855E+03  0.69623350991E+03  0.12143038054E+04  0.95000000000E+03 0.  0.
<mgrwt>
<rscale>  0 0.20962568E+04</rscale>
<asrwt>0</asrwt>
<pdfrwt beam="1">  1        2 0.42888916E+00 0.20962568E+04</pdfrwt>
<pdfrwt beam="2">  1       -2 0.60625762E-01 0.20962568E+04</pdfrwt>
<totfact> 0.54991868E+00</totfact>
</mgrwt>
</event>
<event>
 4    1  0.1295381E-008  0.2595622E+04  0.7816531E-02  0.8369690E-01
         -1   -1    0    0    0  501 -0.00000000000E+00  0.00000000000E+00  0.17616116379E+04  0.17616116379E+04  0.00000000000E+00 0. -1.
          1   -1    0    0  501    0  0.00000000000E+00 -0.00000000000E+00 -0.95612063799E+03  0.95612063799E+03  0.00000000000E+00 0.  1.
    2000013    1    1    2    0    0 -0.14457417879E+03 -0.29767677635E+03 -0.45576740631E+03  0.11044170793E+04  0.95000000000E+03 0.  0.
   -2000013    1    1    2    0    0  0.14457417879E+03  0.29767677635E+03  0.12612584062E+04  0.16133151966E+04  0.95000000000E+03 0.  0.
<mgrwt>
<rscale>  0 0.25956219E+04</rscale>
<asrwt>0</asrwt>
<pdfrwt beam="2">  1        1 0.14709548E+00 0.25956219E+04</pdfrwt>
<pdfrwt beam="1">  1       -1 0.27101717E+00 0.25956219E+04</pdfrwt>
<totfact> 0.73481954E-01</totfact>
</mgrwt>
</event>
<event>
 4    1  0.1295381E-008  0.2248177E+04  0.7816531E-02  0.8498639E-01
         -1   -1    0    0    0  501 -0.00000000000E+00  0.00000000000E+00  0.95403588712E+03  0.95403588712E+03  0.00000000000E+00 0.  1.
          1   -1    0    0  501    0  0.00000000000E+00 -0.00000000000E+00 -0.13244528123E+04  0.13244528123E+04  0.00000000000E+00 0. -1.
    2000013    1    1    2    0    0  0.39658757510E+03  0.31732329142E+03  0.14021215340E+03  0.10863402892E+04  0.95000000000E+03 0.  0.
   -2000013    1    1    2    0    0 -0.39658757510E+03 -0.31732329142E+03 -0.51062907854E+03  0.11921484102E+04  0.95000000000E+03 0.  0.
<mgrwt>
<rscale>  0 0.22481775E+04</rscale>
<asrwt>0</asrwt>
<pdfrwt beam="2">  1        1 0.20376197E+00 0.22481775E+04</pdfrwt>
<pdfrwt beam="1">  1       -1 0.14677475E+00 0.22481775E+04</pdfrwt>
<totfact> 0.29182818E+00</totfact>
</mgrwt>
</event>
<event>
 4    1  0.1295381E-008  0.3205596E+04  0.7816531E-02  0.8187341E-01
          2   -1    0    0  501    0  0.00000000000E+00  0.00000000000E+00  0.28923760864E+04  0.28923760864E+04  0.00000000000E+00 0.  1.
         -2   -1    0    0    0  501 -0.00000000000E+00 -0.00000000000E+00 -0.88818356037E+03  0.88818356037E+03  0.00000000000E+00 0. -1.
    2000013    1    1    2    0    0 -0.21685358702E+03  0.12229687316E+04  0.14170289685E+04  0.21102485859E+04  0.95000000000E+03 0.  0.
   -2000013    1    1    2    0    0  0.21685358702E+03 -0.12229687316E+04  0.58716355752E+03  0.16703110609E+04  0.95000000000E+03 0.  0.
<mgrwt>
<rscale>  0 0.32055957E+04</rscale>
<asrwt>0</asrwt>
<pdfrwt beam="1">  1        2 0.44498093E+00 0.32055957E+04</pdfrwt>
<pdfrwt beam="2">  1       -2 0.13664363E+00 0.32055957E+04</pdfrwt>
<totfact> 0.65339378E-01</totfact>
</mgrwt>
</event>
<event>
 4    1  0.1295381E-008  0.2567066E+04  0.7816531E-02  0.8379475E-01
         -2   -1    0    0    0  501 -0.00000000000E+00  0.00000000000E+00  0.12454696208E+04  0.12454696208E+04  0.00000000000E+00 0. -1.
          2   -1    0    0  501    0  0.00000000000E+00 -0.00000000000E+00 -0.13227598116E+04  0.13227598116E+04  0.00000000000E+00 0.  1.
    2000013    1    1    2    0    0  0.16870436325E+03  0.62634992386E+03 -0.60827273436E+03  0.13012575105E+04  0.95000000000E+03 0.  0.
   -2000013    1    1    2    0    0 -0.16870436325E+03 -0.62634992386E+03  0.53098254362E+03  0.12669719219E+04  0.95000000000E+03 0.  0.
<mgrwt>
<rscale>  0 0.25670662E+04</rscale>
<asrwt>0</asrwt>
<pdfrwt beam="2">  1        2 0.20350151E+00 0.25670662E+04</pdfrwt>
<pdfrwt beam="1">  1       -2 0.19161071E+00 0.25670662E+04</pdfrwt>
<totfact> 0.21504252E+00</totfact>
</mgrwt>
</event>
<event>
 4    1  0.1295381E-008  0.2302170E+04  0.7816531E-02  0.8477066E-01
          2   -1    0    0  501    0  0.00000000000E+00  0.00000000000E+00  0.24388204188E+04  0.24388204188E+04  0.00000000000E+00 0.  1.
         -2   -1    0    0    0  501 -0.00000000000E+00 -0.00000000000E+00 -0.54329405086E+03  0.54329405086E+03  0.00000000000E+00 0. -1.
    2000013    1    1    2    0    0 -0.27777393561E+03 -0.35507652754E+03  0.34121463439E+03  0.11055157739E+04  0.95000000000E+03 0.  0.
   -2000013    1    1    2    0    0  0.27777393561E+03  0.35507652754E+03  0.15543117335E+04  0.18765986957E+04  0.95000000000E+03 0.  0.
<mgrwt>
<rscale>  0 0.23021700E+04</rscale>
<asrwt>0</asrwt>
<pdfrwt beam="1">  1        2 0.37520314E+00 0.23021700E+04</pdfrwt>
<pdfrwt beam="2">  1       -2 0.83583701E-01 0.23021700E+04</pdfrwt>
<totfact> 0.42850174E+00</totfact>
</mgrwt>
</event>
<event>
 4    1  0.1295381E-008  0.2666867E+04  0.7816531E-02  0.8345836E-01
          2   -1    0    0  501    0  0.00000000000E+00  0.00000000000E+00  0.12857091771E+04  0.12857091771E+04  0.00000000000E+00 0.  1.
         -2   -1    0    0    0  501 -0.00000000000E+00 -0.00000000000E+00 -0.13829294077E+04  0.13829294077E+04  0.00000000000E+00 0. -1.
    2000013    1    1    2    0    0  0.61521367495E+03  0.70376797678E+03 -0.65369754206E+01  0.13327865407E+04  0.95000000000E+03 0.  0.
   -2000013    1    1    2    0    0 -0.61521367495E+03 -0.70376797678E+03 -0.90683255127E+02  0.13358520441E+04  0.95000000000E+03 0.  0.
<mgrwt>
<rscale>  0 0.26668671E+04</rscale>
<asrwt>0</asrwt>
<pdfrwt beam="1">  1        2 0.19780141E+00 0.26668671E+04</pdfrwt>
<pdfrwt beam="2">  1       -2 0.21275837E+00 0.26668671E+04</pdfrwt>
<totfact> 0.16296904E+00</totfact>
</mgrwt>
</event>
<event>
 4    1  0.1295381E-008  0.2097915E+04  0.7816531E-02  0.8562162E-01
         -2   -1    0    0    0  501 -0.00000000000E+00  0.00000000000E+00  0.56327348282E+03  0.56327348282E+03  0.00000000000E+00 0. -1.
          2   -1    0    0  501    0  0.00000000000E+00 -0.00000000000E+00 -0.19534242889E+04  0.19534242889E+04  0.00000000000E+00 0.  1.
    2000013    1    1    2    0    0  0.26899712954E+03 -0.30918858284E+03 -0.90235289753E+03  0.13728429579E+04  0.95000000000E+03 0.  0.
   -2000013    1    1    2    0    0 -0.26899712954E+03  0.30918858284E+03 -0.48779790856E+03  0.11438548138E+04  0.95000000000E+03 0.  0.
<mgrwt>
<rscale>  0 0.20979153E+04</rscale>
<asrwt>0</asrwt>
<pdfrwt beam="2">  1        2 0.30052681E+00 0.20979153E+04</pdfrwt>
<pdfrwt beam="1">  1       -2 0.86657461E-01 0.20979153E+04</pdfrwt>
<totfact> 0.75354916E+00</totfact>
</mgrwt>
</event>
<event>
 4    1  0.1295381E-008  0.2365376E+04  0.7816531E-02  0.8452581E-01
          2   -1    0    0  501    0  0.00000000000E+00  0.00000000000E+00  0.30621506785E+04  0.30621506785E+04  0.00000000000E+00 0.  1.
         -2   -1    0    0    0  501 -0.00000000000E+00 -0.00000000000E+00 -0.45678727655E+03  0.45678727655E+03  0.00000000000E+00 0. -1.
    2000013    1    1    2    0    0  0.18415592916E+03  0.26799329867E+03  0.37300558846E+03  0.10711521757E+04  0.95000000000E+03 0.  0.
   -2000013    1    1    2    0    0 -0.18415592916E+03 -0.26799329867E+03  0.22323578135E+04  0.24477857794E+04  0.95000000000E+03 0.  0.
<mgrwt>
<rscale>  0 0.23653765E+04</rscale>
<asrwt>0</asrwt>
<pdfrwt beam="1">  1        2 0.47110009E+00 0.23653765E+04</pdfrwt>
<pdfrwt beam="2">  1       -2 0.70274967E-01 0.23653765E+04</pdfrwt>
<totfact> 0.26458621E+00</totfact>
</mgrwt>
</event>
<event>
 4    1  0.1295381E-008  0.2149164E+04  0.7816531E-02  0.8539890E-01
          1   -1    0    0  501    0  0.00000000000E+00  0.00000000000E+00  0.89719903132E+03  0.89719903132E+03  0.00000000000E+00 0. -1.
         -1   -1    0    0    0  501 -0.00000000000E+00 -0.00000000000E+00 -0.12870353915E+04  0.12870353915E+04  0.00000000000E+00 0.  1.
    2000013    1    1    2    0    0  0.30971839139E+03 -0.31184842668E+03  0.52053327674E+02  0.10480383925E+04  0.95000000000E+03 0.  0.
   -2000013    1    1    2    0    0 -0.30971839139E+03  0.31184842668E+03 -0.44188968789E+03  0.11361960304E+04  0.95000000000E+03 0.  0.
<mgrwt>
<rscale>  0 0.21491644E+04</rscale>
<asrwt>0</asrwt>
<pdfrwt beam="1">  1        1 0.13803062E+00 0.21491644E+04</pdfrwt>
<pdfrwt beam="2">  1       -1 0.19800544E+00 0.21491644E+04</pdfrwt>
<totfact> 0.26025359E+00</totfact>
</mgrwt>
</event>
<event>
 4    1  0.1295381E-008  0.2541075E+04  0.7816531E-02  0.8388497E-01
          2   -1    0    0  501    0  0.00000000000E+00  0.00000000000E+00  0.12803553793E+04  0.12803553793E+04  0.00000000000E+00 0.  1.
         -2   -1    0    0    0  501 -0.00000000000E+00 -0.00000000000E+00 -0.12607948072E+04  0.12607948072E+04  0.00000000000E+00 0. -1.
    2000013    1    1    2    0    0 -0.35981947085E+02 -0.72079643330E+03  0.44674084269E+03  0.12739386089E+04  0.95000000000E+03 0.  0.
   -2000013    1    1    2    0    0  0.35981947085E+02  0.72079643330E+03 -0.42718027053E+03  0.12672115776E+04  0.95000000000E+03 0.  0.
<mgrwt>
<rscale>  0 0.25410749E+04</rscale>
<asrwt>0</asrwt>
<pdfrwt beam="1">  1        2 0.19697775E+00 0.25410749E+04</pdfrwt>
<pdfrwt beam="2">  1       -2 0.19396843E+00 0.25410749E+04</pdfrwt>
<totfact> 0.22000586E+00</totfact>
</mgrwt>
</event>
<event>
 4    1  0.1295381E-008  0.3106503E+04  0.7816531E-02  0.8213956E-01
         -2   -1    0    0    0  501 -0.00000000000E+00  0.00000000000E+00  0.15072558946E+04  0.15072558946E+04  0.00000000000E+00 0. -1.
          2   -1    0    0  501    0  0.00000000000E+00 -0.00000000000E+00 -0.16006502426E+04  0.16006502426E+04  0.00000000000E+00 0.  1.
    2000013    1    1    2    0    0  0.86553930668E+03  0.76683026542E+03 -0.46270059284E+03  0.15664542081E+04  0.95000000000E+03 0.  0.
   -2000013    1    1    2    0    0 -0.86553930668E+03 -0.76683026542E+03  0.36930624488E+03  0.15414519292E+04  0.95000000000E+03 0.  0.
<mgrwt>
<rscale>  0 0.31065025E+04</rscale>
<asrwt>0</asrwt>
<pdfrwt beam="2">  1        2 0.24625388E+00 0.31065025E+04</pdfrwt>
<pdfrwt beam="1">  1       -2 0.23188552E+00 0.31065025E+04</pdfrwt>
<totfact> 0.78679099E-01</totfact>
</mgrwt>
</event>
<event>
 4    1  0.1295381E-008  0.3174550E+04  0.7816531E-02  0.8195571E-01
         -2   -1    0    0    0  501 -0.00000000000E+00  0.00000000000E+00  0.16632079064E+04  0.16632079064E+04  0.00000000000E+00 0. -1.
          2   -1    0    0  501    0  0.00000000000E+00 -0.00000000000E+00 -0.15148091924E+04  0.15148091924E+04  0.00000000000E+00 0.  1.
    2000013    1    1    2    0    0  0.51077846986E+03 -0.88125766444E+03  0.83623551052E+03  0.16245921166E+04  0.95000000000E+03 0.  0.
   -2000013    1    1    2    0    0 -0.51077846986E+03  0.88125766444E+03 -0.68783679658E+03  0.15534249821E+04  0.95000000000E+03 0.  0.
<mgrwt>
<rscale>  0 0.31745504E+04</rscale>
<asrwt>0</asrwt>
<pdfrwt beam="2">  1        2 0.23304757E+00 0.31745504E+04</pdfrwt>
<pdfrwt beam="1">  1       -2 0.25587814E+00 0.31745504E+04</pdfrwt>
<totfact> 0.62133078E-01</totfact>
</mgrwt>
</event>
<event>
 4    1  0.1295381E-008  0.2264834E+04  0.7816531E-02  0.8491917E-01
          1   -1    0    0  501    0  0.00000000000E+00  0.00000000000E+00  0.97583923826E+03  0.97583923826E+03  0.00000000000E+00 0.  1.
         -1   -1    0    0    0  501 -0.00000000000E+00 -0.00000000000E+00 -0.13141184304E+04  0.13141184304E+04  0.00000000000E+00 0. -1.
    2000013    1    1    2    0    0  0.16018860906E+03 -0.45599799258E+03  0.21756051066E+03  0.10878543724E+04  0.95000000000E+03 0.  0.
   -2000013    1    1    2    0    0 -0.16018860906E+03  0.45599799258E+03 -0.55583970279E+03  0.12021032963E+04  0.95000000000E+03 0.  0.
<mgrwt>
<rscale>  0 0.22648341E+04</rscale>
<asrwt>0</asrwt>
<pdfrwt beam="1">  1        1 0.15012911E+00 0.22648341E+04</pdfrwt>
<pdfrwt beam="2">  1       -1 0.20217206E+00 0.22648341E+04</pdfrwt>
<totfact> 0.20838952E+00</totfact>
</mgrwt>
</event>
<event>
 4    1  0.1295381E-008  0.3739787E+04  0.7816531E-02  0.8059201E-01
          2   -1    0    0  501    0  0.00000000000E+00  0.00000000000E+00  0.20657371703E+04  0.20657371703E+04  0.00000000000E+00 0.  1.
         -2   -1    0    0    0  501 -0.00000000000E+00 -0.00000000000E+00 -0.16926169851E+04  0.16926169851E+04  0.00000000000E+00 0. -1.
    2000013    1    1    2    0    0  0.12863441193E+04 -0.95638156118E+03  0.34435855881E+03  0.18948429225E+04  0.95000000000E+03 0.  0.
   -2000013    1    1    2    0    0 -0.12863441193E+04  0.95638156118E+03  0.28761626342E+02  0.18635112329E+04  0.95000000000E+03 0.  0.
<mgrwt>
<rscale>  0 0.37397871E+04</rscale>
<asrwt>0</asrwt>
<pdfrwt beam="1">  1        2 0.31780572E+00 0.37397871E+04</pdfrwt>
<pdfrwt beam="2">  1       -2 0.26040261E+00 0.37397871E+04</pdfrwt>
<totfact> 0.27451905E-01</totfact>
</mgrwt>
</event>
<event>
 4    1  0.1295381E-008  0.2681317E+04  0.7816531E-02  0.8341093E-01
          2   -1    0    0  501    0  0.00000000000E+00  0.00000000000E+00  0.17297747585E+04  0.17297747585E+04  0.00000000000E+00 0.  1.
         -2   -1    0    0    0  501 -0.00000000000E+00 -0.00000000000E+00 -0.10390746197E+04  0.10390746197E+04  0.00000000000E+00 0. -1.
    2000013    1    1    2    0    0  0.32937900220E+03  0.48056556253E+03 -0.42425221771E+03  0.11924444353E+04  0.95000000000E+03 0.  0.
   -2000013    1    1    2    0    0 -0.32937900220E+03 -0.48056556253E+03  0.11149523565E+04  0.15764049430E+04  0.95000000000E+03 0.  0.
<mgrwt>
<rscale>  0 0.26813169E+04</rscale>
<asrwt>0</asrwt>
<pdfrwt beam="1">  1        2 0.26611919E+00 0.26813169E+04</pdfrwt>
<pdfrwt beam="2">  1       -2 0.15985763E+00 0.26813169E+04</pdfrwt>
<totfact> 0.20946573E+00</totfact>
</mgrwt>
</event>
<event>
 4    1  0.1295381E-008  0.2181395E+04  0.7816531E-02  0.8526212E-01
         -2   -1    0    0    0  501 -0.00000000000E+00  0.00000000000E+00  0.10887269404E+04  0.10887269404E+04  0.00000000000E+00 0. -1.
          2   -1    0    0  501    0  0.00000000000E+00 -0.00000000000E+00 -0.10926719390E+04  0.10926719390E+04  0.00000000000E+00 0.  1.
    2000013    1    1    2    0    0 -0.78530492040E+02 -0.45951686199E+03  0.26222216501E+03  0.10902216511E+04  0.95000000000E+03 0.  0.
   -2000013    1    1    2    0    0  0.78530492040E+02  0.45951686199E+03 -0.26616716365E+03  0.10911772283E+04  0.95000000000E+03 0.  0.
<mgrwt>
<rscale>  0 0.21813953E+04</rscale>
<asrwt>0</asrwt>
<pdfrwt beam="2">  1        2 0.16810338E+00 0.21813953E+04</pdfrwt>
<pdfrwt beam="1">  1       -2 0.16749645E+00 0.21813953E+04</pdfrwt>
<totfact> 0.44758561E+00</totfact>
</mgrwt>
</event>
<event>
 4    1  0.1295381E-008  0.5326736E+04  0.7816531E-02  0.7779991E-01
          2   -1    0    0  501    0  0.00000000000E+00  0.00000000000E+00  0.41372016958E+04  0.41372016958E+04  0.00000000000E+00 0.  1.
         -2   -1    0    0    0  501 -0.00000000000E+00 -0.00000000000E+00 -0.17145716420E+04  0.17145716420E+04  0.00000000000E+00 0. -1.
    2000013    1    1    2    0    0 -0.21653684267E+03  0.15621298424E+04 -0.90293052365E+03  0.20505904952E+04  0.95000000000E+03 0.  0.
   -2000013    1    1    2    0    0  0.21653684267E+03 -0.15621298424E+04  0.33255605774E+04  0.38011828426E+04  0.95000000000E+03 0.  0.
<mgrwt>
<rscale>  0 0.53267359E+04</rscale>
<asrwt>0</asrwt>
<pdfrwt beam="1">  1        2 0.63649257E+00 0.53267359E+04</pdfrwt>
<pdfrwt beam="2">  1       -2 0.26378025E+00 0.53267359E+04</pdfrwt>
<totfact> 0.98201105E-03</totfact>
</mgrwt>
</event>
<event>
 4    1  0.1295381E-008  0.2693667E+04  0.7816531E-02  0.8337063E-01
         -2   -1    0    0    0  501 -0.00000000000E+00  0.00000000000E+00  0.18876432907E+04  0.18876432907E+04  0.00000000000E+00 0. -1.
          2   -1    0    0  501    0  0.00000000000E+00 -0.00000000000E+00 -0.96096565335E+03  0.96096565335E+03  0.00000000000E+00 0.  1.
    2000013    1    1    2    0    0 -0.60966885953E+03  0.64609238205E+03  0.83321251482E+03  0.15446276507E+04  0.95000000000E+03 0.  0.
   -2000013    1    1    2    0    0  0.60966885953E+03 -0.64609238205E+03  0.93465122574E+02  0.13039812934E+04  0.95000000000E+03 0.  0.
<mgrwt>
<rscale>  0 0.26936669E+04</rscale>
<asrwt>0</asrwt>
<pdfrwt beam="2">  1        2 0.14784087E+00 0.26936669E+04</pdfrwt>
<pdfrwt beam="1">  1       -2 0.29040666E+00 0.26936669E+04</pdfrwt>
<totfact> 0.85271846E-01</totfact>
</mgrwt>
</event>
<event>
 4    1  0.1295381E-008  0.2583264E+04  0.7816531E-02  0.8373908E-01
          2   -1    0    0  501    0  0.00000000000E+00  0.00000000000E+00  0.18218953148E+04  0.18218953148E+04  0.00000000000E+00 0.  1.
         -2   -1    0    0    0  501 -0.00000000000E+00 -0.00000000000E+00 -0.91570208680E+03  0.91570208680E+03  0.00000000000E+00 0. -1.
    2000013    1    1    2    0    0 -0.23007236469E+03 -0.63403271742E+03  0.10439761564E+04  0.15643902949E+04  0.95000000000E+03 0.  0.
   -2000013    1    1    2    0    0  0.23007236469E+03  0.63403271742E+03 -0.13778292841E+03  0.11732071067E+04  0.95000000000E+03 0.  0.
<mgrwt>
<rscale>  0 0.25832641E+04</rscale>
<asrwt>0</asrwt>
<pdfrwt beam="1">  1        2 0.28029159E+00 0.25832641E+04</pdfrwt>
<pdfrwt beam="2">  1       -2 0.14087724E+00 0.25832641E+04</pdfrwt>
<totfact> 0.26266443E+00</totfact>
</mgrwt>
</event>
<event>
 4    1  0.1295381E-008  0.2417439E+04  0.7816531E-02  0.8433003E-01
          2   -1    0    0  501    0  0.00000000000E+00  0.00000000000E+00  0.29884385595E+04  0.29884385595E+04  0.00000000000E+00 0.  1.
         -2   -1    0    0    0  501 -0.00000000000E+00 -0.00000000000E+00 -0.48888505684E+03  0.48888505684E+03  0.00000000000E+00 0. -1.
    2000013    1    1    2    0    0  0.34876827402E+03  0.60584540369E+03  0.16298470361E+04  0.20118621531E+04  0.95000000000E+03 0.  0.
   -2000013    1    1    2    0    0 -0.34876827402E+03 -0.60584540369E+03  0.86970646657E+03  0.14654614632E+04  0.95000000000E+03 0.  0.
<mgrwt>
<rscale>  0 0.24174391E+04</rscale>
<asrwt>0</asrwt>
<pdfrwt beam="1">  1        2 0.45975977E+00 0.24174391E+04</pdfrwt>
<pdfrwt beam="2">  1       -2 0.75213087E-01 0.24174391E+04</pdfrwt>
<totfact> 0.25235824E+00</totfact>
</mgrwt>
</event>
<event>
 4    1  0.1295381E-008  0.2327549E+04  0.7816531E-02  0.8467137E-01
          2   -1    0    0  501    0  0.00000000000E+00  0.00000000000E+00  0.13282472606E+04  0.13282472606E+04  0.00000000000E+00 0.  1.
         -2   -1    0    0    0  501 -0.00000000000E+00 -0.00000000000E+00 -0.10196679261E+04  0.10196679261E+04  0.00000000000E+00 0. -1.
    2000013    1    1    2    0    0  0.53301773353E+03 -0.43826235205E+02  0.56509064218E+03  0.12279479130E+04  0.95000000000E+03 0.  0.
   -2000013    1    1    2    0    0 -0.53301773353E+03  0.43826235205E+02 -0.25651130770E+03  0.11199672737E+04  0.95000000000E+03 0.  0.
<mgrwt>
<rscale>  0 0.23275490E+04</rscale>
<asrwt>0</asrwt>
<pdfrwt beam="1">  1        2 0.20434573E+00 0.23275490E+04</pdfrwt>
<pdfrwt beam="2">  1       -2 0.15687199E+00 0.23275490E+04</pdfrwt>
<totfact> 0.38270944E+00</totfact>
</mgrwt>
</event>
<event>
 4    1  0.1295381E-008  0.2771870E+04  0.7816531E-02  0.8312055E-01
         -2   -1    0    0    0  501 -0.00000000000E+00  0.00000000000E+00  0.97468297038E+03  0.97468297038E+03  0.00000000000E+00 0. -1.
          2   -1    0    0  501    0  0.00000000000E+00 -0.00000000000E+00 -0.19707081040E+04  0.19707081040E+04  0.00000000000E+00 0.  1.
    2000013    1    1    2    0    0  0.89168790171E+03 -0.47178972857E+03 -0.47149505529E+03  0.14637282703E+04  0.95000000000E+03 0.  0.
   -2000013    1    1    2    0    0 -0.89168790171E+03  0.47178972857E+03 -0.52453007835E+03  0.14816628041E+04  0.95000000000E+03 0.  0.
<mgrwt>
<rscale>  0 0.27718699E+04</rscale>
<asrwt>0</asrwt>
<pdfrwt beam="2">  1        2 0.30318586E+00 0.27718699E+04</pdfrwt>
<pdfrwt beam="1">  1       -2 0.14995123E+00 0.27718699E+04</pdfrwt>
<totfact> 0.18143736E+00</totfact>
</mgrwt>
</event>
<event>
 4    1  0.1295381E-008  0.2066335E+04  0.7816531E-02  0.8576220E-01
          2   -1    0    0  501    0  0.00000000000E+00  0.00000000000E+00  0.83956750146E+03  0.83956750146E+03  0.00000000000E+00 0.  1.
         -2   -1    0    0    0  501 -0.00000000000E+00 -0.00000000000E+00 -0.12714105557E+04  0.12714105557E+04  0.00000000000E+00 0. -1.
    2000013    1    1    2    0    0  0.18536750923E+03 -0.35470509854E+03 -0.14545178674E+03  0.10410730247E+04  0.95000000000E+03 0.  0.
   -2000013    1    1    2    0    0 -0.18536750923E+03  0.35470509854E+03 -0.28639126746E+03  0.10699050325E+04  0.95000000000E+03 0.  0.
<mgrwt>
<rscale>  0 0.20663349E+04</rscale>
<asrwt>0</asrwt>
<pdfrwt beam="1">  1        2 0.12916423E+00 0.20663349E+04</pdfrwt>
<pdfrwt beam="2">  1       -2 0.19560163E+00 0.20663349E+04</pdfrwt>
<totfact> 0.42396205E+00</totfact>
</mgrwt>
</event>
<event>
 4    1  0.1295381E-008  0.2638703E+04  0.7816531E-02  0.8355172E-01
          2   -1    0    0  501    0  0.00000000000E+00  0.00000000000E+00  0.10967900141E+04  0.10967900141E+04  0.00000000000E+00 0. -1.
         -2   -1    0    0    0  501 -0.00000000000E+00 -0.00000000000E+00 -0.15870751628E+04  0.15870751628E+04  0.00000000000E+00 0.  1.
    2000013    1    1    2    0    0 -0.72967875989E+03 -0.22737573776E+03 -0.75781045421E+03  0.14355861184E+04  0.95000000000E+03 0.  0.
   -2000013    1    1    2    0    0  0.72967875989E+03  0.22737573776E+03  0.26752530550E+03  0.12482790585E+04  0.95000000000E+03 0.  0.
<mgrwt>
<rscale>  0 0.26387029E+04</rscale>
<asrwt>0</asrwt>
<pdfrwt beam="1">  1        2 0.16873692E+00 0.26387029E+04</pdfrwt>
<pdfrwt beam="2">  1       -2 0.24416541E+00 0.26387029E+04</pdfrwt>
<totfact> 0.13470729E+00</totfact>
</mgrwt>
</event>
<event>
 4    1  0.1295381E-008  0.2351873E+04  0.7816531E-02  0.8457745E-01
          2   -1    0    0  501    0  0.00000000000E+00  0.00000000000E+00  0.26739454319E+04  0.26739454319E+04  0.00000000000E+00 0.  1.
         -2   -1    0    0    0  501 -0.00000000000E+00 -0.00000000000E+00 -0.51714846615E+03  0.51714846615E+03  0.00000000000E+00 0. -1.
    2000013    1    1    2    0    0 -0.55722923792E+03  0.35818584531E+03  0.13548900263E+04  0.17824220900E+04  0.95000000000E+03 0.  0.
   -2000013    1    1    2    0    0  0.55722923792E+03 -0.35818584531E+03  0.80190693942E+03  0.14086718081E+04  0.95000000000E+03 0.  0.
<mgrwt>
<rscale>  0 0.23518731E+04</rscale>
<asrwt>0</asrwt>
<pdfrwt beam="1">  1        2 0.41137621E+00 0.23518731E+04</pdfrwt>
<pdfrwt beam="2">  1       -2 0.79561304E-01 0.23518731E+04</pdfrwt>
<totfact> 0.34772836E+00</totfact>
</mgrwt>
</event>
<event>
 4    1  0.1295381E-008  0.2478879E+04  0.7816531E-02  0.8410549E-01
         -2   -1    0    0    0  501 -0.00000000000E+00  0.00000000000E+00  0.53802831626E+03  0.53802831626E+03  0.00000000000E+00 0. -1.
          2   -1    0    0  501    0  0.00000000000E+00 -0.00000000000E+00 -0.28552585788E+04  0.28552585788E+04  0.00000000000E+00 0.  1.
    2000013    1    1    2    0    0  0.64732953271E+03 -0.82190076909E+02 -0.17827991246E+04  0.21228903531E+04  0.95000000000E+03 0.  0.
   -2000013    1    1    2    0    0 -0.64732953271E+03  0.82190076909E+02 -0.53443113798E+03  0.12703965420E+04  0.95000000000E+03 0.  0.
<mgrwt>
<rscale>  0 0.24788788E+04</rscale>
<asrwt>0</asrwt>
<pdfrwt beam="2">  1        2 0.43927056E+00 0.24788788E+04</pdfrwt>
<pdfrwt beam="1">  1       -2 0.82773586E-01 0.24788788E+04</pdfrwt>
<totfact> 0.24472635E+00</totfact>
</mgrwt>
</event>
<event>
 4    1  0.1295381E-008  0.2247542E+04  0.7816531E-02  0.8498896E-01
          2   -1    0    0  501    0  0.00000000000E+00  0.00000000000E+00  0.12811857912E+04  0.12811857912E+04  0.00000000000E+00 0.  1.
         -2   -1    0    0    0  501 -0.00000000000E+00 -0.00000000000E+00 -0.98569755493E+03  0.98569755493E+03  0.00000000000E+00 0. -1.
    2000013    1    1    2    0    0  0.51837816880E+03  0.30194842201E+03  0.12581010887E+03  0.11305825750E+04  0.95000000000E+03 0.  0.
   -2000013    1    1    2    0    0 -0.51837816880E+03 -0.30194842201E+03  0.16967812736E+03  0.11363007711E+04  0.95000000000E+03 0.  0.
<mgrwt>
<rscale>  0 0.22475424E+04</rscale>
<asrwt>0</asrwt>
<pdfrwt beam="1">  1        2 0.19710551E+00 0.22475424E+04</pdfrwt>
<pdfrwt beam="2">  1       -2 0.15164578E+00 0.22475424E+04</pdfrwt>
<totfact> 0.44938722E+00</totfact>
</mgrwt>
</event>
<event>
 4    1  0.1295381E-008  0.2363548E+04  0.7816531E-02  0.8453278E-01
         -2   -1    0    0    0  501 -0.00000000000E+00  0.00000000000E+00  0.14090716216E+04  0.14090716216E+04  0.00000000000E+00 0. -1.
          2   -1    0    0  501    0  0.00000000000E+00 -0.00000000000E+00 -0.99114145188E+03  0.99114145188E+03  0.00000000000E+00 0.  1.
    2000013    1    1    2    0    0  0.26283055484E+03  0.58048644712E+03 -0.92361529975E+02  0.11476389101E+04  0.95000000000E+03 0.  0.
   -2000013    1    1    2    0    0 -0.26283055484E+03 -0.58048644712E+03  0.51029169966E+03  0.12525741633E+04  0.95000000000E+03 0.  0.
<mgrwt>
<rscale>  0 0.23635476E+04</rscale>
<asrwt>0</asrwt>
<pdfrwt beam="2">  1        2 0.15248330E+00 0.23635476E+04</pdfrwt>
<pdfrwt beam="1">  1       -2 0.21678025E+00 0.23635476E+04</pdfrwt>
<totfact> 0.23843251E+00</totfact>
</mgrwt>
</event>
<event>
 4    1  0.1295381E-008  0.2649214E+04  0.7816531E-02  0.8351674E-01
          2   -1    0    0  501    0  0.00000000000E+00  0.00000000000E+00  0.22950346351E+04  0.22950346351E+04  0.00000000000E+00 0.  1.
         -2   -1    0    0    0  501 -0.00000000000E+00 -0.00000000000E+00 -0.76451314602E+03  0.76451314602E+03  0.00000000000E+00 0. -1.
    2000013    1    1    2    0    0  0.76859557639E+03  0.43372898247E+03  0.45274828335E+03  0.13734412977E+04  0.95000000000E+03 0.  0.
   -2000013    1    1    2    0    0 -0.76859557639E+03 -0.43372898247E+03  0.10777732057E+04  0.16861064834E+04  0.95000000000E+03 0.  0.
<mgrwt>
<rscale>  0 0.26492143E+04</rscale>
<asrwt>0</asrwt>
<pdfrwt beam="1">  1        2 0.35308225E+00 0.26492143E+04</pdfrwt>
<pdfrwt beam="2">  1       -2 0.11761741E+00 0.26492143E+04</pdfrwt>
<totfact> 0.22429456E+00</totfact>
</mgrwt>
</event>
<event>
 4    1  0.1295381E-008  0.2361513E+04  0.7816531E-02  0.8454055E-01
         -2   -1    0    0    0  501 -0.00000000000E+00  0.00000000000E+00  0.47617831117E+03  0.47617831117E+03  0.00000000000E+00 0. -1.
          2   -1    0    0  501    0  0.00000000000E+00 -0.00000000000E+00 -0.29278644962E+04  0.29278644962E+04  0.00000000000E+00 0.  1.
    2000013    1    1    2    0    0 -0.14358284175E+03 -0.67558333596E+03 -0.14003540689E+04  0.18277090563E+04  0.95000000000E+03 0.  0.
   -2000013    1    1    2    0    0  0.14358284175E+03  0.67558333596E+03 -0.10513321161E+04  0.15763337510E+04  0.95000000000E+03 0.  0.
<mgrwt>
<rscale>  0 0.23615127E+04</rscale>
<asrwt>0</asrwt>
<pdfrwt beam="2">  1        2 0.45044069E+00 0.23615127E+04</pdfrwt>
<pdfrwt beam="1">  1       -2 0.73258202E-01 0.23615127E+04</pdfrwt>
<totfact> 0.29313177E+00</totfact>
</mgrwt>
</event>
<event>
 4    1  0.1295381E-008  0.2469650E+04  0.7816531E-02  0.8413878E-01
          2   -1    0    0  501    0  0.00000000000E+00  0.00000000000E+00  0.38663282216E+04  0.38663282216E+04  0.00000000000E+00 0.  1.
         -2   -1    0    0    0  501 -0.00000000000E+00 -0.00000000000E+00 -0.39437763631E+03  0.39437763631E+03  0.00000000000E+00 0. -1.
    2000013    1    1    2    0    0 -0.45866059671E+02 -0.78658153639E+03  0.18023276024E+04  0.21844218904E+04  0.95000000000E+03 0.  0.
   -2000013    1    1    2    0    0  0.45866059671E+02  0.78658153639E+03  0.16696229829E+04  0.20762839676E+04  0.95000000000E+03 0.  0.
<mgrwt>
<rscale>  0 0.24696505E+04</rscale>
<asrwt>0</asrwt>
<pdfrwt beam="1">  1        2 0.59481970E+00 0.24696505E+04</pdfrwt>
<pdfrwt beam="2">  1       -2 0.60673485E-01 0.24696505E+04</pdfrwt>
<totfact> 0.99070131E-01</totfact>
</mgrwt>
</event>
<event>
 4    1  0.1295381E-008  0.2225921E+04  0.7816531E-02  0.8507716E-01
          1   -1    0    0  501    0  0.00000000000E+00  0.00000000000E+00  0.11335433825E+04  0.11335433825E+04  0.00000000000E+00 0.  1.
         -1   -1    0    0    0  501 -0.00000000000E+00 -0.00000000000E+00 -0.10927510189E+04  0.10927510189E+04  0.00000000000E+00 0. -1.
    2000013    1    1    2    0    0 -0.33210395330E+03 -0.35171897784E+03  0.34010812726E+03  0.11190052785E+04  0.95000000000E+03 0.  0.
   -2000013    1    1    2    0    0  0.33210395330E+03  0.35171897784E+03 -0.29931576372E+03  0.11072891228E+04  0.95000000000E+03 0.  0.
<mgrwt>
<rscale>  0 0.22259207E+04</rscale>
<asrwt>0</asrwt>
<pdfrwt beam="1">  1        1 0.17439129E+00 0.22259207E+04</pdfrwt>
<pdfrwt beam="2">  1       -1 0.16811554E+00 0.22259207E+04</pdfrwt>
<totfact> 0.27655317E+00</totfact>
</mgrwt>
</event>
<event>
 4    1  0.1295381E-008  0.2338681E+04  0.7816531E-02  0.8462824E-01
          1   -1    0    0  501    0  0.00000000000E+00  0.00000000000E+00  0.13829911355E+04  0.13829911355E+04  0.00000000000E+00 0.  1.
         -1   -1    0    0    0  501 -0.00000000000E+00 -0.00000000000E+00 -0.98869525837E+03  0.98869525837E+03  0.00000000000E+00 0. -1.
    2000013    1    1    2    0    0 -0.77703138865E+02  0.61718813231E+02  0.88121190185E+03  0.12995697002E+04  0.95000000000E+03 0.  0.
   -2000013    1    1    2    0    0  0.77703138865E+02 -0.61718813231E+02 -0.48691602474E+03  0.10721166937E+04  0.95000000000E+03 0.  0.
<mgrwt>
<rscale>  0 0.23386806E+04</rscale>
<asrwt>0</asrwt>
<pdfrwt beam="1">  1        1 0.21276787E+00 0.23386806E+04</pdfrwt>
<pdfrwt beam="2">  1       -1 0.15210696E+00 0.23386806E+04</pdfrwt>
<totfact> 0.23904849E+00</totfact>
</mgrwt>
</event>
<event>
 4    1  0.1295381E-008  0.2463227E+04  0.7816531E-02  0.8416204E-01
          2   -1    0    0  501    0  0.00000000000E+00  0.00000000000E+00  0.22278053049E+04  0.22278053049E+04  0.00000000000E+00 0.  1.
         -2   -1    0    0    0  501 -0.00000000000E+00 -0.00000000000E+00 -0.68088182159E+03  0.68088182159E+03  0.00000000000E+00 0. -1.
    2000013    1    1    2    0    0  0.65767057249E+03 -0.16363342078E+03  0.12384589404E+04  0.17016424494E+04  0.95000000000E+03 0.  0.
   -2000013    1    1    2    0    0 -0.65767057249E+03  0.16363342078E+03  0.30846454283E+03  0.12070446771E+04  0.95000000000E+03 0.  0.
<mgrwt>
<rscale>  0 0.24632273E+04</rscale>
<asrwt>0</asrwt>
<pdfrwt beam="1">  1        2 0.34273928E+00 0.24632273E+04</pdfrwt>
<pdfrwt beam="2">  1       -2 0.10475105E+00 0.24632273E+04</pdfrwt>
<totfact> 0.32936235E+00</totfact>
</mgrwt>
</event>
<event>
 4    1  0.1295381E-008  0.2412128E+04  0.7816531E-02  0.8434977E-01
         -2   -1    0    0    0  501 -0.00000000000E+00  0.00000000000E+00  0.94909869267E+03  0.94909869267E+03  0.00000000000E+00 0. -1.
          2   -1    0    0  501    0  0.00000000000E+00 -0.00000000000E+00 -0.15326022112E+04  0.15326022112E+04  0.00000000000E+00 0.  1.
    2000013    1    1    2    0    0 -0.77296754922E+02  0.72296588076E+03 -0.44925647988E+03  0.12778833428E+04  0.95000000000E+03 0.  0.
   -2000013    1    1    2    0    0  0.77296754922E+02 -0.72296588076E+03 -0.13424703869E+03  0.12038175611E+04  0.95000000000E+03 0.  0.
<mgrwt>
<rscale>  0 0.24121283E+04</rscale>
<asrwt>0</asrwt>
<pdfrwt beam="2">  1        2 0.23578495E+00 0.24121283E+04</pdfrwt>
<pdfrwt beam="1">  1       -2 0.14601518E+00 0.24121283E+04</pdfrwt>
<totfact> 0.35171203E+00</totfact>
</mgrwt>
</event>
<event>
 4    1  0.1295381E-008  0.2889751E+04  0.7816531E-02  0.8275933E-01
          2   -1    0    0  501    0  0.00000000000E+00  0.00000000000E+00  0.13130113404E+04  0.13130113404E+04  0.00000000000E+00 0.  1.
         -2   -1    0    0    0  501 -0.00000000000E+00 -0.00000000000E+00 -0.15899826183E+04  0.15899826183E+04  0.00000000000E+00 0. -1.
    2000013    1    1    2    0    0  0.87111862046E+03  0.64394649653E+03 -0.24691761897E+03  0.14618423485E+04  0.95000000000E+03 0.  0.
   -2000013    1    1    2    0    0 -0.87111862046E+03 -0.64394649653E+03 -0.30053658914E+02  0.14411516102E+04  0.95000000000E+03 0.  0.
<mgrwt>
<rscale>  0 0.28897510E+04</rscale>
<asrwt>0</asrwt>
<pdfrwt beam="1">  1        2 0.20200174E+00 0.28897510E+04</pdfrwt>
<pdfrwt beam="2">  1       -2 0.24461271E+00 0.28897510E+04</pdfrwt>
<totfact> 0.97339563E-01</totfact>
</mgrwt>
</event>
<event>
 4    1  0.1295381E-008  0.2148199E+04  0.7816531E-02  0.8540304E-01
         -2   -1    0    0    0  501 -0.00000000000E+00  0.00000000000E+00  0.13765367996E+04  0.13765367996E+04  0.00000000000E+00 0. -1.
          2   -1    0    0  501    0  0.00000000000E+00 -0.00000000000E+00 -0.83811021919E+03  0.83811021919E+03  0.00000000000E+00 0.  1.
    2000013    1    1    2    0    0 -0.34681074079E+03  0.35273963321E+03  0.18618248118E+03  0.10871369992E+04  0.95000000000E+03 0.  0.
   -2000013    1    1    2    0    0  0.34681074079E+03 -0.35273963321E+03  0.35224409922E+03  0.11275100196E+04  0.95000000000E+03 0.  0.
<mgrwt>
<rscale>  0 0.21481988E+04</rscale>
<asrwt>0</asrwt>
<pdfrwt beam="2">  1        2 0.12894003E+00 0.21481988E+04</pdfrwt>
<pdfrwt beam="1">  1       -2 0.21177489E+00 0.21481988E+04</pdfrwt>
<totfact> 0.33111591E+00</totfact>
</mgrwt>
</event>
<event>
 4    1  0.1295381E-008  0.2218254E+04  0.7816531E-02  0.8510869E-01
         -2   -1    0    0    0  501 -0.00000000000E+00  0.00000000000E+00  0.35420514998E+03  0.35420514998E+03  0.00000000000E+00 0. -1.
          2   -1    0    0  501    0  0.00000000000E+00 -0.00000000000E+00 -0.34730239618E+04  0.34730239618E+04  0.00000000000E+00 0.  1.
    2000013    1    1    2    0    0 -0.39315794027E+03  0.36984161637E+03 -0.18881612818E+04  0.21815153021E+04  0.95000000000E+03 0.  0.
   -2000013    1    1    2    0    0  0.39315794027E+03 -0.36984161637E+03 -0.12306575301E+04  0.16457138097E+04  0.95000000000E+03 0.  0.
<mgrwt>
<rscale>  0 0.22182542E+04</rscale>
<asrwt>0</asrwt>
<pdfrwt beam="2">  1        2 0.53431137E+00 0.22182542E+04</pdfrwt>
<pdfrwt beam="1">  1       -2 0.54493101E-01 0.22182542E+04</pdfrwt>
<totfact> 0.24637458E+00</totfact>
</mgrwt>
</event>
<event>
 4    1  0.1295381E-008  0.2652515E+04  0.7816531E-02  0.8350579E-01
          2   -1    0    0  501    0  0.00000000000E+00  0.00000000000E+00  0.46398939716E+04  0.46398939716E+04  0.00000000000E+00 0.  1.
         -2   -1    0    0    0  501 -0.00000000000E+00 -0.00000000000E+00 -0.37909467903E+03  0.37909467903E+03  0.00000000000E+00 0. -1.
    2000013    1    1    2    0    0  0.89833369207E+03  0.11909587314E+03  0.17750363523E+04  0.22078136926E+04  0.95000000000E+03 0.  0.
   -2000013    1    1    2    0    0 -0.89833369207E+03 -0.11909587314E+03  0.24857629403E+04  0.28111749580E+04  0.95000000000E+03 0.  0.
<mgrwt>
<rscale>  0 0.26525151E+04</rscale>
<asrwt>0</asrwt>
<pdfrwt beam="1">  1        2 0.71382980E+00 0.26525151E+04</pdfrwt>
<pdfrwt beam="2">  1       -2 0.58322262E-01 0.26525151E+04</pdfrwt>
<totfact> 0.21607598E-01</totfact>
</mgrwt>
</event>
<event>
 4    1  0.1295381E-008  0.4059859E+04  0.7816531E-02  0.7992579E-01
          2   -1    0    0  501    0  0.00000000000E+00  0.00000000000E+00  0.25282118554E+04  0.25282118554E+04  0.00000000000E+00 0.  1.
         -2   -1    0    0    0  501 -0.00000000000E+00 -0.00000000000E+00 -0.16298527783E+04  0.16298527783E+04  0.00000000000E+00 0. -1.
    2000013    1    1    2    0    0  0.17007146368E+04  0.44740138476E+03  0.86328925632E+02  0.20006376379E+04  0.95000000000E+03 0.  0.
   -2000013    1    1    2    0    0 -0.17007146368E+04 -0.44740138476E+03  0.81203015151E+03  0.21574269957E+04  0.95000000000E+03 0.  0.
<mgrwt>
<rscale>  0 0.40598587E+04</rscale>
<asrwt>0</asrwt>
<pdfrwt beam="1">  1        2 0.38895567E+00 0.40598587E+04</pdfrwt>
<pdfrwt beam="2">  1       -2 0.25074658E+00 0.40598587E+04</pdfrwt>
<totfact> 0.16733773E-01</totfact>
</mgrwt>
</event>
<event>
 4    1  0.1295381E-008  0.2305072E+04  0.7816531E-02  0.8475924E-01
          2   -1    0    0  501    0  0.00000000000E+00  0.00000000000E+00  0.39636472464E+04  0.39636472464E+04  0.00000000000E+00 0.  1.
         -2   -1    0    0    0  501 -0.00000000000E+00 -0.00000000000E+00 -0.33513052089E+03  0.33513052089E+03  0.00000000000E+00 0. -1.
    2000013    1    1    2    0    0  0.53880902227E+03 -0.29211241429E+03  0.13964396480E+04  0.17967160364E+04  0.95000000000E+03 0.  0.
   -2000013    1    1    2    0    0 -0.53880902227E+03  0.29211241429E+03  0.22320770776E+04  0.25020617309E+04  0.95000000000E+03 0.  0.
<mgrwt>
<rscale>  0 0.23050719E+04</rscale>
<asrwt>0</asrwt>
<pdfrwt beam="1">  1        2 0.60979185E+00 0.23050719E+04</pdfrwt>
<pdfrwt beam="2">  1       -2 0.51558544E-01 0.23050719E+04</pdfrwt>
<totfact> 0.11850898E+00</totfact>
</mgrwt>
</event>
<event>
 4    1  0.1295381E-008  0.2408840E+04  0.7816531E-02  0.8436201E-01
         -2   -1    0    0    0  501 -0.00000000000E+00  0.00000000000E+00  0.73800096446E+03  0.73800096446E+03  0.00000000000E+00 0. -1.
          2   -1    0    0  501    0  0.00000000000E+00 -0.00000000000E+00 -0.19656180597E+04  0.19656180597E+04  0.00000000000E+00 0.  1.
    2000013    1    1    2    0    0  0.60659639792E+03  0.29445421521E+03 -0.95694214789E+03  0.15076142574E+04  0.95000000000E+03 0.  0.
   -2000013    1    1    2    0    0 -0.60659639792E+03 -0.29445421521E+03 -0.27067494731E+03  0.11960047667E+04  0.95000000000E+03 0.  0.
<mgrwt>
<rscale>  0 0.24088404E+04</rscale>
<asrwt>0</asrwt>
<pdfrwt beam="2">  1        2 0.30240277E+00 0.24088404E+04</pdfrwt>
<pdfrwt beam="1">  1       -2 0.11353861E+00 0.24088404E+04</pdfrwt>
<totfact> 0.38166847E+00</totfact>
</mgrwt>
</event>
<event>
 4    1  0.1295381E-008  0.2077334E+04  0.7816531E-02  0.8571294E-01
          2   -1    0    0  501    0  0.00000000000E+00  0.00000000000E+00  0.73321786447E+03  0.73321786447E+03  0.00000000000E+00 0.  1.
         -2   -1    0    0    0  501 -0.00000000000E+00 -0.00000000000E+00 -0.14713622846E+04  0.14713622846E+04  0.00000000000E+00 0. -1.
    2000013    1    1    2    0    0  0.36388261585E+03  0.15379132810E+03 -0.21799047611E+03  0.10517044159E+04  0.95000000000E+03 0.  0.
   -2000013    1    1    2    0    0 -0.36388261585E+03 -0.15379132810E+03 -0.52015394405E+03  0.11528757332E+04  0.95000000000E+03 0.  0.
<mgrwt>
<rscale>  0 0.20773340E+04</rscale>
<asrwt>0</asrwt>
<pdfrwt beam="1">  1        2 0.11280275E+00 0.20773340E+04</pdfrwt>
<pdfrwt beam="2">  1       -2 0.22636343E+00 0.20773340E+04</pdfrwt>
<totfact> 0.32110246E+00</totfact>
</mgrwt>
</event>
<event>
 4    1  0.1295381E-008  0.2356507E+04  0.7816531E-02  0.8455968E-01
          2   -1    0    0  501    0  0.00000000000E+00  0.00000000000E+00  0.15278849213E+04  0.15278849213E+04  0.00000000000E+00 0.  1.
         -2   -1    0    0    0  501 -0.00000000000E+00 -0.00000000000E+00 -0.90862986478E+03  0.90862986478E+03  0.00000000000E+00 0. -1.
    2000013    1    1    2    0    0  0.78810382533E+02  0.69170126042E+03  0.34423263056E+03  0.12270524903E+04  0.95000000000E+03 0.  0.
   -2000013    1    1    2    0    0 -0.78810382533E+02 -0.69170126042E+03  0.27502242595E+03  0.12094622957E+04  0.95000000000E+03 0.  0.
<mgrwt>
<rscale>  0 0.23565075E+04</rscale>
<asrwt>0</asrwt>
<pdfrwt beam="1">  1        2 0.23505922E+00 0.23565075E+04</pdfrwt>
<pdfrwt beam="2">  1       -2 0.13978921E+00 0.23565075E+04</pdfrwt>
<totfact> 0.39841724E+00</totfact>
</mgrwt>
</event>
<event>
 4    1  0.1295381E-008  0.3227536E+04  0.7816531E-02  0.8181583E-01
          1   -1    0    0  501    0  0.00000000000E+00  0.00000000000E+00  0.29740976232E+04  0.29740976232E+04  0.00000000000E+00 0.  1.
         -1   -1    0    0    0  501 -0.00000000000E+00 -0.00000000000E+00 -0.87564271897E+03  0.87564271897E+03  0.00000000000E+00 0. -1.
    2000013    1    1    2    0    0 -0.10980982723E+04 -0.68650179862E+03  0.86198608140E+03  0.18228067752E+04  0.95000000000E+03 0.  0.
   -2000013    1    1    2    0    0  0.10980982723E+04  0.68650179862E+03  0.12364688229E+04  0.20269335670E+04  0.95000000000E+03 0.  0.
<mgrwt>
<rscale>  0 0.32275359E+04</rscale>
<asrwt>0</asrwt>
<pdfrwt beam="1">  1        1 0.45755348E+00 0.32275359E+04</pdfrwt>
<pdfrwt beam="2">  1       -1 0.13471427E+00 0.32275359E+04</pdfrwt>
<totfact> 0.24115680E-01</totfact>
</mgrwt>
</event>
<event>
 4    1  0.1295381E-008  0.2214545E+04  0.7816531E-02  0.8512398E-01
         -1   -1    0    0    0  501 -0.00000000000E+00  0.00000000000E+00  0.81705954010E+03  0.81705954010E+03  0.00000000000E+00 0. -1.
          1   -1    0    0  501    0  0.00000000000E+00 -0.00000000000E+00 -0.15005672981E+04  0.15005672981E+04  0.00000000000E+00 0.  1.
    2000013    1    1    2    0    0 -0.10537555520E+03  0.54329398981E+03 -0.47932794325E+03  0.11993863615E+04  0.95000000000E+03 0.  0.
   -2000013    1    1    2    0    0  0.10537555520E+03 -0.54329398981E+03 -0.20417981477E+03  0.11182404767E+04  0.95000000000E+03 0.  0.
<mgrwt>
<rscale>  0 0.22145454E+04</rscale>
<asrwt>0</asrwt>
<pdfrwt beam="2">  1        1 0.23085651E+00 0.22145454E+04</pdfrwt>
<pdfrwt beam="1">  1       -1 0.12570147E+00 0.22145454E+04</pdfrwt>
<totfact> 0.32843160E+00</totfact>
</mgrwt>
</event>
<event>
 4    1  0.1295381E-008  0.2646858E+04  0.7816531E-02  0.8352457E-01
         -2   -1    0    0    0  501 -0.00000000000E+00  0.00000000000E+00  0.10901801784E+04  0.10901801784E+04  0.00000000000E+00 0. -1.
          2   -1    0    0  501    0  0.00000000000E+00 -0.00000000000E+00 -0.16065822238E+04  0.16065822238E+04  0.00000000000E+00 0.  1.
    2000013    1    1    2    0    0 -0.87322088087E+03  0.21078258951E+03 -0.46705394239E+03  0.13883743702E+04  0.95000000000E+03 0.  0.
   -2000013    1    1    2    0    0  0.87322088087E+03 -0.21078258951E+03 -0.49348103072E+02  0.13083880319E+04  0.95000000000E+03 0.  0.
<mgrwt>
<rscale>  0 0.26468578E+04</rscale>
<asrwt>0</asrwt>
<pdfrwt beam="2">  1        2 0.24716649E+00 0.26468578E+04</pdfrwt>
<pdfrwt beam="1">  1       -2 0.16772003E+00 0.26468578E+04</pdfrwt>
<totfact> 0.21564384E+00</totfact>
</mgrwt>
</event>
<event>
 4    1  0.1295381E-008  0.2243630E+04  0.7816531E-02  0.8500485E-01
         -2   -1    0    0    0  501 -0.00000000000E+00  0.00000000000E+00  0.73692077928E+03  0.73692077928E+03  0.00000000000E+00 0. -1.
          2   -1    0    0  501    0  0.00000000000E+00 -0.00000000000E+00 -0.17077399222E+04  0.17077399222E+04  0.00000000000E+00 0.  1.
    2000013    1    1    2    0    0  0.35228102441E+02 -0.58320075458E+03 -0.61708857981E+03  0.12746224754E+04  0.95000000000E+03 0.  0.
   -2000013    1    1    2    0    0 -0.35228102441E+02  0.58320075458E+03 -0.35373056312E+03  0.11700382261E+04  0.95000000000E+03 0.  0.
<mgrwt>
<rscale>  0 0.22436301E+04</rscale>
<asrwt>0</asrwt>
<pdfrwt beam="2">  1        2 0.26272922E+00 0.22436301E+04</pdfrwt>
<pdfrwt beam="1">  1       -2 0.11337243E+00 0.22436301E+04</pdfrwt>
<totfact> 0.53998376E+00</totfact>
</mgrwt>
</event>
<event>
 4    1  0.1295381E-008  0.3047029E+04  0.7816531E-02  0.8230427E-01
         -2   -1    0    0    0  501 -0.00000000000E+00  0.00000000000E+00  0.13406088950E+04  0.13406088950E+04  0.00000000000E+00 0. -1.
          2   -1    0    0  501    0  0.00000000000E+00 -0.00000000000E+00 -0.17313751719E+04  0.17313751719E+04  0.00000000000E+00 0.  1.
    2000013    1    1    2    0    0 -0.28168383829E+03  0.80498324438E+03 -0.10336086665E+04  0.16426170229E+04  0.95000000000E+03 0.  0.
   -2000013    1    1    2    0    0  0.28168383829E+03 -0.80498324438E+03  0.64284238966E+03  0.14293670440E+04  0.95000000000E+03 0.  0.
<mgrwt>
<rscale>  0 0.30470293E+04</rscale>
<asrwt>0</asrwt>
<pdfrwt beam="2">  1        2 0.26636541E+00 0.30470293E+04</pdfrwt>
<pdfrwt beam="1">  1       -2 0.20624752E+00 0.30470293E+04</pdfrwt>
<totfact> 0.97275526E-01</totfact>
</mgrwt>
</event>
<event>
 4    1  0.1295381E-008  0.2650617E+04  0.7816531E-02  0.8351208E-01
          2   -1    0    0  501    0  0.00000000000E+00  0.00000000000E+00  0.86898843140E+03  0.86898843140E+03  0.00000000000E+00 0.  1.
         -2   -1    0    0    0  501 -0.00000000000E+00 -0.00000000000E+00 -0.20212491097E+04  0.20212491097E+04  0.00000000000E+00 0. -1.
    2000013    1    1    2    0    0  0.88778529175E+03 -0.95937733359E+02 -0.31677204878E+03  0.13417195325E+04  0.95000000000E+03 0.  0.
   -2000013    1    1    2    0    0 -0.88778529175E+03  0.95937733359E+02 -0.83548862950E+03  0.15485180086E+04  0.95000000000E+03 0.  0.
<mgrwt>
<rscale>  0 0.26506166E+04</rscale>
<asrwt>0</asrwt>
<pdfrwt beam="1">  1        2 0.13369053E+00 0.26506166E+04</pdfrwt>
<pdfrwt beam="2">  1       -2 0.31096140E+00 0.26506166E+04</pdfrwt>
<totfact> 0.73836979E-01</totfact>
</mgrwt>
</event>
<event>
 4    1  0.1295381E-008  0.2808808E+04  0.7816531E-02  0.8300539E-01
         -2   -1    0    0    0  501 -0.00000000000E+00  0.00000000000E+00  0.53158848590E+03  0.53158848590E+03  0.00000000000E+00 0. -1.
          2   -1    0    0  501    0  0.00000000000E+00 -0.00000000000E+00 -0.37102970937E+04  0.37102970937E+04  0.00000000000E+00 0.  1.
    2000013    1    1    2    0    0  0.96956611859E+03  0.82204471594E+02 -0.21190805411E+04  0.25178995956E+04  0.95000000000E+03 0.  0.
   -2000013    1    1    2    0    0 -0.96956611859E+03 -0.82204471594E+02 -0.10596280666E+04  0.17239859840E+04  0.95000000000E+03 0.  0.
<mgrwt>
<rscale>  0 0.28088084E+04</rscale>
<asrwt>0</asrwt>
<pdfrwt beam="2">  1        2 0.57081492E+00 0.28088084E+04</pdfrwt>
<pdfrwt beam="1">  1       -2 0.81782846E-01 0.28088084E+04</pdfrwt>
<totfact> 0.65597558E-01</totfact>
</mgrwt>
</event>
<event>
 4    1  0.1295381E-008  0.2241601E+04  0.7816531E-02  0.8501310E-01
         -2   -1    0    0    0  501 -0.00000000000E+00  0.00000000000E+00  0.79806147885E+03  0.79806147885E+03  0.00000000000E+00 0. -1.
          2   -1    0    0  501    0  0.00000000000E+00 -0.00000000000E+00 -0.15740560699E+04  0.15740560699E+04  0.00000000000E+00 0.  1.
    2000013    1    1    2    0    0  0.17792494526E+03  0.41628501207E+03 -0.79612514529E+03  0.13195702878E+04  0.95000000000E+03 0.  0.
   -2000013    1    1    2    0    0 -0.17792494526E+03 -0.41628501207E+03  0.20130554215E+02  0.10525472610E+04  0.95000000000E+03 0.  0.
<mgrwt>
<rscale>  0 0.22416008E+04</rscale>
<asrwt>0</asrwt>
<pdfrwt beam="2">  1        2 0.24216247E+00 0.22416008E+04</pdfrwt>
<pdfrwt beam="1">  1       -2 0.12277869E+00 0.22416008E+04</pdfrwt>
<totfact> 0.52691508E+00</totfact>
</mgrwt>
</event>
<event>
 4    1  0.1295381E-008  0.2692678E+04  0.7816531E-02  0.8337384E-01
          2   -1    0    0  501    0  0.00000000000E+00  0.00000000000E+00  0.28263752765E+04  0.28263752765E+04  0.00000000000E+00 0.  1.
         -2   -1    0    0    0  501 -0.00000000000E+00 -0.00000000000E+00 -0.64132647453E+03  0.64132647453E+03  0.00000000000E+00 0. -1.
    2000013    1    1    2    0    0 -0.84387430478E+03  0.43559945238E+03  0.12095577362E+04  0.18075952651E+04  0.95000000000E+03 0.  0.
   -2000013    1    1    2    0    0  0.84387430478E+03 -0.43559945238E+03  0.97549106572E+03  0.16601064859E+04  0.95000000000E+03 0.  0.
<mgrwt>
<rscale>  0 0.26926784E+04</rscale>
<asrwt>0</asrwt>
<pdfrwt beam="1">  1        2 0.43482696E+00 0.26926784E+04</pdfrwt>
<pdfrwt beam="2">  1       -2 0.98665613E-01 0.26926784E+04</pdfrwt>
<totfact> 0.16676862E+00</totfact>
</mgrwt>
</event>
<event>
 4    1  0.1295381E-008  0.2972956E+04  0.7816531E-02  0.8251496E-01
         -2   -1    0    0    0  501 -0.00000000000E+00  0.00000000000E+00  0.69895999499E+03  0.69895999499E+03  0.00000000000E+00 0. -1.
          2   -1    0    0  501    0  0.00000000000E+00 -0.00000000000E+00 -0.31612930897E+04  0.31612930897E+04  0.00000000000E+00 0.  1.
    2000013    1    1    2    0    0 -0.84401793657E+03 -0.48428407462E+03 -0.45185486018E+03  0.14330283168E+04  0.95000000000E+03 0.  0.
   -2000013    1    1    2    0    0  0.84401793657E+03  0.48428407462E+03 -0.20104782345E+04  0.24272247678E+04  0.95000000000E+03 0.  0.
<mgrwt>
<rscale>  0 0.29729564E+04</rscale>
<asrwt>0</asrwt>
<pdfrwt beam="2">  1        2 0.48635278E+00 0.29729564E+04</pdfrwt>
<pdfrwt beam="1">  1       -2 0.10753231E+00 0.29729564E+04</pdfrwt>
<totfact> 0.81772104E-01</totfact>
</mgrwt>
</event>
<event>
 4    1  0.1295381E-008  0.3674194E+04  0.7816531E-02  0.8073705E-01
          2   -1    0    0  501    0  0.00000000000E+00  0.00000000000E+00  0.20244978335E+04  0.20244978335E+04  0.00000000000E+00 0.  1.
         -2   -1    0    0    0  501 -0.00000000000E+00 -0.00000000000E+00 -0.16670427844E+04  0.16670427844E+04  0.00000000000E+00 0. -1.
    2000013    1    1    2    0    0  0.85026452642E+02 -0.10570334598E+04  0.13451892081E+04  0.19587197958E+04  0.95000000000E+03 0.  0.
   -2000013    1    1    2    0    0 -0.85026452642E+02  0.10570334598E+04 -0.98773415892E+03  0.17328208221E+04  0.95000000000E+03 0.  0.
<mgrwt>
<rscale>  0 0.36741935E+04</rscale>
<asrwt>0</asrwt>
<pdfrwt beam="1">  1        2 0.31146121E+00 0.36741935E+04</pdfrwt>
<pdfrwt beam="2">  1       -2 0.25646812E+00 0.36741935E+04</pdfrwt>
<totfact> 0.30761003E-01</totfact>
</mgrwt>
</event>
<event>
 4    1  0.1295381E-008  0.2114829E+04  0.7816531E-02  0.8554739E-01
          2   -1    0    0  501    0  0.00000000000E+00  0.00000000000E+00  0.15353577685E+04  0.15353577685E+04  0.00000000000E+00 0.  1.
         -2   -1    0    0    0  501 -0.00000000000E+00 -0.00000000000E+00 -0.72825092412E+03  0.72825092412E+03  0.00000000000E+00 0. -1.
    2000013    1    1    2    0    0  0.24721967152E+03  0.23105190889E+03  0.63183353061E+02  0.10104428171E+04  0.95000000000E+03 0.  0.
   -2000013    1    1    2    0    0 -0.24721967152E+03 -0.23105190889E+03  0.74392349134E+03  0.12531658755E+04  0.95000000000E+03 0.  0.
<mgrwt>
<rscale>  0 0.21148293E+04</rscale>
<asrwt>0</asrwt>
<pdfrwt beam="1">  1        2 0.23620889E+00 0.21148293E+04</pdfrwt>
<pdfrwt beam="2">  1       -2 0.11203860E+00 0.21148293E+04</pdfrwt>
<totfact> 0.70131547E+00</totfact>
</mgrwt>
</event>
<event>
 4    1  0.1295381E-008  0.2432888E+04  0.7816531E-02  0.8427292E-01
         -2   -1    0    0    0  501 -0.00000000000E+00  0.00000000000E+00  0.11947718788E+04  0.11947718788E+04  0.00000000000E+00 0. -1.
          2   -1    0    0  501    0  0.00000000000E+00 -0.00000000000E+00 -0.12385093955E+04  0.12385093955E+04  0.00000000000E+00 0.  1.
    2000013    1    1    2    0    0  0.58045452115E+03 -0.13898900289E+03  0.44830379112E+03  0.12081894236E+04  0.95000000000E+03 0.  0.
   -2000013    1    1    2    0    0 -0.58045452115E+03  0.13898900289E+03 -0.49204130783E+03  0.12250918507E+04  0.95000000000E+03 0.  0.
<mgrwt>
<rscale>  0 0.24328882E+04</rscale>
<asrwt>0</asrwt>
<pdfrwt beam="2">  1        2 0.19053991E+00 0.24328882E+04</pdfrwt>
<pdfrwt beam="1">  1       -2 0.18381106E+00 0.24328882E+04</pdfrwt>
<totfact> 0.27506842E+00</totfact>
</mgrwt>
</event>
<event>
 4    1  0.1295381E-008  0.3765420E+04  0.7816531E-02  0.8053617E-01
         -2   -1    0    0    0  501 -0.00000000000E+00  0.00000000000E+00  0.23250596337E+04  0.23250596337E+04  0.00000000000E+00 0. -1.
          2   -1    0    0  501    0  0.00000000000E+00 -0.00000000000E+00 -0.15245189704E+04  0.15245189704E+04  0.00000000000E+00 0.  1.
    2000013    1    1    2    0    0  0.12772115572E+04 -0.83491622699E+03 -0.17237640395E+03  0.18057043204E+04  0.95000000000E+03 0.  0.
   -2000013    1    1    2    0    0 -0.12772115572E+04  0.83491622699E+03  0.97291706721E+03  0.20438742837E+04  0.95000000000E+03 0.  0.
<mgrwt>
<rscale>  0 0.37654203E+04</rscale>
<asrwt>0</asrwt>
<pdfrwt beam="2">  1        2 0.23454138E+00 0.37654203E+04</pdfrwt>
<pdfrwt beam="1">  1       -2 0.35770148E+00 0.37654203E+04</pdfrwt>
<totfact> 0.13744038E-01</totfact>
</mgrwt>
</event>
<event>
 4    1  0.1295381E-008  0.2407963E+04  0.7816531E-02  0.8436528E-01
         -2   -1    0    0    0  501 -0.00000000000E+00  0.00000000000E+00  0.10644499375E+04  0.10644499375E+04  0.00000000000E+00 0. -1.
          2   -1    0    0  501    0  0.00000000000E+00 -0.00000000000E+00 -0.13618032462E+04  0.13618032462E+04  0.00000000000E+00 0.  1.
    2000013    1    1    2    0    0 -0.72932233762E+03  0.70311563173E+02 -0.46831739529E+02  0.12006448267E+04  0.95000000000E+03 0.  0.
   -2000013    1    1    2    0    0  0.72932233762E+03 -0.70311563173E+02 -0.25052156917E+03  0.12256083570E+04  0.95000000000E+03 0.  0.
<mgrwt>
<rscale>  0 0.24079629E+04</rscale>
<asrwt>0</asrwt>
<pdfrwt beam="2">  1        2 0.20950819E+00 0.24079629E+04</pdfrwt>
<pdfrwt beam="1">  1       -2 0.16376153E+00 0.24079629E+04</pdfrwt>
<totfact> 0.32335516E+00</totfact>
</mgrwt>
</event>
<event>
 4    1  0.1295381E-008  0.3066782E+04  0.7816531E-02  0.8224914E-01
          2   -1    0    0  501    0  0.00000000000E+00  0.00000000000E+00  0.30686453348E+04  0.30686453348E+04  0.00000000000E+00 0.  1.
         -2   -1    0    0    0  501 -0.00000000000E+00 -0.00000000000E+00 -0.76623007554E+03  0.76623007554E+03  0.00000000000E+00 0. -1.
    2000013    1    1    2    0    0 -0.24176459233E+03  0.11693955539E+04  0.13402385995E+04  0.20309297337E+04  0.95000000000E+03 0.  0.
   -2000013    1    1    2    0    0  0.24176459233E+03 -0.11693955539E+04  0.96217665980E+03  0.18039456767E+04  0.95000000000E+03 0.  0.
<mgrwt>
<rscale>  0 0.30667823E+04</rscale>
<asrwt>0</asrwt>
<pdfrwt beam="1">  1        2 0.47209928E+00 0.30667823E+04</pdfrwt>
<pdfrwt beam="2">  1       -2 0.11788155E+00 0.30667823E+04</pdfrwt>
<totfact> 0.74395997E-01</totfact>
</mgrwt>
</event>
<event>
 4    1  0.1295381E-008  0.2247602E+04  0.7816531E-02  0.8498872E-01
         -2   -1    0    0    0  501 -0.00000000000E+00  0.00000000000E+00  0.53916838367E+03  0.53916838367E+03  0.00000000000E+00 0. -1.
          2   -1    0    0  501    0  0.00000000000E+00 -0.00000000000E+00 -0.23423643717E+04  0.23423643717E+04  0.00000000000E+00 0.  1.
    2000013    1    1    2    0    0 -0.18502304428E+03  0.43956917593E+03 -0.43409126829E+03  0.11482115731E+04  0.95000000000E+03 0.  0.
   -2000013    1    1    2    0    0  0.18502304428E+03 -0.43956917593E+03 -0.13691047197E+04  0.17333211822E+04  0.95000000000E+03 0.  0.
<mgrwt>
<rscale>  0 0.22476021E+04</rscale>
<asrwt>0</asrwt>
<pdfrwt beam="2">  1        2 0.36036376E+00 0.22476021E+04</pdfrwt>
<pdfrwt beam="1">  1       -2 0.82948980E-01 0.22476021E+04</pdfrwt>
<totfact> 0.49733593E+00</totfact>
</mgrwt>
</event>
<event>
 4    1  0.1295381E-008  0.2574482E+04  0.7816531E-02  0.8376921E-01
          2   -1    0    0  501    0  0.00000000000E+00  0.00000000000E+00  0.25951669796E+04  0.25951669796E+04  0.00000000000E+00 0.  1.
         -2   -1    0    0    0  501 -0.00000000000E+00 -0.00000000000E+00 -0.63849041566E+03  0.63849041566E+03  0.00000000000E+00 0. -1.
    2000013    1    1    2    0    0  0.40568279241E+03  0.53895884400E+03  0.29102493377E+03  0.12009374154E+04  0.95000000000E+03 0.  0.
   -2000013    1    1    2    0    0 -0.40568279241E+03 -0.53895884400E+03  0.16656516302E+04  0.20327199799E+04  0.95000000000E+03 0.  0.
<mgrwt>
<rscale>  0 0.25744819E+04</rscale>
<asrwt>0</asrwt>
<pdfrwt beam="1">  1        2 0.39925645E+00 0.25744819E+04</pdfrwt>
<pdfrwt beam="2">  1       -2 0.98229296E-01 0.25744819E+04</pdfrwt>
<totfact> 0.23391085E+00</totfact>
</mgrwt>
</event>
<event>
 4    1  0.1295381E-008  0.4163615E+04  0.7816531E-02  0.7972330E-01
         -2   -1    0    0    0  501 -0.00000000000E+00  0.00000000000E+00  0.43952908512E+04  0.43952908512E+04  0.00000000000E+00 0. -1.
          2   -1    0    0  501    0  0.00000000000E+00 -0.00000000000E+00 -0.98603778553E+03  0.98603778553E+03  0.00000000000E+00 0.  1.
    2000013    1    1    2    0    0 -0.70294666742E+03 -0.13086371523E+04  0.27427096631E+03  0.17844858577E+04  0.95000000000E+03 0.  0.
   -2000013    1    1    2    0    0  0.70294666742E+03  0.13086371523E+04  0.31349820993E+04  0.35968427790E+04  0.95000000000E+03 0.  0.
<mgrwt>
<rscale>  0 0.41636152E+04</rscale>
<asrwt>0</asrwt>
<pdfrwt beam="2">  1        2 0.15169812E+00 0.41636152E+04</pdfrwt>
<pdfrwt beam="1">  1       -2 0.67619858E+00 0.41636152E+04</pdfrwt>
<totfact> 0.55060022E-03</totfact>
</mgrwt>
</event>
<event>
 4    1  0.1295381E-008  0.2244942E+04  0.7816531E-02  0.8499952E-01
          2   -1    0    0  501    0  0.00000000000E+00  0.00000000000E+00  0.15669321656E+04  0.15669321656E+04  0.00000000000E+00 0.  1.
         -2   -1    0    0    0  501 -0.00000000000E+00 -0.00000000000E+00 -0.80408175827E+03  0.80408175827E+03  0.00000000000E+00 0. -1.
    2000013    1    1    2    0    0  0.19394740079E+03 -0.52465884055E+03  0.15848058099E+03  0.11137767226E+04  0.95000000000E+03 0.  0.
   -2000013    1    1    2    0    0 -0.19394740079E+03  0.52465884055E+03  0.60436982631E+03  0.12572372012E+04  0.95000000000E+03 0.  0.
<mgrwt>
<rscale>  0 0.22449424E+04</rscale>
<asrwt>0</asrwt>
<pdfrwt beam="1">  1        2 0.24106649E+00 0.22449424E+04</pdfrwt>
<pdfrwt beam="2">  1       -2 0.12370489E+00 0.22449424E+04</pdfrwt>
<totfact> 0.52173540E+00</totfact>
</mgrwt>
</event>
<event>
 4    1  0.1295381E-008  0.2468844E+04  0.7816531E-02  0.8414170E-01
         -1   -1    0    0    0  501 -0.00000000000E+00  0.00000000000E+00  0.10179335522E+04  0.10179335522E+04  0.00000000000E+00 0. -1.
          1   -1    0    0  501    0  0.00000000000E+00 -0.00000000000E+00 -0.14969521669E+04  0.14969521669E+04  0.00000000000E+00 0.  1.
    2000013    1    1    2    0    0  0.12408212059E+03 -0.71615596126E+03 -0.55019242880E+03  0.13166197030E+04  0.95000000000E+03 0.  0.
   -2000013    1    1    2    0    0 -0.12408212059E+03  0.71615596126E+03  0.71173814136E+02  0.11982660161E+04  0.95000000000E+03 0.  0.
<mgrwt>
<rscale>  0 0.24688441E+04</rscale>
<asrwt>0</asrwt>
<pdfrwt beam="2">  1        1 0.23030033E+00 0.24688441E+04</pdfrwt>
<pdfrwt beam="1">  1       -1 0.15660516E+00 0.24688441E+04</pdfrwt>
<totfact> 0.18164860E+00</totfact>
</mgrwt>
</event>
<event>
 4    1  0.1295381E-008  0.2002678E+04  0.7816531E-02  0.8605369E-01
          2   -1    0    0  501    0  0.00000000000E+00  0.00000000000E+00  0.79802229808E+03  0.79802229808E+03  0.00000000000E+00 0.  1.
         -2   -1    0    0    0  501 -0.00000000000E+00 -0.00000000000E+00 -0.12564563064E+04  0.12564563064E+04  0.00000000000E+00 0. -1.
    2000013    1    1    2    0    0 -0.14222397162E+03 -0.22596744002E+03 -0.40358760400E+03  0.10661481586E+04  0.95000000000E+03 0.  0.
   -2000013    1    1    2    0    0  0.14222397162E+03  0.22596744002E+03 -0.54846404287E+02  0.98833044581E+03  0.95000000000E+03 0.  0.
<mgrwt>
<rscale>  0 0.20026784E+04</rscale>
<asrwt>0</asrwt>
<pdfrwt beam="1">  1        2 0.12277266E+00 0.20026784E+04</pdfrwt>
<pdfrwt beam="2">  1       -2 0.19330097E+00 0.20026784E+04</pdfrwt>
<totfact> 0.47263462E+00</totfact>
</mgrwt>
</event>
<event>
 4    1  0.1295381E-008  0.2536609E+04  0.7816531E-02  0.8390058E-01
          2   -1    0    0  501    0  0.00000000000E+00  0.00000000000E+00  0.23172534404E+04  0.23172534404E+04  0.00000000000E+00 0.  1.
         -2   -1    0    0    0  501 -0.00000000000E+00 -0.00000000000E+00 -0.69418248119E+03  0.69418248119E+03  0.00000000000E+00 0. -1.
    2000013    1    1    2    0    0 -0.31949627759E+03 -0.74563935641E+03  0.10717462398E+04  0.16459635244E+04  0.95000000000E+03 0.  0.
   -2000013    1    1    2    0    0  0.31949627759E+03  0.74563935641E+03  0.55132471945E+03  0.13654723972E+04  0.95000000000E+03 0.  0.
<mgrwt>
<rscale>  0 0.25366093E+04</rscale>
<asrwt>0</asrwt>
<pdfrwt beam="1">  1        2 0.35650052E+00 0.25366093E+04</pdfrwt>
<pdfrwt beam="2">  1       -2 0.10679731E+00 0.25366093E+04</pdfrwt>
<totfact> 0.27807596E+00</totfact>
</mgrwt>
</event>
<event>
 4    1  0.1295381E-008  0.2120574E+04  0.7816531E-02  0.8552234E-01
          2   -1    0    0  501    0  0.00000000000E+00  0.00000000000E+00  0.22013998577E+04  0.22013998577E+04  0.00000000000E+00 0.  1.
         -2   -1    0    0    0  501 -0.00000000000E+00 -0.00000000000E+00 -0.51067893039E+03  0.51067893039E+03  0.00000000000E+00 0. -1.
    2000013    1    1    2    0    0 -0.23711132814E+03 -0.31510115971E+03  0.51630333042E+03  0.11509038412E+04  0.95000000000E+03 0.  0.
   -2000013    1    1    2    0    0  0.23711132814E+03  0.31510115971E+03  0.11744175969E+04  0.15611749469E+04  0.95000000000E+03 0.  0.
<mgrwt>
<rscale>  0 0.21205740E+04</rscale>
<asrwt>0</asrwt>
<pdfrwt beam="1">  1        2 0.33867690E+00 0.21205740E+04</pdfrwt>
<pdfrwt beam="2">  1       -2 0.78565990E-01 0.21205740E+04</pdfrwt>
<totfact> 0.68263984E+00</totfact>
</mgrwt>
</event>
<event>
 4    1  0.1295381E-008  0.2766523E+04  0.7816531E-02  0.8313738E-01
         -2   -1    0    0    0  501 -0.00000000000E+00  0.00000000000E+00  0.12663692751E+04  0.12663692751E+04  0.00000000000E+00 0. -1.
          2   -1    0    0  501    0  0.00000000000E+00 -0.00000000000E+00 -0.15109432274E+04  0.15109432274E+04  0.00000000000E+00 0.  1.
    2000013    1    1    2    0    0 -0.58010877061E+03  0.26598102062E+03  0.65768589905E+03  0.13199707689E+04  0.95000000000E+03 0.  0.
   -2000013    1    1    2    0    0  0.58010877061E+03 -0.26598102062E+03 -0.90225985135E+03  0.14573417336E+04  0.95000000000E+03 0.  0.
<mgrwt>
<rscale>  0 0.27665228E+04</rscale>
<asrwt>0</asrwt>
<pdfrwt beam="2">  1        2 0.23245280E+00 0.27665228E+04</pdfrwt>
<pdfrwt beam="1">  1       -2 0.19482604E+00 0.27665228E+04</pdfrwt>
<totfact> 0.15714904E+00</totfact>
</mgrwt>
</event>
<event>
 4    1  0.1295381E-008  0.2646034E+04  0.7816531E-02  0.8352730E-01
         -2   -1    0    0    0  501 -0.00000000000E+00  0.00000000000E+00  0.12529072855E+04  0.12529072855E+04  0.00000000000E+00 0. -1.
          2   -1    0    0  501    0  0.00000000000E+00 -0.00000000000E+00 -0.13970499959E+04  0.13970499959E+04  0.00000000000E+00 0.  1.
    2000013    1    1    2    0    0  0.77542412264E+03 -0.48940539448E+03  0.12159873396E+02  0.13203969375E+04  0.95000000000E+03 0.  0.
   -2000013    1    1    2    0    0 -0.77542412264E+03  0.48940539448E+03 -0.15630258380E+03  0.13295603438E+04  0.95000000000E+03 0.  0.
<mgrwt>
<rscale>  0 0.26460341E+04</rscale>
<asrwt>0</asrwt>
<pdfrwt beam="2">  1        2 0.21493077E+00 0.26460341E+04</pdfrwt>
<pdfrwt beam="1">  1       -2 0.19275497E+00 0.26460341E+04</pdfrwt>
<totfact> 0.19018477E+00</totfact>
</mgrwt>
</event>
<event>
 4    1  0.1295381E-008  0.2633961E+04  0.7816531E-02  0.8356756E-01
          2   -1    0    0  501    0  0.00000000000E+00  0.00000000000E+00  0.21842098867E+04  0.21842098867E+04  0.00000000000E+00 0.  1.
         -2   -1    0    0    0  501 -0.00000000000E+00 -0.00000000000E+00 -0.79408004780E+03  0.79408004780E+03  0.00000000000E+00 0. -1.
    2000013    1    1    2    0    0 -0.91218627626E+02 -0.75227704640E+03  0.12690642754E+04  0.17570616744E+04  0.95000000000E+03 0.  0.
   -2000013    1    1    2    0    0  0.91218627626E+02  0.75227704640E+03  0.12106556349E+03  0.12212282601E+04  0.95000000000E+03 0.  0.
<mgrwt>
<rscale>  0 0.26339609E+04</rscale>
<asrwt>0</asrwt>
<pdfrwt beam="1">  1        2 0.33603229E+00 0.26339609E+04</pdfrwt>
<pdfrwt beam="2">  1       -2 0.12216616E+00 0.26339609E+04</pdfrwt>
<totfact> 0.23607728E+00</totfact>
</mgrwt>
</event>
<event>
 4    1  0.1295381E-008  0.3347243E+04  0.7816531E-02  0.8150977E-01
          1   -1    0    0  501    0  0.00000000000E+00  0.00000000000E+00  0.27278981575E+04  0.27278981575E+04  0.00000000000E+00 0.  1.
         -1   -1    0    0    0  501 -0.00000000000E+00 -0.00000000000E+00 -0.10268012674E+04  0.10268012674E+04  0.00000000000E+00 0. -1.
    2000013    1    1    2    0    0 -0.43934075909E+03 -0.81218212961E+03  0.19977043224E+04  0.23970779449E+04  0.95000000000E+03 0.  0.
   -2000013    1    1    2    0    0  0.43934075909E+03  0.81218212961E+03 -0.29660743218E+03  0.13576214800E+04  0.95000000000E+03 0.  0.
<mgrwt>
<rscale>  0 0.33472432E+04</rscale>
<asrwt>0</asrwt>
<pdfrwt beam="1">  1        1 0.41967664E+00 0.33472432E+04</pdfrwt>
<pdfrwt beam="2">  1       -1 0.15796943E+00 0.33472432E+04</pdfrwt>
<totfact> 0.23455381E-01</totfact>
</mgrwt>
</event>
<event>
 4    1  0.1295381E-008  0.2902307E+04  0.7816531E-02  0.8272192E-01
         -2   -1    0    0    0  501 -0.00000000000E+00  0.00000000000E+00  0.19705890808E+04  0.19705890808E+04  0.00000000000E+00 0. -1.
          2   -1    0    0  501    0  0.00000000000E+00 -0.00000000000E+00 -0.10686377359E+04  0.10686377359E+04  0.00000000000E+00 0.  1.
    2000013    1    1    2    0    0 -0.35197581929E+03 -0.43033343251E+03  0.14412480102E+04  0.18134965308E+04  0.95000000000E+03 0.  0.
   -2000013    1    1    2    0    0  0.35197581929E+03  0.43033343251E+03 -0.53929666532E+03  0.12257302859E+04  0.95000000000E+03 0.  0.
<mgrwt>
<rscale>  0 0.29023066E+04</rscale>
<asrwt>0</asrwt>
<pdfrwt beam="2">  1        2 0.16440581E+00 0.29023066E+04</pdfrwt>
<pdfrwt beam="1">  1       -2 0.30316755E+00 0.29023066E+04</pdfrwt>
<totfact> 0.59759814E-01</totfact>
</mgrwt>
</event>
<event>
 4    1  0.1295381E-008  0.2533650E+04  0.7816531E-02  0.8391095E-01
          2   -1    0    0  501    0  0.00000000000E+00  0.00000000000E+00  0.47135881224E+04  0.47135881224E+04  0.00000000000E+00 0.  1.
         -2   -1    0    0    0  501 -0.00000000000E+00 -0.00000000000E+00 -0.34047226291E+03  0.34047226291E+03  0.00000000000E+00 0. -1.
    2000013    1    1    2    0    0  0.53053428513E+03 -0.57490897541E+03  0.15869331234E+04  0.20081941380E+04  0.95000000000E+03 0.  0.
   -2000013    1    1    2    0    0 -0.53053428513E+03  0.57490897541E+03  0.27861827361E+04  0.30458662473E+04  0.95000000000E+03 0.  0.
<mgrwt>
<rscale>  0 0.25336503E+04</rscale>
<asrwt>0</asrwt>
<pdfrwt beam="1">  1        2 0.72516736E+00 0.25336503E+04</pdfrwt>
<pdfrwt beam="2">  1       -2 0.52380352E-01 0.25336503E+04</pdfrwt>
<totfact> 0.22849699E-01</totfact>
</mgrwt>
</event>
<event>
 4    1  0.1295381E-008  0.2330288E+04  0.7816531E-02  0.8466074E-01
          2   -1    0    0  501    0  0.00000000000E+00  0.00000000000E+00  0.19894859282E+04  0.19894859282E+04  0.00000000000E+00 0.  1.
         -2   -1    0    0    0  501 -0.00000000000E+00 -0.00000000000E+00 -0.68236761794E+03  0.68236761794E+03  0.00000000000E+00 0. -1.
    2000013    1    1    2    0    0  0.40398093962E+03  0.47263655211E+03  0.95359186310E+03  0.14827081140E+04  0.95000000000E+03 0.  0.
   -2000013    1    1    2    0    0 -0.40398093962E+03 -0.47263655211E+03  0.35352644717E+03  0.11891454322E+04  0.95000000000E+03 0.  0.
<mgrwt>
<rscale>  0 0.23302882E+04</rscale>
<asrwt>0</asrwt>
<pdfrwt beam="1">  1        2 0.30607476E+00 0.23302882E+04</pdfrwt>
<pdfrwt beam="2">  1       -2 0.10497963E+00 0.23302882E+04</pdfrwt>
<totfact> 0.45037438E+00</totfact>
</mgrwt>
</event>
<event>
 4    1  0.1295381E-008  0.3119060E+04  0.7816531E-02  0.8210527E-01
          2   -1    0    0  501    0  0.00000000000E+00  0.00000000000E+00  0.10965789839E+04  0.10965789839E+04  0.00000000000E+00 0.  1.
         -2   -1    0    0    0  501 -0.00000000000E+00 -0.00000000000E+00 -0.22179278736E+04  0.22179278736E+04  0.00000000000E+00 0. -1.
    2000013    1    1    2    0    0  0.80163920032E+02 -0.11641790310E+04 -0.12524993035E+03  0.15099425868E+04  0.95000000000E+03 0.  0.
   -2000013    1    1    2    0    0 -0.80163920032E+02  0.11641790310E+04 -0.99609895937E+03  0.18045642707E+04  0.95000000000E+03 0.  0.
<mgrwt>
<rscale>  0 0.31190595E+04</rscale>
<asrwt>0</asrwt>
<pdfrwt beam="1">  1        2 0.16870446E+00 0.31190595E+04</pdfrwt>
<pdfrwt beam="2">  1       -2 0.34121967E+00 0.31190595E+04</pdfrwt>
<totfact> 0.32777369E-01</totfact>
</mgrwt>
</event>
<event>
 4    1  0.1295381E-008  0.2356041E+04  0.7816531E-02  0.8456147E-01
         -2   -1    0    0    0  501 -0.00000000000E+00  0.00000000000E+00  0.15146730419E+04  0.15146730419E+04  0.00000000000E+00 0. -1.
          2   -1    0    0  501    0  0.00000000000E+00 -0.00000000000E+00 -0.91619263864E+03  0.91619263864E+03  0.00000000000E+00 0.  1.
    2000013    1    1    2    0    0  0.39727903848E+03 -0.49470977701E+03  0.25958750258E+01  0.11423988517E+04  0.95000000000E+03 0.  0.
   -2000013    1    1    2    0    0 -0.39727903848E+03  0.49470977701E+03  0.59588452818E+03  0.12884668288E+04  0.95000000000E+03 0.  0.
<mgrwt>
<rscale>  0 0.23560410E+04</rscale>
<asrwt>0</asrwt>
<pdfrwt beam="2">  1        2 0.14095271E+00 0.23560410E+04</pdfrwt>
<pdfrwt beam="1">  1       -2 0.23302662E+00 0.23560410E+04</pdfrwt>
<totfact> 0.21117088E+00</totfact>
</mgrwt>
</event>
<event>
 4    1  0.1295381E-008  0.2747775E+04  0.7816531E-02  0.8319668E-01
          2   -1    0    0  501    0  0.00000000000E+00  0.00000000000E+00  0.24413765592E+04  0.24413765592E+04  0.00000000000E+00 0.  1.
         -2   -1    0    0    0  501 -0.00000000000E+00 -0.00000000000E+00 -0.77315698828E+03  0.77315698828E+03  0.00000000000E+00 0. -1.
    2000013    1    1    2    0    0  0.68383263199E+03  0.34589881668E+03  0.15719562660E+04  0.19901807863E+04  0.95000000000E+03 0.  0.
   -2000013    1    1    2    0    0 -0.68383263199E+03 -0.34589881668E+03  0.96263304920E+02  0.12243527612E+04  0.95000000000E+03 0.  0.
<mgrwt>
<rscale>  0 0.27477754E+04</rscale>
<asrwt>0</asrwt>
<pdfrwt beam="1">  1        2 0.37559639E+00 0.27477754E+04</pdfrwt>
<pdfrwt beam="2">  1       -2 0.11894723E+00 0.27477754E+04</pdfrwt>
<totfact> 0.17847620E+00</totfact>
</mgrwt>
</event>
<event>
 4    1  0.1295381E-008  0.2504000E+04  0.7816531E-02  0.8401562E-01
          2   -1    0    0  501    0  0.00000000000E+00  0.00000000000E+00  0.16358161433E+04  0.16358161433E+04  0.00000000000E+00 0.  1.
         -2   -1    0    0    0  501 -0.00000000000E+00 -0.00000000000E+00 -0.95824001698E+03  0.95824001698E+03  0.00000000000E+00 0. -1.
    2000013    1    1    2    0    0  0.77743797917E+03  0.96824697316E+02  0.10433100673E+03  0.12357871145E+04  0.95000000000E+03 0.  0.
   -2000013    1    1    2    0    0 -0.77743797917E+03 -0.96824697316E+02  0.57324511956E+03  0.13582690457E+04  0.95000000000E+03 0.  0.
<mgrwt>
<rscale>  0 0.25040004E+04</rscale>
<asrwt>0</asrwt>
<pdfrwt beam="1">  1        2 0.25166402E+00 0.25040004E+04</pdfrwt>
<pdfrwt beam="2">  1       -2 0.14742154E+00 0.25040004E+04</pdfrwt>
<totfact> 0.29788949E+00</totfact>
</mgrwt>
</event>
<event>
 4    1  0.1295381E-008  0.3636335E+04  0.7816531E-02  0.8082219E-01
         -1   -1    0    0    0  501 -0.00000000000E+00  0.00000000000E+00  0.85453877109E+03  0.85453877109E+03  0.00000000000E+00 0. -1.
          1   -1    0    0  501    0  0.00000000000E+00 -0.00000000000E+00 -0.38684409480E+04  0.38684409480E+04  0.00000000000E+00 0.  1.
    2000013    1    1    2    0    0  0.15484665978E+04  0.53053512721E+02 -0.14398467796E+04  0.23186682015E+04  0.95000000000E+03 0.  0.
   -2000013    1    1    2    0    0 -0.15484665978E+04 -0.53053512721E+02 -0.15740553973E+04  0.24043115176E+04  0.95000000000E+03 0.  0.
<mgrwt>
<rscale>  0 0.36363348E+04</rscale>
<asrwt>0</asrwt>
<pdfrwt beam="2">  1        1 0.59514477E+00 0.36363348E+04</pdfrwt>
<pdfrwt beam="1">  1       -1 0.13146750E+00 0.36363348E+04</pdfrwt>
<totfact> 0.49476203E-02</totfact>
</mgrwt>
</event>
<event>
 4    1  0.1295381E-008  0.2449070E+04  0.7816531E-02  0.8421357E-01
          1   -1    0    0  501    0  0.00000000000E+00  0.00000000000E+00  0.23219506613E+04  0.23219506613E+04  0.00000000000E+00 0.  1.
         -1   -1    0    0    0  501 -0.00000000000E+00 -0.00000000000E+00 -0.64578743449E+03  0.64578743449E+03  0.00000000000E+00 0. -1.
    2000013    1    1    2    0    0 -0.14619151085E+03  0.68960691797E+03  0.12213895501E+04  0.17003594009E+04  0.95000000000E+03 0.  0.
   -2000013    1    1    2    0    0  0.14619151085E+03 -0.68960691797E+03  0.45477367668E+03  0.12673786949E+04  0.95000000000E+03 0.  0.
<mgrwt>
<rscale>  0 0.24490705E+04</rscale>
<asrwt>0</asrwt>
<pdfrwt beam="1">  1        1 0.35722317E+00 0.24490705E+04</pdfrwt>
<pdfrwt beam="2">  1       -1 0.99351914E-01 0.24490705E+04</pdfrwt>
<totfact> 0.15514507E+00</totfact>
</mgrwt>
</event>
<event>
 4    1  0.1295381E-008  0.2601572E+04  0.7816531E-02  0.8367667E-01
          2   -1    0    0  501    0  0.00000000000E+00  0.00000000000E+00  0.17252975893E+04  0.17252975893E+04  0.00000000000E+00 0.  1.
         -2   -1    0    0    0  501 -0.00000000000E+00 -0.00000000000E+00 -0.98072620256E+03  0.98072620256E+03  0.00000000000E+00 0. -1.
    2000013    1    1    2    0    0  0.81417277040E+03  0.32704142431E+03  0.51831896223E+03  0.13931934323E+04  0.95000000000E+03 0.  0.
   -2000013    1    1    2    0    0 -0.81417277040E+03 -0.32704142431E+03  0.22625242449E+03  0.13128303595E+04  0.95000000000E+03 0.  0.
<mgrwt>
<rscale>  0 0.26015723E+04</rscale>
<asrwt>0</asrwt>
<pdfrwt beam="1">  1        2 0.26543040E+00 0.26015723E+04</pdfrwt>
<pdfrwt beam="2">  1       -2 0.15088095E+00 0.26015723E+04</pdfrwt>
<totfact> 0.24774624E+00</totfact>
</mgrwt>
</event>
<event>
 4    1  0.1295381E-008  0.2365296E+04  0.7816531E-02  0.8452612E-01
          2   -1    0    0  501    0  0.00000000000E+00  0.00000000000E+00  0.32284592469E+04  0.32284592469E+04  0.00000000000E+00 0.  1.
         -2   -1    0    0    0  501 -0.00000000000E+00 -0.00000000000E+00 -0.43322712148E+03  0.43322712148E+03  0.00000000000E+00 0. -1.
    2000013    1    1    2    0    0 -0.53089523504E+03  0.99326164615E+02  0.20975858922E+04  0.23651811797E+04  0.95000000000E+03 0.  0.
   -2000013    1    1    2    0    0  0.53089523504E+03 -0.99326164615E+02  0.69764623319E+03  0.12965051887E+04  0.95000000000E+03 0.  0.
<mgrwt>
<rscale>  0 0.23652958E+04</rscale>
<asrwt>0</asrwt>
<pdfrwt beam="1">  1        2 0.49668602E+00 0.23652958E+04</pdfrwt>
<pdfrwt beam="2">  1       -2 0.66650328E-01 0.23652958E+04</pdfrwt>
<totfact> 0.23196463E+00</totfact>
</mgrwt>
</event>
<event>
 4    1  0.1295381E-008  0.2642547E+04  0.7816531E-02  0.8353891E-01
         -2   -1    0    0    0  501 -0.00000000000E+00  0.00000000000E+00  0.71446197983E+03  0.71446197983E+03  0.00000000000E+00 0. -1.
          2   -1    0    0  501    0  0.00000000000E+00 -0.00000000000E+00 -0.24434652950E+04  0.24434652950E+04  0.00000000000E+00 0.  1.
    2000013    1    1    2    0    0  0.81145523323E+03  0.42275019025E+03 -0.95772741965E+03  0.16300058679E+04  0.95000000000E+03 0.  0.
   -2000013    1    1    2    0    0 -0.81145523323E+03 -0.42275019025E+03 -0.77127589553E+03  0.15279214070E+04  0.95000000000E+03 0.  0.
<mgrwt>
<rscale>  0 0.26425465E+04</rscale>
<asrwt>0</asrwt>
<pdfrwt beam="2">  1        2 0.37591773E+00 0.26425465E+04</pdfrwt>
<pdfrwt beam="1">  1       -2 0.10991723E+00 0.26425465E+04</pdfrwt>
<totfact> 0.21771253E+00</totfact>
</mgrwt>
</event>
<event>
 4    1  0.1295381E-008  0.2657945E+04  0.7816531E-02  0.8348781E-01
         -2   -1    0    0    0  501 -0.00000000000E+00  0.00000000000E+00  0.16762638668E+04  0.16762638668E+04  0.00000000000E+00 0. -1.
          2   -1    0    0  501    0  0.00000000000E+00 -0.00000000000E+00 -0.10536335737E+04  0.10536335737E+04  0.00000000000E+00 0.  1.
    2000013    1    1    2    0    0 -0.78249495433E+03  0.40579306595E+03  0.88929205392E+01  0.12959727813E+04  0.95000000000E+03 0.  0.
   -2000013    1    1    2    0    0  0.78249495433E+03 -0.40579306595E+03  0.61373737256E+03  0.14339246592E+04  0.95000000000E+03 0.  0.
<mgrwt>
<rscale>  0 0.26579450E+04</rscale>
<asrwt>0</asrwt>
<pdfrwt beam="2">  1        2 0.16209747E+00 0.26579450E+04</pdfrwt>
<pdfrwt beam="1">  1       -2 0.25788675E+00 0.26579450E+04</pdfrwt>
<totfact> 0.11782228E+00</totfact>
</mgrwt>
</event>
<event>
 4    1  0.1295381E-008  0.3280991E+04  0.7816531E-02  0.8167749E-01
         -2   -1    0    0    0  501 -0.00000000000E+00  0.00000000000E+00  0.11112221028E+04  0.11112221028E+04  0.00000000000E+00 0.  1.
          2   -1    0    0  501    0  0.00000000000E+00 -0.00000000000E+00 -0.24218610362E+04  0.24218610362E+04  0.00000000000E+00 0. -1.
    2000013    1    1    2    0    0 -0.60111297607E+03 -0.11618140181E+04 -0.95524607804E+03  0.18778028896E+04  0.95000000000E+03 0.  0.
   -2000013    1    1    2    0    0  0.60111297607E+03  0.11618140181E+04 -0.35539285531E+03  0.16552802494E+04  0.95000000000E+03 0.  0.
<mgrwt>
<rscale>  0 0.32809910E+04</rscale>
<asrwt>0</asrwt>
<pdfrwt beam="2">  1        2 0.37259400E+00 0.32809910E+04</pdfrwt>
<pdfrwt beam="1">  1       -2 0.17095725E+00 0.32809910E+04</pdfrwt>
<totfact> 0.67780154E-01</totfact>
</mgrwt>
</event>
<event>
 4    1  0.1295381E-008  0.2366119E+04  0.7816531E-02  0.8452298E-01
          1   -1    0    0  501    0  0.00000000000E+00  0.00000000000E+00  0.13741292707E+04  0.13741292707E+04  0.00000000000E+00 0. -1.
         -1   -1    0    0    0  501 -0.00000000000E+00 -0.00000000000E+00 -0.10185578359E+04  0.10185578359E+04  0.00000000000E+00 0.  1.
    2000013    1    1    2    0    0 -0.60340817904E+03  0.15052975198E+03  0.51373506938E+03  0.12462681727E+04  0.95000000000E+03 0.  0.
   -2000013    1    1    2    0    0  0.60340817904E+03 -0.15052975198E+03 -0.15816363453E+03  0.11464189339E+04  0.95000000000E+03 0.  0.
<mgrwt>
<rscale>  0 0.23661193E+04</rscale>
<asrwt>0</asrwt>
<pdfrwt beam="1">  1        1 0.21140450E+00 0.23661193E+04</pdfrwt>
<pdfrwt beam="2">  1       -1 0.15670121E+00 0.23661193E+04</pdfrwt>
<totfact> 0.22300155E+00</totfact>
</mgrwt>
</event>
<event>
 4    1  0.1295381E-008  0.2830728E+04  0.7816531E-02  0.8293792E-01
          2   -1    0    0  501    0  0.00000000000E+00  0.00000000000E+00  0.13069960832E+04  0.13069960832E+04  0.00000000000E+00 0.  1.
         -2   -1    0    0    0  501 -0.00000000000E+00 -0.00000000000E+00 -0.15327167631E+04  0.15327167631E+04  0.00000000000E+00 0. -1.
    2000013    1    1    2    0    0 -0.32131605237E+03  0.99352113315E+03 -0.10425704299E+02  0.14117141860E+04  0.95000000000E+03 0.  0.
   -2000013    1    1    2    0    0  0.32131605237E+03 -0.99352113315E+03 -0.21529497553E+03  0.14279986604E+04  0.95000000000E+03 0.  0.
<mgrwt>
<rscale>  0 0.28307277E+04</rscale>
<asrwt>0</asrwt>
<pdfrwt beam="1">  1        2 0.20107632E+00 0.28307277E+04</pdfrwt>
<pdfrwt beam="2">  1       -2 0.23580258E+00 0.28307277E+04</pdfrwt>
<totfact> 0.11180874E+00</totfact>
</mgrwt>
</event>
<event>
 4    1  0.1295381E-008  0.2257731E+04  0.7816531E-02  0.8494776E-01
         -2   -1    0    0    0  501 -0.00000000000E+00  0.00000000000E+00  0.76112260698E+03  0.76112260698E+03  0.00000000000E+00 0. -1.
          2   -1    0    0  501    0  0.00000000000E+00 -0.00000000000E+00 -0.16742870645E+04  0.16742870645E+04  0.00000000000E+00 0.  1.
    2000013    1    1    2    0    0  0.31557013858E+03  0.46155609107E+03 -0.19408119446E+03  0.11192792536E+04  0.95000000000E+03 0.  0.
   -2000013    1    1    2    0    0 -0.31557013858E+03 -0.46155609107E+03 -0.71908326307E+03  0.13161304179E+04  0.95000000000E+03 0.  0.
<mgrwt>
<rscale>  0 0.22577314E+04</rscale>
<asrwt>0</asrwt>
<pdfrwt beam="2">  1        2 0.25758262E+00 0.22577314E+04</pdfrwt>
<pdfrwt beam="1">  1       -2 0.11709579E+00 0.22577314E+04</pdfrwt>
<totfact> 0.52025215E+00</totfact>
</mgrwt>
</event>
<event>
 4    1  0.1295381E-008  0.3464736E+04  0.7816531E-02  0.8122198E-01
         -2   -1    0    0    0  501 -0.00000000000E+00  0.00000000000E+00  0.16564432589E+04  0.16564432589E+04  0.00000000000E+00 0. -1.
          2   -1    0    0  501    0  0.00000000000E+00 -0.00000000000E+00 -0.18117727566E+04  0.18117727566E+04  0.00000000000E+00 0.  1.
    2000013    1    1    2    0    0  0.11970161813E+04 -0.59123943256E+03  0.48520509280E+03  0.17088989985E+04  0.95000000000E+03 0.  0.
   -2000013    1    1    2    0    0 -0.11970161813E+04  0.59123943256E+03 -0.64053459042E+03  0.17593170170E+04  0.95000000000E+03 0.  0.
<mgrwt>
<rscale>  0 0.34647359E+04</rscale>
<asrwt>0</asrwt>
<pdfrwt beam="2">  1        2 0.27873427E+00 0.34647359E+04</pdfrwt>
<pdfrwt beam="1">  1       -2 0.25483742E+00 0.34647359E+04</pdfrwt>
<totfact> 0.42036097E-01</totfact>
</mgrwt>
</event>
<event>
 4    1  0.1295381E-008  0.2182973E+04  0.7816531E-02  0.8525549E-01
         -2   -1    0    0    0  501 -0.00000000000E+00  0.00000000000E+00  0.25588500113E+03  0.25588500113E+03  0.00000000000E+00 0. -1.
          2   -1    0    0  501    0  0.00000000000E+00 -0.00000000000E+00 -0.46557721264E+04  0.46557721264E+04  0.00000000000E+00 0.  1.
    2000013    1    1    2    0    0  0.29326141899E+03 -0.12084127876E+03 -0.31761298652E+04  0.33303011568E+04  0.95000000000E+03 0.  0.
   -2000013    1    1    2    0    0 -0.29326141899E+03  0.12084127876E+03 -0.12237572600E+04  0.15813559707E+04  0.95000000000E+03 0.  0.
<mgrwt>
<rscale>  0 0.21829725E+04</rscale>
<asrwt>0</asrwt>
<pdfrwt beam="2">  1        2 0.71627268E+00 0.21829725E+04</pdfrwt>
<pdfrwt beam="1">  1       -2 0.39366921E-01 0.21829725E+04</pdfrwt>
<totfact> 0.48429735E-01</totfact>
</mgrwt>
</event>
<event>
 4    1  0.1295381E-008  0.2690734E+04  0.7816531E-02  0.8338018E-01
          2   -1    0    0  501    0  0.00000000000E+00  0.00000000000E+00  0.22880772987E+04  0.22880772987E+04  0.00000000000E+00 0.  1.
         -2   -1    0    0    0  501 -0.00000000000E+00 -0.00000000000E+00 -0.79106251417E+03  0.79106251417E+03  0.00000000000E+00 0. -1.
    2000013    1    1    2    0    0 -0.55474517521E+03 -0.75748675648E+03  0.93297064863E+03  0.16292521680E+04  0.95000000000E+03 0.  0.
   -2000013    1    1    2    0    0  0.55474517521E+03  0.75748675648E+03  0.56404413595E+03  0.14498876449E+04  0.95000000000E+03 0.  0.
<mgrwt>
<rscale>  0 0.26907339E+04</rscale>
<asrwt>0</asrwt>
<pdfrwt beam="1">  1        2 0.35201189E+00 0.26907339E+04</pdfrwt>
<pdfrwt beam="2">  1       -2 0.12170193E+00 0.26907339E+04</pdfrwt>
<totfact> 0.20724369E+00</totfact>
</mgrwt>
</event>
<event>
 4    1  0.1295381E-008  0.3130874E+04  0.7816531E-02  0.8207316E-01
          2   -1    0    0  501    0  0.00000000000E+00  0.00000000000E+00  0.38397210639E+04  0.38397210639E+04  0.00000000000E+00 0.  1.
         -2   -1    0    0    0  501 -0.00000000000E+00 -0.00000000000E+00 -0.63822168684E+03  0.63822168684E+03  0.00000000000E+00 0. -1.
    2000013    1    1    2    0    0 -0.61364605996E+03  0.44785876046E+03  0.30100784619E+04  0.32465691588E+04  0.95000000000E+03 0.  0.
   -2000013    1    1    2    0    0  0.61364605996E+03 -0.44785876046E+03  0.19142091520E+03  0.12313735920E+04  0.95000000000E+03 0.  0.
<mgrwt>
<rscale>  0 0.31308742E+04</rscale>
<asrwt>0</asrwt>
<pdfrwt beam="1">  1        2 0.59072630E+00 0.31308742E+04</pdfrwt>
<pdfrwt beam="2">  1       -2 0.98187954E-01 0.31308742E+04</pdfrwt>
<totfact> 0.33403575E-01</totfact>
</mgrwt>
</event>
<event>
 4    1  0.1295381E-008  0.2236721E+04  0.7816531E-02  0.8503297E-01
         -3   -1    0    0    0  501 -0.00000000000E+00  0.00000000000E+00  0.68843934845E+03  0.68843934845E+03  0.00000000000E+00 0. -1.
          3   -1    0    0  501    0  0.00000000000E+00 -0.00000000000E+00 -0.18167624632E+04  0.18167624632E+04  0.00000000000E+00 0.  1.
    2000013    1    1    2    0    0 -0.21876341180E+03 -0.53119027367E+03 -0.71530472236E+03  0.13206745939E+04  0.95000000000E+03 0.  0.
   -2000013    1    1    2    0    0  0.21876341180E+03  0.53119027367E+03 -0.41301839243E+03  0.11845272178E+04  0.95000000000E+03 0.  0.
<mgrwt>
<rscale>  0 0.22367215E+04</rscale>
<asrwt>0</asrwt>
<pdfrwt beam="2">  1        3 0.27950192E+00 0.22367215E+04</pdfrwt>
<pdfrwt beam="1">  1       -3 0.10591375E+00 0.22367215E+04</pdfrwt>
<totfact> 0.91249907E-02</totfact>
</mgrwt>
</event>
<event>
 4    1  0.1295381E-008  0.3136683E+04  0.7816531E-02  0.8205742E-01
         -2   -1    0    0    0  501 -0.00000000000E+00  0.00000000000E+00  0.10474288622E+04  0.10474288622E+04  0.00000000000E+00 0. -1.
          2   -1    0    0  501    0  0.00000000000E+00 -0.00000000000E+00 -0.23483166678E+04  0.23483166678E+04  0.00000000000E+00 0.  1.
    2000013    1    1    2    0    0  0.32879523799E+03  0.87099239739E+03  0.24912408253E+03  0.13532541791E+04  0.95000000000E+03 0.  0.
   -2000013    1    1    2    0    0 -0.32879523799E+03 -0.87099239739E+03 -0.15500118881E+04  0.20424913508E+04  0.95000000000E+03 0.  0.
<mgrwt>
<rscale>  0 0.31366827E+04</rscale>
<asrwt>0</asrwt>
<pdfrwt beam="2">  1        2 0.36127949E+00 0.31366827E+04</pdfrwt>
<pdfrwt beam="1">  1       -2 0.16114290E+00 0.31366827E+04</pdfrwt>
<totfact> 0.88980297E-01</totfact>
</mgrwt>
</event>
<event>
 4    1  0.1295381E-008  0.2800357E+04  0.7816531E-02  0.8303157E-01
          2   -1    0    0  501    0  0.00000000000E+00  0.00000000000E+00  0.21842829274E+04  0.21842829274E+04  0.00000000000E+00 0.  1.
         -2   -1    0    0    0  501 -0.00000000000E+00 -0.00000000000E+00 -0.89754872884E+03  0.89754872884E+03  0.00000000000E+00 0. -1.
    2000013    1    1    2    0    0 -0.35052944625E+03 -0.92035624272E+03  0.31676500559E+03  0.14045520905E+04  0.95000000000E+03 0.  0.
   -2000013    1    1    2    0    0  0.35052944625E+03  0.92035624272E+03  0.96996919295E+03  0.16772795657E+04  0.95000000000E+03 0.  0.
<mgrwt>
<rscale>  0 0.28003574E+04</rscale>
<asrwt>0</asrwt>
<pdfrwt beam="1">  1        2 0.33604353E+00 0.28003574E+04</pdfrwt>
<pdfrwt beam="2">  1       -2 0.13808442E+00 0.28003574E+04</pdfrwt>
<totfact> 0.17068813E+00</totfact>
</mgrwt>
</event>
<event>
 4    1  0.1295381E-008  0.1975297E+04  0.7816531E-02  0.8618258E-01
          2   -1    0    0  501    0  0.00000000000E+00  0.00000000000E+00  0.36337752442E+04  0.36337752442E+04  0.00000000000E+00 0.  1.
         -2   -1    0    0    0  501 -0.00000000000E+00 -0.00000000000E+00 -0.26843964901E+03  0.26843964901E+03  0.00000000000E+00 0. -1.
    2000013    1    1    2    0    0 -0.11374059051E+03  0.24484460546E+03  0.16984160042E+04  0.19646889642E+04  0.95000000000E+03 0.  0.
   -2000013    1    1    2    0    0  0.11374059051E+03 -0.24484460546E+03  0.16669195910E+04  0.19375259290E+04  0.95000000000E+03 0.  0.
<mgrwt>
<rscale>  0 0.19752968E+04</rscale>
<asrwt>0</asrwt>
<pdfrwt beam="1">  1        2 0.55904231E+00 0.19752968E+04</pdfrwt>
<pdfrwt beam="2">  1       -2 0.41298410E-01 0.19752968E+04</pdfrwt>
<totfact> 0.33987489E+00</totfact>
</mgrwt>
</event>
<event>
 4    1  0.1295381E-008  0.2110608E+04  0.7816531E-02  0.8556585E-01
          2   -1    0    0  501    0  0.00000000000E+00  0.00000000000E+00  0.64826251127E+03  0.64826251127E+03  0.00000000000E+00 0.  1.
         -2   -1    0    0    0  501 -0.00000000000E+00 -0.00000000000E+00 -0.17179247374E+04  0.17179247374E+04  0.00000000000E+00 0. -1.
    2000013    1    1    2    0    0  0.21100725151E+03  0.34969441378E+03 -0.77094285834E+03  0.12898306610E+04  0.95000000000E+03 0.  0.
   -2000013    1    1    2    0    0 -0.21100725151E+03 -0.34969441378E+03 -0.29871936784E+03  0.10763565877E+04  0.95000000000E+03 0.  0.
<mgrwt>
<rscale>  0 0.21106077E+04</rscale>
<asrwt>0</asrwt>
<pdfrwt beam="1">  1        2 0.99732694E-01 0.21106077E+04</pdfrwt>
<pdfrwt beam="2">  1       -2 0.26429611E+00 0.21106077E+04</pdfrwt>
<totfact> 0.21814473E+00</totfact>
</mgrwt>
</event>
<event>
 4    1  0.1295381E-008  0.2201562E+04  0.7816531E-02  0.8517778E-01
          2   -1    0    0  501    0  0.00000000000E+00  0.00000000000E+00  0.33714557135E+04  0.33714557135E+04  0.00000000000E+00 0.  1.
         -2   -1    0    0    0  501 -0.00000000000E+00 -0.00000000000E+00 -0.35940507399E+03  0.35940507399E+03  0.00000000000E+00 0. -1.
    2000013    1    1    2    0    0 -0.51068000948E+02  0.38175545894E+03  0.82632111294E+03  0.13166821001E+04  0.95000000000E+03 0.  0.
   -2000013    1    1    2    0    0  0.51068000948E+02 -0.38175545894E+03  0.21857295266E+04  0.24141786874E+04  0.95000000000E+03 0.  0.
<mgrwt>
<rscale>  0 0.22015615E+04</rscale>
<asrwt>0</asrwt>
<pdfrwt beam="1">  1        2 0.51868547E+00 0.22015615E+04</pdfrwt>
<pdfrwt beam="2">  1       -2 0.55293091E-01 0.22015615E+04</pdfrwt>
<totfact> 0.28096720E+00</totfact>
</mgrwt>
</event>
<event>
 4    1  0.1295381E-008  0.2314288E+04  0.7816531E-02  0.8472309E-01
          2   -1    0    0  501    0  0.00000000000E+00  0.00000000000E+00  0.71597033238E+03  0.71597033238E+03  0.00000000000E+00 0.  1.
         -2   -1    0    0    0  501 -0.00000000000E+00 -0.00000000000E+00 -0.18701645151E+04  0.18701645151E+04  0.00000000000E+00 0. -1.
    2000013    1    1    2    0    0  0.25506269401E+03  0.44623963083E+03 -0.10409398148E+04  0.15000808259E+04  0.95000000000E+03 0.  0.
   -2000013    1    1    2    0    0 -0.25506269401E+03 -0.44623963083E+03 -0.11325436788E+03  0.10860540216E+04  0.95000000000E+03 0.  0.
<mgrwt>
<rscale>  0 0.23142881E+04</rscale>
<asrwt>0</asrwt>
<pdfrwt beam="1">  1        2 0.11014928E+00 0.23142881E+04</pdfrwt>
<pdfrwt beam="2">  1       -2 0.28771761E+00 0.23142881E+04</pdfrwt>
<totfact> 0.13624911E+00</totfact>
</mgrwt>
</event>
<event>
 4    1  0.1295381E-008  0.2063361E+04  0.7816531E-02  0.8577557E-01
         -2   -1    0    0    0  501 -0.00000000000E+00  0.00000000000E+00  0.43336413560E+03  0.43336413560E+03  0.00000000000E+00 0. -1.
          2   -1    0    0  501    0  0.00000000000E+00 -0.00000000000E+00 -0.24560510400E+04  0.24560510400E+04  0.00000000000E+00 0.  1.
    2000013    1    1    2    0    0  0.38310041528E+03  0.97973868761E+02 -0.11151922477E+04  0.15174052051E+04  0.95000000000E+03 0.  0.
   -2000013    1    1    2    0    0 -0.38310041528E+03 -0.97973868761E+02 -0.90749465667E+03  0.13720099705E+04  0.95000000000E+03 0.  0.
<mgrwt>
<rscale>  0 0.20633608E+04</rscale>
<asrwt>0</asrwt>
<pdfrwt beam="2">  1        2 0.37785401E+00 0.20633608E+04</pdfrwt>
<pdfrwt beam="1">  1       -2 0.66671405E-01 0.20633608E+04</pdfrwt>
<totfact> 0.70530843E+00</totfact>
</mgrwt>
</event>
<event>
 4    1  0.1295381E-008  0.4386816E+04  0.7816531E-02  0.7930757E-01
         -1   -1    0    0    0  501 -0.00000000000E+00  0.00000000000E+00  0.15123403756E+04  0.15123403756E+04  0.00000000000E+00 0. -1.
          1   -1    0    0  501    0  0.00000000000E+00 -0.00000000000E+00 -0.31811874115E+04  0.31811874115E+04  0.00000000000E+00 0.  1.
    2000013    1    1    2    0    0  0.57350476306E+03 -0.13704660217E+04 -0.22300204879E+04  0.28429871977E+04  0.95000000000E+03 0.  0.
   -2000013    1    1    2    0    0 -0.57350476306E+03  0.13704660217E+04  0.56117345191E+03  0.18505405894E+04  0.95000000000E+03 0.  0.
<mgrwt>
<rscale>  0 0.43868158E+04</rscale>
<asrwt>0</asrwt>
<pdfrwt beam="2">  1        1 0.48941344E+00 0.43868158E+04</pdfrwt>
<pdfrwt beam="1">  1       -1 0.23266775E+00 0.43868158E+04</pdfrwt>
<totfact> 0.30160366E-02</totfact>
</mgrwt>
</event>
<event>
 4    1  0.1295381E-008  0.2439672E+04  0.7816531E-02  0.8424798E-01
         -2   -1    0    0    0  501 -0.00000000000E+00  0.00000000000E+00  0.66678904534E+03  0.66678904534E+03  0.00000000000E+00 0. -1.
          2   -1    0    0  501    0  0.00000000000E+00 -0.00000000000E+00 -0.22315910473E+04  0.22315910473E+04  0.00000000000E+00 0.  1.
    2000013    1    1    2    0    0  0.74671458259E+03  0.16405474400E+03 -0.74476049626E+03  0.14288683717E+04  0.95000000000E+03 0.  0.
   -2000013    1    1    2    0    0 -0.74671458259E+03 -0.16405474400E+03 -0.82004150569E+03  0.14695117209E+04  0.95000000000E+03 0.  0.
<mgrwt>
<rscale>  0 0.24396725E+04</rscale>
<asrwt>0</asrwt>
<pdfrwt beam="2">  1        2 0.34332170E+00 0.24396725E+04</pdfrwt>
<pdfrwt beam="1">  1       -2 0.10258293E+00 0.24396725E+04</pdfrwt>
<totfact> 0.34525877E+00</totfact>
</mgrwt>
</event>
<event>
 4    1  0.1295381E-008  0.2429487E+04  0.7816531E-02  0.8428546E-01
         -2   -1    0    0    0  501 -0.00000000000E+00  0.00000000000E+00  0.13108498006E+04  0.13108498006E+04  0.00000000000E+00 0. -1.
          2   -1    0    0  501    0  0.00000000000E+00 -0.00000000000E+00 -0.11256835481E+04  0.11256835481E+04  0.00000000000E+00 0.  1.
    2000013    1    1    2    0    0 -0.61432940502E+03 -0.43046088743E+03  0.19488318442E+03  0.12260410470E+04  0.95000000000E+03 0.  0.
   -2000013    1    1    2    0    0  0.61432940502E+03  0.43046088743E+03 -0.97169319278E+01  0.12104923016E+04  0.95000000000E+03 0.  0.
<mgrwt>
<rscale>  0 0.24294872E+04</rscale>
<asrwt>0</asrwt>
<pdfrwt beam="2">  1        2 0.17318208E+00 0.24294872E+04</pdfrwt>
<pdfrwt beam="1">  1       -2 0.20166920E+00 0.24294872E+04</pdfrwt>
<totfact> 0.24437812E+00</totfact>
</mgrwt>
</event>
<event>
 4    1  0.1295381E-008  0.3264225E+04  0.7816531E-02  0.8172059E-01
         -2   -1    0    0    0  501 -0.00000000000E+00  0.00000000000E+00  0.23457134772E+04  0.23457134772E+04  0.00000000000E+00 0.  1.
          2   -1    0    0  501    0  0.00000000000E+00 -0.00000000000E+00 -0.11355993534E+04  0.11355993534E+04  0.00000000000E+00 0. -1.
    2000013    1    1    2    0    0  0.32874648527E+03  0.92529529459E+03 -0.34709090921E+03  0.14096871046E+04  0.95000000000E+03 0.  0.
   -2000013    1    1    2    0    0 -0.32874648527E+03 -0.92529529459E+03  0.15572050330E+04  0.20716257260E+04  0.95000000000E+03 0.  0.
<mgrwt>
<rscale>  0 0.32642247E+04</rscale>
<asrwt>0</asrwt>
<pdfrwt beam="2">  1        2 0.17470759E+00 0.32642247E+04</pdfrwt>
<pdfrwt beam="1">  1       -2 0.36087899E+00 0.32642247E+04</pdfrwt>
<totfact> 0.23025281E-01</totfact>
</mgrwt>
</event>
<event>
 4    1  0.1295381E-008  0.4134255E+04  0.7816531E-02  0.7977997E-01
          2   -1    0    0  501    0  0.00000000000E+00  0.00000000000E+00  0.43894920235E+04  0.43894920235E+04  0.00000000000E+00 0.  1.
         -2   -1    0    0    0  501 -0.00000000000E+00 -0.00000000000E+00 -0.97346481090E+03  0.97346481090E+03  0.00000000000E+00 0. -1.
    2000013    1    1    2    0    0  0.10017123082E+04 -0.11025517343E+04  0.31603356110E+03  0.17948328855E+04  0.95000000000E+03 0.  0.
   -2000013    1    1    2    0    0 -0.10017123082E+04  0.11025517343E+04  0.30999936515E+04  0.35681239489E+04  0.95000000000E+03 0.  0.
<mgrwt>
<rscale>  0 0.41342550E+04</rscale>
<asrwt>0</asrwt>
<pdfrwt beam="1">  1        2 0.67530645E+00 0.41342550E+04</pdfrwt>
<pdfrwt beam="2">  1       -2 0.14976382E+00 0.41342550E+04</pdfrwt>
<totfact> 0.36620167E-02</totfact>
</mgrwt>
</event>
<event>
 4    1  0.1295381E-008  0.2178082E+04  0.7816531E-02  0.8527607E-01
         -2   -1    0    0    0  501 -0.00000000000E+00  0.00000000000E+00  0.11799035376E+04  0.11799035376E+04  0.00000000000E+00 0. -1.
          2   -1    0    0  501    0  0.00000000000E+00 -0.00000000000E+00 -0.10051753037E+04  0.10051753037E+04  0.00000000000E+00 0.  1.
    2000013    1    1    2    0    0 -0.19070907398E+03  0.49705513074E+03  0.78610098892E+02  0.10918394120E+04  0.95000000000E+03 0.  0.
   -2000013    1    1    2    0    0  0.19070907398E+03 -0.49705513074E+03  0.96118135071E+02  0.10932394293E+04  0.95000000000E+03 0.  0.
<mgrwt>
<rscale>  0 0.21780816E+04</rscale>
<asrwt>0</asrwt>
<pdfrwt beam="2">  1        2 0.15464235E+00 0.21780816E+04</pdfrwt>
<pdfrwt beam="1">  1       -2 0.18152362E+00 0.21780816E+04</pdfrwt>
<totfact> 0.40502778E+00</totfact>
</mgrwt>
</event>
<event>
 4    1  0.1295381E-008  0.3203332E+04  0.7816531E-02  0.8187938E-01
         -2   -1    0    0    0  501 -0.00000000000E+00  0.00000000000E+00  0.65667331446E+03  0.65667331446E+03  0.00000000000E+00 0. -1.
          2   -1    0    0  501    0  0.00000000000E+00 -0.00000000000E+00 -0.39065600625E+04  0.39065600625E+04  0.00000000000E+00 0.  1.
    2000013    1    1    2    0    0 -0.10112560438E+03  0.51297040582E+03  0.54228436579E+02  0.10857282111E+04  0.95000000000E+03 0.  0.
   -2000013    1    1    2    0    0  0.10112560438E+03 -0.51297040582E+03 -0.33041151846E+04  0.34775051658E+04  0.95000000000E+03 0.  0.
<mgrwt>
<rscale>  0 0.32033319E+04</rscale>
<asrwt>0</asrwt>
<pdfrwt beam="2">  1        2 0.60100924E+00 0.32033319E+04</pdfrwt>
<pdfrwt beam="1">  1       -2 0.10102666E+00 0.32033319E+04</pdfrwt>
<totfact> 0.27524267E-01</totfact>
</mgrwt>
</event>
<event>
 4    1  0.1295381E-008  0.2499946E+04  0.7816531E-02  0.8403005E-01
          2   -1    0    0  501    0  0.00000000000E+00  0.00000000000E+00  0.38259503604E+04  0.38259503604E+04  0.00000000000E+00 0.  1.
         -2   -1    0    0    0  501 -0.00000000000E+00 -0.00000000000E+00 -0.40837752987E+03  0.40837752987E+03  0.00000000000E+00 0. -1.
    2000013    1    1    2    0    0  0.72766631634E+03 -0.33377123214E+03  0.19424444741E+04  0.23057519464E+04  0.95000000000E+03 0.  0.
   -2000013    1    1    2    0    0 -0.72766631634E+03  0.33377123214E+03  0.14751283564E+04  0.19285759438E+04  0.95000000000E+03 0.  0.
<mgrwt>
<rscale>  0 0.24999457E+04</rscale>
<asrwt>0</asrwt>
<pdfrwt beam="1">  1        2 0.58860772E+00 0.24999457E+04</pdfrwt>
<pdfrwt beam="2">  1       -2 0.62827315E-01 0.24999457E+04</pdfrwt>
<totfact> 0.98525590E-01</totfact>
</mgrwt>
</event>
<event>
 4    1  0.1295381E-008  0.2945836E+04  0.7816531E-02  0.8259369E-01
          2   -1    0    0  501    0  0.00000000000E+00  0.00000000000E+00  0.13794738975E+04  0.13794738975E+04  0.00000000000E+00 0.  1.
         -2   -1    0    0    0  501 -0.00000000000E+00 -0.00000000000E+00 -0.15726914381E+04  0.15726914381E+04  0.00000000000E+00 0. -1.
    2000013    1    1    2    0    0 -0.32549588528E+03  0.10713054997E+04 -0.21237209817E+03  0.14836593117E+04  0.95000000000E+03 0.  0.
   -2000013    1    1    2    0    0  0.32549588528E+03 -0.10713054997E+04  0.19154557603E+02  0.14685060239E+04  0.95000000000E+03 0.  0.
<mgrwt>
<rscale>  0 0.29458356E+04</rscale>
<asrwt>0</asrwt>
<pdfrwt beam="1">  1        2 0.21222676E+00 0.29458356E+04</pdfrwt>
<pdfrwt beam="2">  1       -2 0.24195253E+00 0.29458356E+04</pdfrwt>
<totfact> 0.92104283E-01</totfact>
</mgrwt>
</event>
<event>
 4    1  0.1295381E-008  0.2493135E+04  0.7816531E-02  0.8405435E-01
         -2   -1    0    0    0  501 -0.00000000000E+00  0.00000000000E+00  0.15086044870E+04  0.15086044870E+04  0.00000000000E+00 0. -1.
          2   -1    0    0  501    0  0.00000000000E+00 -0.00000000000E+00 -0.10300446620E+04  0.10300446620E+04  0.00000000000E+00 0.  1.
    2000013    1    1    2    0    0  0.48574059983E+03  0.44206671218E+03 -0.23839294748E+03  0.11792786379E+04  0.95000000000E+03 0.  0.
   -2000013    1    1    2    0    0 -0.48574059983E+03 -0.44206671218E+03  0.71695277253E+03  0.13593705111E+04  0.95000000000E+03 0.  0.
<mgrwt>
<rscale>  0 0.24931346E+04</rscale>
<asrwt>0</asrwt>
<pdfrwt beam="2">  1        2 0.15846841E+00 0.24931346E+04</pdfrwt>
<pdfrwt beam="1">  1       -2 0.23209300E+00 0.24931346E+04</pdfrwt>
<totfact> 0.17838100E+00</totfact>
</mgrwt>
</event>
<event>
 4    1  0.1295381E-008  0.3575103E+04  0.7816531E-02  0.8096219E-01
         -2   -1    0    0    0  501 -0.00000000000E+00  0.00000000000E+00  0.14286915465E+04  0.14286915465E+04  0.00000000000E+00 0. -1.
          2   -1    0    0  501    0  0.00000000000E+00 -0.00000000000E+00 -0.22365498444E+04  0.22365498444E+04  0.00000000000E+00 0.  1.
    2000013    1    1    2    0    0 -0.10563926899E+04  0.40662096464E+03 -0.14350373554E+04  0.20598879425E+04  0.95000000000E+03 0.  0.
   -2000013    1    1    2    0    0  0.10563926899E+04 -0.40662096464E+03  0.62717905757E+03  0.16053534484E+04  0.95000000000E+03 0.  0.
<mgrwt>
<rscale>  0 0.35751027E+04</rscale>
<asrwt>0</asrwt>
<pdfrwt beam="2">  1        2 0.34408459E+00 0.35751027E+04</pdfrwt>
<pdfrwt beam="1">  1       -2 0.21979870E+00 0.35751027E+04</pdfrwt>
<totfact> 0.39868044E-01</totfact>
</mgrwt>
</event>
<event>
 4    1  0.1295381E-008  0.4463813E+04  0.7816531E-02  0.7917003E-01
         -2   -1    0    0    0  501 -0.00000000000E+00  0.00000000000E+00  0.27252344226E+04  0.27252344226E+04  0.00000000000E+00 0. -1.
          2   -1    0    0  501    0  0.00000000000E+00 -0.00000000000E+00 -0.18278817253E+04  0.18278817253E+04  0.00000000000E+00 0.  1.
    2000013    1    1    2    0    0 -0.13769643924E+04  0.73286659433E+03 -0.85986932133E+03  0.20186628329E+04  0.95000000000E+03 0.  0.
   -2000013    1    1    2    0    0  0.13769643924E+04 -0.73286659433E+03  0.17572220187E+04  0.25344533150E+04  0.95000000000E+03 0.  0.
<mgrwt>
<rscale>  0 0.44638128E+04</rscale>
<asrwt>0</asrwt>
<pdfrwt beam="2">  1        2 0.28121257E+00 0.44638128E+04</pdfrwt>
<pdfrwt beam="1">  1       -2 0.41926683E+00 0.44638128E+04</pdfrwt>
<totfact> 0.35095532E-02</totfact>
</mgrwt>
</event>
<event>
 4    1  0.1295381E-008  0.2481728E+04  0.7816531E-02  0.8409524E-01
         -2   -1    0    0    0  501 -0.00000000000E+00  0.00000000000E+00  0.44192901109E+03  0.44192901109E+03  0.00000000000E+00 0. -1.
          2   -1    0    0  501    0  0.00000000000E+00 -0.00000000000E+00 -0.34841414983E+04  0.34841414983E+04  0.00000000000E+00 0.  1.
    2000013    1    1    2    0    0 -0.47342591477E+03  0.56308618531E+03 -0.20113831787E+04  0.23429384201E+04  0.95000000000E+03 0.  0.
   -2000013    1    1    2    0    0  0.47342591477E+03 -0.56308618531E+03 -0.10308293085E+04  0.15831320893E+04  0.95000000000E+03 0.  0.
<mgrwt>
<rscale>  0 0.24817278E+04</rscale>
<asrwt>0</asrwt>
<pdfrwt beam="2">  1        2 0.53602175E+00 0.24817278E+04</pdfrwt>
<pdfrwt beam="1">  1       -2 0.67989082E-01 0.24817278E+04</pdfrwt>
<totfact> 0.14776586E+00</totfact>
</mgrwt>
</event>
<event>
 4    1  0.1295381E-008  0.2057465E+04  0.7816531E-02  0.8580215E-01
          2   -1    0    0  501    0  0.00000000000E+00  0.00000000000E+00  0.21141756864E+04  0.21141756864E+04  0.00000000000E+00 0.  1.
         -2   -1    0    0    0  501 -0.00000000000E+00 -0.00000000000E+00 -0.50056893861E+03  0.50056893861E+03  0.00000000000E+00 0. -1.
    2000013    1    1    2    0    0 -0.14877665793E+03  0.29829216478E+03  0.10754265706E+04  0.14731446020E+04  0.95000000000E+03 0.  0.
   -2000013    1    1    2    0    0  0.14877665793E+03 -0.29829216478E+03  0.53818017715E+03  0.11416000230E+04  0.95000000000E+03 0.  0.
<mgrwt>
<rscale>  0 0.20574651E+04</rscale>
<asrwt>0</asrwt>
<pdfrwt beam="1">  1        2 0.32525779E+00 0.20574651E+04</pdfrwt>
<pdfrwt beam="2">  1       -2 0.77010607E-01 0.20574651E+04</pdfrwt>
<totfact> 0.80317624E+00</totfact>
</mgrwt>
</event>
<event>
 4    1  0.1295381E-008  0.2388865E+04  0.7816531E-02  0.8443684E-01
          2   -1    0    0  501    0  0.00000000000E+00  0.00000000000E+00  0.19617691558E+04  0.19617691558E+04  0.00000000000E+00 0.  1.
         -2   -1    0    0    0  501 -0.00000000000E+00 -0.00000000000E+00 -0.72723575354E+03  0.72723575354E+03  0.00000000000E+00 0. -1.
    2000013    1    1    2    0    0  0.65507364428E+03  0.12319809371E+03  0.93538621063E+03  0.14905524522E+04  0.95000000000E+03 0.  0.
   -2000013    1    1    2    0    0 -0.65507364428E+03 -0.12319809371E+03  0.29914719162E+03  0.11984524571E+04  0.95000000000E+03 0.  0.
<mgrwt>
<rscale>  0 0.23888647E+04</rscale>
<asrwt>0</asrwt>
<pdfrwt beam="1">  1        2 0.30181064E+00 0.23888647E+04</pdfrwt>
<pdfrwt beam="2">  1       -2 0.11188242E+00 0.23888647E+04</pdfrwt>
<totfact> 0.39817314E+00</totfact>
</mgrwt>
</event>
<event>
 4    1  0.1295381E-008  0.3082112E+04  0.7816531E-02  0.8220664E-01
         -2   -1    0    0    0  501 -0.00000000000E+00  0.00000000000E+00  0.12080669893E+04  0.12080669893E+04  0.00000000000E+00 0. -1.
          2   -1    0    0  501    0  0.00000000000E+00 -0.00000000000E+00 -0.19658299063E+04  0.19658299063E+04  0.00000000000E+00 0.  1.
    2000013    1    1    2    0    0 -0.11767814329E+04 -0.55032110205E+02 -0.67824666764E+03  0.16584214230E+04  0.95000000000E+03 0.  0.
   -2000013    1    1    2    0    0  0.11767814329E+04  0.55032110205E+02 -0.79516249327E+02  0.15154754726E+04  0.95000000000E+03 0.  0.
<mgrwt>
<rscale>  0 0.30821124E+04</rscale>
<asrwt>0</asrwt>
<pdfrwt beam="2">  1        2 0.30243537E+00 0.30821124E+04</pdfrwt>
<pdfrwt beam="1">  1       -2 0.18585646E+00 0.30821124E+04</pdfrwt>
<totfact> 0.98125381E-01</totfact>
</mgrwt>
</event>
<event>
 4    1  0.1295381E-008  0.2760720E+04  0.7816531E-02  0.8315568E-01
          2   -1    0    0  501    0  0.00000000000E+00  0.00000000000E+00  0.14023725810E+04  0.14023725810E+04  0.00000000000E+00 0.  1.
         -2   -1    0    0    0  501 -0.00000000000E+00 -0.00000000000E+00 -0.13586929016E+04  0.13586929016E+04  0.00000000000E+00 0. -1.
    2000013    1    1    2    0    0  0.72025663939E+03  0.23066908154E+03  0.67836378511E+03  0.13909188606E+04  0.95000000000E+03 0.  0.
   -2000013    1    1    2    0    0 -0.72025663939E+03 -0.23066908154E+03 -0.63468410575E+03  0.13701466220E+04  0.95000000000E+03 0.  0.
<mgrwt>
<rscale>  0 0.27607200E+04</rscale>
<asrwt>0</asrwt>
<pdfrwt beam="1">  1        2 0.21574963E+00 0.27607200E+04</pdfrwt>
<pdfrwt beam="2">  1       -2 0.20902968E+00 0.27607200E+04</pdfrwt>
<totfact> 0.14629921E+00</totfact>
</mgrwt>
</event>
<event>
 4    1  0.1295381E-008  0.2541844E+04  0.7816531E-02  0.8388228E-01
         -2   -1    0    0    0  501 -0.00000000000E+00  0.00000000000E+00  0.14761948156E+04  0.14761948156E+04  0.00000000000E+00 0. -1.
          2   -1    0    0  501    0  0.00000000000E+00 -0.00000000000E+00 -0.10941932718E+04  0.10941932718E+04  0.00000000000E+00 0.  1.
    2000013    1    1    2    0    0  0.48280702816E+03  0.15351683290E+03 -0.49191436233E+03  0.11837017294E+04  0.95000000000E+03 0.  0.
   -2000013    1    1    2    0    0 -0.48280702816E+03 -0.15351683290E+03  0.87391590616E+03  0.13866863580E+04  0.95000000000E+03 0.  0.
<mgrwt>
<rscale>  0 0.25418438E+04</rscale>
<asrwt>0</asrwt>
<pdfrwt beam="2">  1        2 0.16833743E+00 0.25418438E+04</pdfrwt>
<pdfrwt beam="1">  1       -2 0.22710690E+00 0.25418438E+04</pdfrwt>
<totfact> 0.17403408E+00</totfact>
</mgrwt>
</event>
<event>
 4    1  0.1295381E-008  0.3568543E+04  0.7816531E-02  0.8097735E-01
          2   -1    0    0  501    0  0.00000000000E+00  0.00000000000E+00  0.23830696610E+04  0.23830696610E+04  0.00000000000E+00 0.  1.
         -2   -1    0    0    0  501 -0.00000000000E+00 -0.00000000000E+00 -0.13359346424E+04  0.13359346424E+04  0.00000000000E+00 0. -1.
    2000013    1    1    2    0    0 -0.96197026538E+03 -0.11462287502E+04  0.73688834135E+03  0.19195654630E+04  0.95000000000E+03 0.  0.
   -2000013    1    1    2    0    0  0.96197026538E+03  0.11462287502E+04  0.31024667731E+03  0.17994388403E+04  0.95000000000E+03 0.  0.
<mgrwt>
<rscale>  0 0.35685433E+04</rscale>
<asrwt>0</asrwt>
<pdfrwt beam="1">  1        2 0.36662610E+00 0.35685433E+04</pdfrwt>
<pdfrwt beam="2">  1       -2 0.20552841E+00 0.35685433E+04</pdfrwt>
<totfact> 0.40654807E-01</totfact>
</mgrwt>
</event>
<event>
 4    1  0.1295381E-008  0.2690209E+04  0.7816531E-02  0.8338189E-01
          2   -1    0    0  501    0  0.00000000000E+00  0.00000000000E+00  0.17715487176E+04  0.17715487176E+04  0.00000000000E+00 0.  1.
         -2   -1    0    0    0  501 -0.00000000000E+00 -0.00000000000E+00 -0.10213134278E+04  0.10213134278E+04  0.00000000000E+00 0. -1.
    2000013    1    1    2    0    0  0.95066700873E+03 -0.31476518975E+02  0.32813643223E+03  0.13838106991E+04  0.95000000000E+03 0.  0.
   -2000013    1    1    2    0    0 -0.95066700873E+03  0.31476518975E+02  0.42209885757E+03  0.14090514463E+04  0.95000000000E+03 0.  0.
<mgrwt>
<rscale>  0 0.26902093E+04</rscale>
<asrwt>0</asrwt>
<pdfrwt beam="1">  1        2 0.27254596E+00 0.26902093E+04</pdfrwt>
<pdfrwt beam="2">  1       -2 0.15712514E+00 0.26902093E+04</pdfrwt>
<totfact> 0.20793060E+00</totfact>
</mgrwt>
</event>
<event>
 4    1  0.1295381E-008  0.3244590E+04  0.7816531E-02  0.8177139E-01
          2   -1    0    0  501    0  0.00000000000E+00  0.00000000000E+00  0.12134355944E+04  0.12134355944E+04  0.00000000000E+00 0.  1.
         -2   -1    0    0    0  501 -0.00000000000E+00 -0.00000000000E+00 -0.21689175949E+04  0.21689175949E+04  0.00000000000E+00 0. -1.
    2000013    1    1    2    0    0  0.11442052392E+04  0.64391872507E+03 -0.55508597356E+03  0.17130258001E+04  0.95000000000E+03 0.  0.
   -2000013    1    1    2    0    0 -0.11442052392E+04 -0.64391872507E+03 -0.40039602693E+03  0.16693273892E+04  0.95000000000E+03 0.  0.
<mgrwt>
<rscale>  0 0.32445905E+04</rscale>
<asrwt>0</asrwt>
<pdfrwt beam="1">  1        2 0.18668240E+00 0.32445905E+04</pdfrwt>
<pdfrwt beam="2">  1       -2 0.33367963E+00 0.32445905E+04</pdfrwt>
<totfact> 0.30710424E-01</totfact>
</mgrwt>
</event>
<event>
 4    1  0.1295381E-008  0.2742040E+04  0.7816531E-02  0.8321492E-01
         -1   -1    0    0    0  501 -0.00000000000E+00  0.00000000000E+00  0.54830818100E+03  0.54830818100E+03  0.00000000000E+00 0.  1.
          1   -1    0    0  501    0  0.00000000000E+00 -0.00000000000E+00 -0.34281742122E+04  0.34281742122E+04  0.00000000000E+00 0. -1.
    2000013    1    1    2    0    0  0.87822430737E+03 -0.28034814155E+03 -0.92247083661E+03  0.16134824012E+04  0.95000000000E+03 0.  0.
   -2000013    1    1    2    0    0 -0.87822430737E+03  0.28034814155E+03 -0.19573951946E+04  0.23629999921E+04  0.95000000000E+03 0.  0.
<mgrwt>
<rscale>  0 0.27420401E+04</rscale>
<asrwt>0</asrwt>
<pdfrwt beam="2">  1        1 0.52741142E+00 0.27420401E+04</pdfrwt>
<pdfrwt beam="1">  1       -1 0.84355105E-01 0.27420401E+04</pdfrwt>
<totfact> 0.34443100E-01</totfact>
</mgrwt>
</event>
<event>
 4    1  0.1295381E-008  0.3006221E+04  0.7816531E-02  0.8241957E-01
         -2   -1    0    0    0  501 -0.00000000000E+00  0.00000000000E+00  0.57204622753E+03  0.57204622753E+03  0.00000000000E+00 0. -1.
          2   -1    0    0  501    0  0.00000000000E+00 -0.00000000000E+00 -0.39495775861E+04  0.39495775861E+04  0.00000000000E+00 0.  1.
    2000013    1    1    2    0    0 -0.74603659771E+03 -0.48250560133E+03 -0.55573760067E+03  0.14144704102E+04  0.95000000000E+03 0.  0.
   -2000013    1    1    2    0    0  0.74603659771E+03  0.48250560133E+03 -0.28217937579E+04  0.31071534034E+04  0.95000000000E+03 0.  0.
<mgrwt>
<rscale>  0 0.30062209E+04</rscale>
<asrwt>0</asrwt>
<pdfrwt beam="2">  1        2 0.60762731E+00 0.30062209E+04</pdfrwt>
<pdfrwt beam="1">  1       -2 0.88007113E-01 0.30062209E+04</pdfrwt>
<totfact> 0.35733768E-01</totfact>
</mgrwt>
</event>
<event>
 4    1  0.1295381E-008  0.2389383E+04  0.7816531E-02  0.8443489E-01
         -2   -1    0    0    0  501 -0.00000000000E+00  0.00000000000E+00  0.54317472132E+03  0.54317472132E+03  0.00000000000E+00 0. -1.
          2   -1    0    0  501    0  0.00000000000E+00 -0.00000000000E+00 -0.26276768008E+04  0.26276768008E+04  0.00000000000E+00 0.  1.
    2000013    1    1    2    0    0  0.33027510758E+02 -0.23513903306E+03 -0.19504930528E+04  0.21824995602E+04  0.95000000000E+03 0.  0.
   -2000013    1    1    2    0    0 -0.33027510758E+02  0.23513903306E+03 -0.13400902666E+03  0.98835196188E+03  0.95000000000E+03 0.  0.
<mgrwt>
<rscale>  0 0.23893829E+04</rscale>
<asrwt>0</asrwt>
<pdfrwt beam="2">  1        2 0.40425798E+00 0.23893829E+04</pdfrwt>
<pdfrwt beam="1">  1       -2 0.83565340E-01 0.23893829E+04</pdfrwt>
<totfact> 0.33040891E+00</totfact>
</mgrwt>
</event>
<event>
 4    1  0.1295381E-008  0.2841610E+04  0.7816531E-02  0.8290465E-01
          2   -1    0    0  501    0  0.00000000000E+00  0.00000000000E+00  0.21639776664E+04  0.21639776664E+04  0.00000000000E+00 0.  1.
         -2   -1    0    0    0  501 -0.00000000000E+00 -0.00000000000E+00 -0.93285943770E+03  0.93285943770E+03  0.00000000000E+00 0. -1.
    2000013    1    1    2    0    0 -0.91222846289E+02 -0.10520511884E+04  0.58018318252E+03  0.15343551858E+04  0.95000000000E+03 0.  0.
   -2000013    1    1    2    0    0  0.91222846289E+02  0.10520511884E+04  0.65093504618E+03  0.15624819183E+04  0.95000000000E+03 0.  0.
<mgrwt>
<rscale>  0 0.28416101E+04</rscale>
<asrwt>0</asrwt>
<pdfrwt beam="1">  1        2 0.33291964E+00 0.28416101E+04</pdfrwt>
<pdfrwt beam="2">  1       -2 0.14351684E+00 0.28416101E+04</pdfrwt>
<totfact> 0.15794138E+00</totfact>
</mgrwt>
</event>
<event>
 4    1  0.1295381E-008  0.2455344E+04  0.7816531E-02  0.8419069E-01
         -2   -1    0    0    0  501 -0.00000000000E+00  0.00000000000E+00  0.89691213293E+03  0.89691213293E+03  0.00000000000E+00 0. -1.
          2   -1    0    0  501    0  0.00000000000E+00 -0.00000000000E+00 -0.16804086631E+04  0.16804086631E+04  0.00000000000E+00 0.  1.
    2000013    1    1    2    0    0 -0.18586682459E+03 -0.50929704431E+03  0.19339326173E+03  0.11107794153E+04  0.95000000000E+03 0.  0.
   -2000013    1    1    2    0    0  0.18586682459E+03  0.50929704431E+03 -0.97688979193E+03  0.14665413807E+04  0.95000000000E+03 0.  0.
<mgrwt>
<rscale>  0 0.24553443E+04</rscale>
<asrwt>0</asrwt>
<pdfrwt beam="2">  1        2 0.25852441E+00 0.24553443E+04</pdfrwt>
<pdfrwt beam="1">  1       -2 0.13798648E+00 0.24553443E+04</pdfrwt>
<totfact> 0.33575998E+00</totfact>
</mgrwt>
</event>
<event>
 4    1  0.1295381E-008  0.2876973E+04  0.7816531E-02  0.8279762E-01
          2   -1    0    0  501    0  0.00000000000E+00  0.00000000000E+00  0.12577415345E+04  0.12577415345E+04  0.00000000000E+00 0.  1.
         -2   -1    0    0    0  501 -0.00000000000E+00 -0.00000000000E+00 -0.16452051813E+04  0.16452051813E+04  0.00000000000E+00 0. -1.
    2000013    1    1    2    0    0  0.65721155580E+03  0.82999403003E+03 -0.40996959531E+03  0.14803351607E+04  0.95000000000E+03 0.  0.
   -2000013    1    1    2    0    0 -0.65721155580E+03 -0.82999403003E+03  0.22505948596E+02  0.14226115551E+04  0.95000000000E+03 0.  0.
<mgrwt>
<rscale>  0 0.28769726E+04</rscale>
<asrwt>0</asrwt>
<pdfrwt beam="1">  1        2 0.19349870E+00 0.28769726E+04</pdfrwt>
<pdfrwt beam="2">  1       -2 0.25310849E+00 0.28769726E+04</pdfrwt>
<totfact> 0.93067427E-01</totfact>
</mgrwt>
</event>
<event>
 4    1  0.1295381E-008  0.2233216E+04  0.7816531E-02  0.8504729E-01
         -2   -1    0    0    0  501 -0.00000000000E+00  0.00000000000E+00  0.10319970625E+04  0.10319970625E+04  0.00000000000E+00 0. -1.
          2   -1    0    0  501    0  0.00000000000E+00 -0.00000000000E+00 -0.12081560887E+04  0.12081560887E+04  0.00000000000E+00 0.  1.
    2000013    1    1    2    0    0 -0.54462976293E+03 -0.40402371683E+02  0.12720216094E+03  0.11031474607E+04  0.95000000000E+03 0.  0.
   -2000013    1    1    2    0    0  0.54462976293E+03  0.40402371683E+02 -0.30336118712E+03  0.11370056905E+04  0.95000000000E+03 0.  0.
<mgrwt>
<rscale>  0 0.22332161E+04</rscale>
<asrwt>0</asrwt>
<pdfrwt beam="2">  1        2 0.18587017E+00 0.22332161E+04</pdfrwt>
<pdfrwt beam="1">  1       -2 0.15876878E+00 0.22332161E+04</pdfrwt>
<totfact> 0.43921928E+00</totfact>
</mgrwt>
</event>
<event>
 4    1  0.1295381E-008  0.2652220E+04  0.7816531E-02  0.8350676E-01
          2   -1    0    0  501    0  0.00000000000E+00  0.00000000000E+00  0.89387446306E+03  0.89387446306E+03  0.00000000000E+00 0. -1.
         -2   -1    0    0    0  501 -0.00000000000E+00 -0.00000000000E+00 -0.19673547098E+04  0.19673547098E+04  0.00000000000E+00 0.  1.
    2000013    1    1    2    0    0 -0.10500011808E+03 -0.83900424114E+03 -0.94199628716E+03  0.15826592010E+04  0.95000000000E+03 0.  0.
   -2000013    1    1    2    0    0  0.10500011808E+03  0.83900424114E+03 -0.13148395963E+03  0.12785699719E+04  0.95000000000E+03 0.  0.
<mgrwt>
<rscale>  0 0.26522203E+04</rscale>
<asrwt>0</asrwt>
<pdfrwt beam="1">  1        2 0.13751915E+00 0.26522203E+04</pdfrwt>
<pdfrwt beam="2">  1       -2 0.30266995E+00 0.26522203E+04</pdfrwt>
<totfact> 0.79813574E-01</totfact>
</mgrwt>
</event>
<event>
 4    1  0.1295381E-008  0.2578375E+04  0.7816531E-02  0.8375584E-01
         -2   -1    0    0    0  501 -0.00000000000E+00  0.00000000000E+00  0.89252000124E+03  0.89252000124E+03  0.00000000000E+00 0. -1.
          2   -1    0    0  501    0  0.00000000000E+00 -0.00000000000E+00 -0.18621484475E+04  0.18621484475E+04  0.00000000000E+00 0.  1.
    2000013    1    1    2    0    0  0.37255044124E+03  0.75100907749E+03 -0.23042397994E+03  0.12877902299E+04  0.95000000000E+03 0.  0.
   -2000013    1    1    2    0    0 -0.37255044124E+03 -0.75100907749E+03 -0.73920446628E+03  0.14668782188E+04  0.95000000000E+03 0.  0.
<mgrwt>
<rscale>  0 0.25783753E+04</rscale>
<asrwt>0</asrwt>
<pdfrwt beam="2">  1        2 0.28648438E+00 0.25783753E+04</pdfrwt>
<pdfrwt beam="1">  1       -2 0.13731077E+00 0.25783753E+04</pdfrwt>
<totfact> 0.26676952E+00</totfact>
</mgrwt>
</event>
<event>
 4    1  0.1295381E-008  0.2971530E+04  0.7816531E-02  0.8251908E-01
          2   -1    0    0  501    0  0.00000000000E+00  0.00000000000E+00  0.23966180952E+04  0.23966180952E+04  0.00000000000E+00 0.  1.
         -2   -1    0    0    0  501 -0.00000000000E+00 -0.00000000000E+00 -0.92108831593E+03  0.92108831593E+03  0.00000000000E+00 0. -1.
    2000013    1    1    2    0    0 -0.87651400248E+03  0.35987619917E+03  0.25294663566E+02  0.13419863991E+04  0.95000000000E+03 0.  0.
   -2000013    1    1    2    0    0  0.87651400248E+03 -0.35987619917E+03  0.14502351157E+04  0.19757200121E+04  0.95000000000E+03 0.  0.
<mgrwt>
<rscale>  0 0.29715295E+04</rscale>
<asrwt>0</asrwt>
<pdfrwt beam="1">  1        2 0.36871047E+00 0.29715295E+04</pdfrwt>
<pdfrwt beam="2">  1       -2 0.14170590E+00 0.29715295E+04</pdfrwt>
<totfact> 0.11921953E+00</totfact>
</mgrwt>
</event>
<event>
 4    1  0.1295381E-008  0.2377527E+04  0.7816531E-02  0.8447965E-01
         -2   -1    0    0    0  501 -0.00000000000E+00  0.00000000000E+00  0.10243757973E+04  0.10243757973E+04  0.00000000000E+00 0. -1.
          2   -1    0    0  501    0  0.00000000000E+00 -0.00000000000E+00 -0.13795315483E+04  0.13795315483E+04  0.00000000000E+00 0.  1.
    2000013    1    1    2    0    0  0.33203187956E+03  0.57173376660E+03  0.96602603445E+02  0.11614459660E+04  0.95000000000E+03 0.  0.
   -2000013    1    1    2    0    0 -0.33203187956E+03 -0.57173376660E+03 -0.45175835446E+03  0.12424613796E+04  0.95000000000E+03 0.  0.
<mgrwt>
<rscale>  0 0.23775271E+04</rscale>
<asrwt>0</asrwt>
<pdfrwt beam="2">  1        2 0.21223562E+00 0.23775271E+04</pdfrwt>
<pdfrwt beam="1">  1       -2 0.15759628E+00 0.23775271E+04</pdfrwt>
<totfact> 0.35160414E+00</totfact>
</mgrwt>
</event>
<event>
 4    1  0.1295381E-008  0.1986297E+04  0.7816531E-02  0.8613054E-01
          4   -1    0    0  501    0  0.00000000000E+00  0.00000000000E+00  0.87726261005E+03  0.87726261005E+03  0.00000000000E+00 0.  1.
         -4   -1    0    0    0  501 -0.00000000000E+00 -0.00000000000E+00 -0.11243426177E+04  0.11243426177E+04  0.00000000000E+00 0. -1.
    2000013    1    1    2    0    0 -0.91416212913E+02  0.13321448524E+03 -0.36568492727E+03  0.10306932080E+04  0.95000000000E+03 0.  0.
   -2000013    1    1    2    0    0  0.91416212913E+02 -0.13321448524E+03  0.11860491963E+03  0.97091201971E+03  0.95000000000E+03 0.  0.
<mgrwt>
<rscale>  0 0.19862968E+04</rscale>
<asrwt>0</asrwt>
<pdfrwt beam="1">  1        4 0.13496348E+00 0.19862968E+04</pdfrwt>
<pdfrwt beam="2">  1       -4 0.17297579E+00 0.19862968E+04</pdfrwt>
<totfact> 0.14728650E-01</totfact>
</mgrwt>
</event>
<event>
 4    1  0.1295381E-008  0.2459573E+04  0.7816531E-02  0.8417531E-01
          1   -1    0    0  501    0  0.00000000000E+00  0.00000000000E+00  0.25350068491E+04  0.25350068491E+04  0.00000000000E+00 0.  1.
         -1   -1    0    0    0  501 -0.00000000000E+00 -0.00000000000E+00 -0.59659597504E+03  0.59659597504E+03  0.00000000000E+00 0. -1.
    2000013    1    1    2    0    0 -0.25038768960E+03 -0.73803891233E+03  0.90580609116E+03  0.15265582550E+04  0.95000000000E+03 0.  0.
   -2000013    1    1    2    0    0  0.25038768960E+03  0.73803891233E+03  0.10326047829E+04  0.16050445692E+04  0.95000000000E+03 0.  0.
<mgrwt>
<rscale>  0 0.24595730E+04</rscale>
<asrwt>0</asrwt>
<pdfrwt beam="1">  1        1 0.39000105E+00 0.24595730E+04</pdfrwt>
<pdfrwt beam="2">  1       -1 0.91783998E-01 0.24595730E+04</pdfrwt>
<totfact> 0.13203015E+00</totfact>
</mgrwt>
</event>
<event>
 4    1  0.1295381E-008  0.2727684E+04  0.7816531E-02  0.8326078E-01
          2   -1    0    0  501    0  0.00000000000E+00  0.00000000000E+00  0.18642758440E+04  0.18642758440E+04  0.00000000000E+00 0.  1.
         -2   -1    0    0    0  501 -0.00000000000E+00 -0.00000000000E+00 -0.99774122153E+03  0.99774122153E+03  0.00000000000E+00 0. -1.
    2000013    1    1    2    0    0 -0.61247348216E+03  0.31102517638E+03 -0.29797988232E+03  0.12096083817E+04  0.95000000000E+03 0.  0.
   -2000013    1    1    2    0    0  0.61247348216E+03 -0.31102517638E+03  0.11645145048E+04  0.16524086839E+04  0.95000000000E+03 0.  0.
<mgrwt>
<rscale>  0 0.27276839E+04</rscale>
<asrwt>0</asrwt>
<pdfrwt beam="1">  1        2 0.28681167E+00 0.27276839E+04</pdfrwt>
<pdfrwt beam="2">  1       -2 0.15349865E+00 0.27276839E+04</pdfrwt>
<totfact> 0.19605990E+00</totfact>
</mgrwt>
</event>
<event>
 4    1  0.1295381E-008  0.2898579E+04  0.7816531E-02  0.8273300E-01
          2   -1    0    0  501    0  0.00000000000E+00  0.00000000000E+00  0.49394983037E+03  0.49394983037E+03  0.00000000000E+00 0.  1.
         -2   -1    0    0    0  501 -0.00000000000E+00 -0.00000000000E+00 -0.42523355459E+04  0.42523355459E+04  0.00000000000E+00 0. -1.
    2000013    1    1    2    0    0 -0.54121547503E+03  0.50106156253E+03 -0.32033680166E+04  0.34217018470E+04  0.95000000000E+03 0.  0.
   -2000013    1    1    2    0    0  0.54121547503E+03 -0.50106156253E+03 -0.55501769888E+03  0.13245835292E+04  0.95000000000E+03 0.  0.
<mgrwt>
<rscale>  0 0.28985793E+04</rscale>
<asrwt>0</asrwt>
<pdfrwt beam="1">  1        2 0.75992284E-01 0.28985793E+04</pdfrwt>
<pdfrwt beam="2">  1       -2 0.65420544E+00 0.28985793E+04</pdfrwt>
<totfact> 0.17316436E-02</totfact>
</mgrwt>
</event>
<event>
 4    1  0.1295381E-008  0.2190077E+04  0.7816531E-02  0.8522569E-01
          2   -1    0    0  501    0  0.00000000000E+00  0.00000000000E+00  0.85786970923E+03  0.85786970923E+03  0.00000000000E+00 0. -1.
         -2   -1    0    0    0  501 -0.00000000000E+00 -0.00000000000E+00 -0.13977761286E+04  0.13977761286E+04  0.00000000000E+00 0.  1.
    2000013    1    1    2    0    0 -0.21967985364E+03 -0.46387940319E+03 -0.45752218856E+03  0.11727190166E+04  0.95000000000E+03 0.  0.
   -2000013    1    1    2    0    0  0.21967985364E+03  0.46387940319E+03 -0.82384230847E+02  0.10829268213E+04  0.95000000000E+03 0.  0.
<mgrwt>
<rscale>  0 0.21900774E+04</rscale>
<asrwt>0</asrwt>
<pdfrwt beam="1">  1        2 0.13197996E+00 0.21900774E+04</pdfrwt>
<pdfrwt beam="2">  1       -2 0.21504248E+00 0.21900774E+04</pdfrwt>
<totfact> 0.30460107E+00</totfact>
</mgrwt>
</event>
<event>
 4    1  0.1295381E-008  0.2282211E+04  0.7816531E-02  0.8484968E-01
         -2   -1    0    0    0  501 -0.00000000000E+00  0.00000000000E+00  0.51051716245E+03  0.51051716245E+03  0.00000000000E+00 0. -1.
          2   -1    0    0  501    0  0.00000000000E+00 -0.00000000000E+00 -0.25505939666E+04  0.25505939666E+04  0.00000000000E+00 0.  1.
    2000013    1    1    2    0    0 -0.28654777791E+03  0.50022030438E+03 -0.67209787139E+03  0.12986706783E+04  0.95000000000E+03 0.  0.
   -2000013    1    1    2    0    0  0.28654777791E+03 -0.50022030438E+03 -0.13679789327E+04  0.17624404507E+04  0.95000000000E+03 0.  0.
<mgrwt>
<rscale>  0 0.22822112E+04</rscale>
<asrwt>0</asrwt>
<pdfrwt beam="2">  1        2 0.39239907E+00 0.22822112E+04</pdfrwt>
<pdfrwt beam="1">  1       -2 0.78541102E-01 0.22822112E+04</pdfrwt>
<totfact> 0.42550323E+00</totfact>
</mgrwt>
</event>
<event>
 4    1  0.1295381E-008  0.2643616E+04  0.7816531E-02  0.8353535E-01
         -2   -1    0    0    0  501 -0.00000000000E+00  0.00000000000E+00  0.75256428302E+03  0.75256428302E+03  0.00000000000E+00 0. -1.
          2   -1    0    0  501    0  0.00000000000E+00 -0.00000000000E+00 -0.23216306553E+04  0.23216306553E+04  0.00000000000E+00 0.  1.
    2000013    1    1    2    0    0  0.41358772262E+03 -0.76010316182E+03 -0.42448355170E+03  0.13533284548E+04  0.95000000000E+03 0.  0.
   -2000013    1    1    2    0    0 -0.41358772262E+03  0.76010316182E+03 -0.11445828205E+04  0.17208664835E+04  0.95000000000E+03 0.  0.
<mgrwt>
<rscale>  0 0.26436159E+04</rscale>
<asrwt>0</asrwt>
<pdfrwt beam="2">  1        2 0.35717394E+00 0.26436159E+04</pdfrwt>
<pdfrwt beam="1">  1       -2 0.11577912E+00 0.26436159E+04</pdfrwt>
<totfact> 0.22525185E+00</totfact>
</mgrwt>
</event>
<event>
 4    1  0.1295381E-008  0.2206599E+04  0.7816531E-02  0.8515687E-01
         -2   -1    0    0    0  501 -0.00000000000E+00  0.00000000000E+00  0.51943567514E+03  0.51943567514E+03  0.00000000000E+00 0. -1.
          2   -1    0    0  501    0  0.00000000000E+00 -0.00000000000E+00 -0.23434458541E+04  0.23434458541E+04  0.00000000000E+00 0.  1.
    2000013    1    1    2    0    0 -0.51101676534E+03 -0.21677175295E+03 -0.80627343838E+03  0.13640766052E+04  0.95000000000E+03 0.  0.
   -2000013    1    1    2    0    0  0.51101676534E+03  0.21677175295E+03 -0.10177367406E+04  0.14988049241E+04  0.95000000000E+03 0.  0.
<mgrwt>
<rscale>  0 0.22065986E+04</rscale>
<asrwt>0</asrwt>
<pdfrwt beam="2">  1        2 0.36053014E+00 0.22065986E+04</pdfrwt>
<pdfrwt beam="1">  1       -2 0.79913179E-01 0.22065986E+04</pdfrwt>
<totfact> 0.54211793E+00</totfact>
</mgrwt>
</event>
<event>
 4    1  0.1295381E-008  0.2571555E+04  0.7816531E-02  0.8377928E-01
         -2   -1    0    0    0  501 -0.00000000000E+00  0.00000000000E+00  0.13684595813E+04  0.13684595813E+04  0.00000000000E+00 0. -1.
          2   -1    0    0  501    0  0.00000000000E+00 -0.00000000000E+00 -0.12080914564E+04  0.12080914564E+04  0.00000000000E+00 0.  1.
    2000013    1    1    2    0    0  0.27924977163E+03  0.80706873107E+03 -0.66332559224E+02  0.12791561203E+04  0.95000000000E+03 0.  0.
   -2000013    1    1    2    0    0 -0.27924977163E+03 -0.80706873107E+03  0.22670068410E+03  0.12973949174E+04  0.95000000000E+03 0.  0.
<mgrwt>
<rscale>  0 0.25715554E+04</rscale>
<asrwt>0</asrwt>
<pdfrwt beam="2">  1        2 0.18586022E+00 0.25715554E+04</pdfrwt>
<pdfrwt beam="1">  1       -2 0.21053224E+00 0.25715554E+04</pdfrwt>
<totfact> 0.18867304E+00</totfact>
</mgrwt>
</event>
<event>
 4    1  0.1295381E-008  0.2207440E+04  0.7816531E-02  0.8515338E-01
          2   -1    0    0  501    0  0.00000000000E+00  0.00000000000E+00  0.88199771816E+03  0.88199771816E+03  0.00000000000E+00 0.  1.
         -2   -1    0    0    0  501 -0.00000000000E+00 -0.00000000000E+00 -0.13811796951E+04  0.13811796951E+04  0.00000000000E+00 0. -1.
    2000013    1    1    2    0    0  0.12203247699E+03  0.38130264156E+03 -0.65377063948E+03  0.12207373505E+04  0.95000000000E+03 0.  0.
   -2000013    1    1    2    0    0 -0.12203247699E+03 -0.38130264156E+03  0.15458866251E+03  0.10424400628E+04  0.95000000000E+03 0.  0.
<mgrwt>
<rscale>  0 0.22074395E+04</rscale>
<asrwt>0</asrwt>
<pdfrwt beam="1">  1        2 0.13569196E+00 0.22074395E+04</pdfrwt>
<pdfrwt beam="2">  1       -2 0.21248918E+00 0.22074395E+04</pdfrwt>
<totfact> 0.30396789E+00</totfact>
</mgrwt>
</event>
<event>
 4    1  0.1295381E-008  0.2022483E+04  0.7816531E-02  0.8596181E-01
         -1   -1    0    0    0  501 -0.00000000000E+00  0.00000000000E+00  0.30463011612E+03  0.30463011612E+03  0.00000000000E+00 0. -1.
          1   -1    0    0  501    0  0.00000000000E+00 -0.00000000000E+00 -0.33568890487E+04  0.33568890487E+04  0.00000000000E+00 0.  1.
    2000013    1    1    2    0    0 -0.10325447414E+03 -0.20860445085E+03 -0.10612662536E+04  0.14432475063E+04  0.95000000000E+03 0.  0.
   -2000013    1    1    2    0    0  0.10325447414E+03  0.20860445085E+03 -0.19909926789E+04  0.22182716585E+04  0.95000000000E+03 0.  0.
<mgrwt>
<rscale>  0 0.20224831E+04</rscale>
<asrwt>0</asrwt>
<pdfrwt beam="2">  1        1 0.51644447E+00 0.20224831E+04</pdfrwt>
<pdfrwt beam="1">  1       -1 0.46866172E-01 0.20224831E+04</pdfrwt>
<totfact> 0.13617930E+00</totfact>
</mgrwt>
</event>
<event>
 4    1  0.1295381E-008  0.3194811E+04  0.7816531E-02  0.8190189E-01
          1   -1    0    0  501    0  0.00000000000E+00  0.00000000000E+00  0.20857474864E+04  0.20857474864E+04  0.00000000000E+00 0.  1.
         -1   -1    0    0    0  501 -0.00000000000E+00 -0.00000000000E+00 -0.12234005232E+04  0.12234005232E+04  0.00000000000E+00 0. -1.
    2000013    1    1    2    0    0 -0.20436217334E+03 -0.12525249441E+04  0.63473140045E+03  0.17076201522E+04  0.95000000000E+03 0.  0.
   -2000013    1    1    2    0    0  0.20436217334E+03  0.12525249441E+04  0.22761556271E+03  0.16015278574E+04  0.95000000000E+03 0.  0.
<mgrwt>
<rscale>  0 0.31948111E+04</rscale>
<asrwt>0</asrwt>
<pdfrwt beam="1">  1        1 0.32088423E+00 0.31948111E+04</pdfrwt>
<pdfrwt beam="2">  1       -1 0.18821546E+00 0.31948111E+04</pdfrwt>
<totfact> 0.39673609E-01</totfact>
</mgrwt>
</event>
<event>
 4    1  0.1295381E-008  0.2426675E+04  0.7816531E-02  0.8429584E-01
          2   -1    0    0  501    0  0.00000000000E+00  0.00000000000E+00  0.85896818550E+03  0.85896818550E+03  0.00000000000E+00 0.  1.
         -2   -1    0    0    0  501 -0.00000000000E+00 -0.00000000000E+00 -0.17139019985E+04  0.17139019985E+04  0.00000000000E+00 0. -1.
    2000013    1    1    2    0    0 -0.42138292874E+03  0.59253183664E+03 -0.21270575330E+03  0.12150725442E+04  0.95000000000E+03 0.  0.
   -2000013    1    1    2    0    0  0.42138292874E+03 -0.59253183664E+03 -0.64222805968E+03  0.13577976398E+04  0.95000000000E+03 0.  0.
<mgrwt>
<rscale>  0 0.24266745E+04</rscale>
<asrwt>0</asrwt>
<pdfrwt beam="1">  1        2 0.13214895E+00 0.24266745E+04</pdfrwt>
<pdfrwt beam="2">  1       -2 0.26367723E+00 0.24266745E+04</pdfrwt>
<totfact> 0.14870235E+00</totfact>
</mgrwt>
</event>
<event>
 4    1  0.1295381E-008  0.2931320E+04  0.7816531E-02  0.8263619E-01
         -2   -1    0    0    0  501 -0.00000000000E+00  0.00000000000E+00  0.22655364327E+04  0.22655364327E+04  0.00000000000E+00 0. -1.
          2   -1    0    0  501    0  0.00000000000E+00 -0.00000000000E+00 -0.94819039698E+03  0.94819039698E+03  0.00000000000E+00 0.  1.
    2000013    1    1    2    0    0  0.57702570037E+03 -0.94456577151E+03  0.81563265748E+03  0.16712030958E+04  0.95000000000E+03 0.  0.
   -2000013    1    1    2    0    0 -0.57702570037E+03  0.94456577151E+03  0.50171337826E+03  0.15425237339E+04  0.95000000000E+03 0.  0.
<mgrwt>
<rscale>  0 0.29313204E+04</rscale>
<asrwt>0</asrwt>
<pdfrwt beam="2">  1        2 0.14587545E+00 0.29313204E+04</pdfrwt>
<pdfrwt beam="1">  1       -2 0.34854406E+00 0.29313204E+04</pdfrwt>
<totfact> 0.37234560E-01</totfact>
</mgrwt>
</event>
<event>
 4    1  0.1295381E-008  0.2575467E+04  0.7816531E-02  0.8376583E-01
         -2   -1    0    0    0  501 -0.00000000000E+00  0.00000000000E+00  0.13974963441E+04  0.13974963441E+04  0.00000000000E+00 0. -1.
          2   -1    0    0  501    0  0.00000000000E+00 -0.00000000000E+00 -0.11865914071E+04  0.11865914071E+04  0.00000000000E+00 0.  1.
    2000013    1    1    2    0    0  0.11612604407E+01  0.62872938763E+03 -0.49693641213E+03  0.12428788312E+04  0.95000000000E+03 0.  0.
   -2000013    1    1    2    0    0 -0.11612604407E+01 -0.62872938763E+03  0.70784134920E+03  0.13412089200E+04  0.95000000000E+03 0.  0.
<mgrwt>
<rscale>  0 0.25754667E+04</rscale>
<asrwt>0</asrwt>
<pdfrwt beam="2">  1        2 0.18255252E+00 0.25754667E+04</pdfrwt>
<pdfrwt beam="1">  1       -2 0.21499944E+00 0.25754667E+04</pdfrwt>
<totfact> 0.18187500E+00</totfact>
</mgrwt>
</event>
<event>
 4    1  0.1295381E-008  0.2831413E+04  0.7816531E-02  0.8293582E-01
         -2   -1    0    0    0  501 -0.00000000000E+00  0.00000000000E+00  0.98443332442E+03  0.98443332442E+03  0.00000000000E+00 0. -1.
          2   -1    0    0  501    0  0.00000000000E+00 -0.00000000000E+00 -0.20359175848E+04  0.20359175848E+04  0.00000000000E+00 0.  1.
    2000013    1    1    2    0    0  0.53449562525E+03 -0.75311981421E+03  0.63943794548E+01  0.13249210980E+04  0.95000000000E+03 0.  0.
   -2000013    1    1    2    0    0 -0.53449562525E+03  0.75311981421E+03 -0.10578786398E+04  0.16954298112E+04  0.95000000000E+03 0.  0.
<mgrwt>
<rscale>  0 0.28314132E+04</rscale>
<asrwt>0</asrwt>
<pdfrwt beam="2">  1        2 0.31321808E+00 0.28314132E+04</pdfrwt>
<pdfrwt beam="1">  1       -2 0.15145128E+00 0.28314132E+04</pdfrwt>
<totfact> 0.16173675E+00</totfact>
</mgrwt>
</event>
<event>
 4    1  0.1295381E-008  0.2062757E+04  0.7816531E-02  0.8577829E-01
         -2   -1    0    0    0  501 -0.00000000000E+00  0.00000000000E+00  0.68325650903E+03  0.68325650903E+03  0.00000000000E+00 0. -1.
          2   -1    0    0  501    0  0.00000000000E+00 -0.00000000000E+00 -0.15568699612E+04  0.15568699612E+04  0.00000000000E+00 0.  1.
    2000013    1    1    2    0    0 -0.23819528988E+03 -0.20158952228E+03 -0.71125470225E+03  0.12270935511E+04  0.95000000000E+03 0.  0.
   -2000013    1    1    2    0    0  0.23819528988E+03  0.20158952228E+03 -0.16235874991E+03  0.10130329192E+04  0.95000000000E+03 0.  0.
<mgrwt>
<rscale>  0 0.20627569E+04</rscale>
<asrwt>0</asrwt>
<pdfrwt beam="2">  1        2 0.23951845E+00 0.20627569E+04</pdfrwt>
<pdfrwt beam="1">  1       -2 0.10511639E+00 0.20627569E+04</pdfrwt>
<totfact> 0.79911018E+00</totfact>
</mgrwt>
</event>
<event>
 4    1  0.1295381E-008  0.2412995E+04  0.7816531E-02  0.8434654E-01
         -2   -1    0    0    0  501 -0.00000000000E+00  0.00000000000E+00  0.70577791463E+03  0.70577791463E+03  0.00000000000E+00 0. -1.
          2   -1    0    0  501    0  0.00000000000E+00 -0.00000000000E+00 -0.20624570341E+04  0.20624570341E+04  0.00000000000E+00 0.  1.
    2000013    1    1    2    0    0  0.37196306628E+02 -0.68433388526E+03 -0.10097255269E+04  0.15465258069E+04  0.95000000000E+03 0.  0.
   -2000013    1    1    2    0    0 -0.37196306628E+02  0.68433388526E+03 -0.34695359251E+03  0.12217091418E+04  0.95000000000E+03 0.  0.
<mgrwt>
<rscale>  0 0.24129953E+04</rscale>
<asrwt>0</asrwt>
<pdfrwt beam="2">  1        2 0.31730108E+00 0.24129953E+04</pdfrwt>
<pdfrwt beam="1">  1       -2 0.10858122E+00 0.24129953E+04</pdfrwt>
<totfact> 0.37553745E+00</totfact>
</mgrwt>
</event>
<event>
 4    1  0.1295381E-008  0.2167102E+04  0.7816531E-02  0.8532247E-01
         -2   -1    0    0    0  501 -0.00000000000E+00  0.00000000000E+00  0.98384375394E+03  0.98384375394E+03  0.00000000000E+00 0. -1.
          2   -1    0    0  501    0  0.00000000000E+00 -0.00000000000E+00 -0.11933635232E+04  0.11933635232E+04  0.00000000000E+00 0.  1.
    2000013    1    1    2    0    0  0.45479520590E+03 -0.81588532283E+02  0.13737819919E+03  0.10653018997E+04  0.95000000000E+03 0.  0.
   -2000013    1    1    2    0    0 -0.45479520590E+03  0.81588532283E+02 -0.34689796847E+03  0.11119053775E+04  0.95000000000E+03 0.  0.
<mgrwt>
<rscale>  0 0.21671024E+04</rscale>
<asrwt>0</asrwt>
<pdfrwt beam="2">  1        2 0.18359439E+00 0.21671024E+04</pdfrwt>
<pdfrwt beam="1">  1       -2 0.15136058E+00 0.21671024E+04</pdfrwt>
<totfact> 0.51249667E+00</totfact>
</mgrwt>
</event>
<event>
 4    1  0.1295381E-008  0.2107272E+04  0.7816531E-02  0.8558047E-01
         -2   -1    0    0    0  501 -0.00000000000E+00  0.00000000000E+00  0.62284951477E+03  0.62284951477E+03  0.00000000000E+00 0. -1.
          2   -1    0    0  501    0  0.00000000000E+00 -0.00000000000E+00 -0.17823704804E+04  0.17823704804E+04  0.00000000000E+00 0.  1.
    2000013    1    1    2    0    0 -0.23600847023E+03  0.70333148951E+02 -0.14214201807E+03  0.99164061190E+03  0.95000000000E+03 0.  0.
   -2000013    1    1    2    0    0  0.23600847023E+03 -0.70333148951E+02 -0.10173789475E+04  0.14135793833E+04  0.95000000000E+03 0.  0.
<mgrwt>
<rscale>  0 0.21072718E+04</rscale>
<asrwt>0</asrwt>
<pdfrwt beam="2">  1        2 0.27421084E+00 0.21072718E+04</pdfrwt>
<pdfrwt beam="1">  1       -2 0.95823005E-01 0.21072718E+04</pdfrwt>
<totfact> 0.74241467E+00</totfact>
</mgrwt>
</event>
<event>
 4    1  0.1295381E-008  0.2776409E+04  0.7816531E-02  0.8310630E-01
         -1   -1    0    0    0  501 -0.00000000000E+00  0.00000000000E+00  0.12661913058E+04  0.12661913058E+04  0.00000000000E+00 0.  1.
          1   -1    0    0  501    0  0.00000000000E+00 -0.00000000000E+00 -0.15219747358E+04  0.15219747358E+04  0.00000000000E+00 0. -1.
    2000013    1    1    2    0    0 -0.25216682018E+03  0.74656345685E+03 -0.76592947242E+03  0.14526159358E+04  0.95000000000E+03 0.  0.
   -2000013    1    1    2    0    0  0.25216682018E+03 -0.74656345685E+03  0.51014604247E+03  0.13355501057E+04  0.95000000000E+03 0.  0.
<mgrwt>
<rscale>  0 0.27764086E+04</rscale>
<asrwt>0</asrwt>
<pdfrwt beam="2">  1        1 0.23414996E+00 0.27764086E+04</pdfrwt>
<pdfrwt beam="1">  1       -1 0.19479866E+00 0.27764086E+04</pdfrwt>
<totfact> 0.89613820E-01</totfact>
</mgrwt>
</event>
<event>
 4    1  0.1295381E-008  0.2174998E+04  0.7816531E-02  0.8528907E-01
          2   -1    0    0  501    0  0.00000000000E+00  0.00000000000E+00  0.14059888360E+04  0.14059888360E+04  0.00000000000E+00 0.  1.
         -2   -1    0    0    0  501 -0.00000000000E+00 -0.00000000000E+00 -0.84115495773E+03  0.84115495773E+03  0.00000000000E+00 0. -1.
    2000013    1    1    2    0    0 -0.31443221124E+03  0.25897086251E+03 -0.66759413561E+02  0.10358042008E+04  0.95000000000E+03 0.  0.
   -2000013    1    1    2    0    0  0.31443221124E+03 -0.25897086251E+03  0.63159329181E+03  0.12113395929E+04  0.95000000000E+03 0.  0.
<mgrwt>
<rscale>  0 0.21749984E+04</rscale>
<asrwt>0</asrwt>
<pdfrwt beam="1">  1        2 0.21630597E+00 0.21749984E+04</pdfrwt>
<pdfrwt beam="2">  1       -2 0.12940846E+00 0.21749984E+04</pdfrwt>
<totfact> 0.57783184E+00</totfact>
</mgrwt>
</event>
<event>
 4    1  0.1295381E-008  0.3446539E+04  0.7816531E-02  0.8126578E-01
          2   -1    0    0  501    0  0.00000000000E+00  0.00000000000E+00  0.90418374508E+03  0.90418374508E+03  0.00000000000E+00 0.  1.
         -2   -1    0    0    0  501 -0.00000000000E+00 -0.00000000000E+00 -0.32843511454E+04  0.32843511454E+04  0.00000000000E+00 0. -1.
    2000013    1    1    2    0    0 -0.23083133781E+03 -0.13752491009E+04 -0.76462248685E+03  0.18524958147E+04  0.95000000000E+03 0.  0.
   -2000013    1    1    2    0    0  0.23083133781E+03  0.13752491009E+04 -0.16155449135E+04  0.23360390758E+04  0.95000000000E+03 0.  0.
<mgrwt>
<rscale>  0 0.34465385E+04</rscale>
<asrwt>0</asrwt>
<pdfrwt beam="1">  1        2 0.13910519E+00 0.34465385E+04</pdfrwt>
<pdfrwt beam="2">  1       -2 0.50528479E+00 0.34465385E+04</pdfrwt>
<totfact> 0.36731610E-02</totfact>
</mgrwt>
</event>
<event>
 4    1  0.1295381E-008  0.2868274E+04  0.7816531E-02  0.8282380E-01
          2   -1    0    0  501    0  0.00000000000E+00  0.00000000000E+00  0.24870380842E+04  0.24870380842E+04  0.00000000000E+00 0.  1.
         -2   -1    0    0    0  501 -0.00000000000E+00 -0.00000000000E+00 -0.82698743427E+03  0.82698743427E+03  0.00000000000E+00 0. -1.
    2000013    1    1    2    0    0 -0.21371149901E+03  0.97113181111E+03  0.36001492313E+03  0.14215767106E+04  0.95000000000E+03 0.  0.
   -2000013    1    1    2    0    0  0.21371149901E+03 -0.97113181111E+03  0.13000357268E+04  0.18924488079E+04  0.95000000000E+03 0.  0.
<mgrwt>
<rscale>  0 0.28682742E+04</rscale>
<asrwt>0</asrwt>
<pdfrwt beam="1">  1        2 0.38262124E+00 0.28682742E+04</pdfrwt>
<pdfrwt beam="2">  1       -2 0.12722884E+00 0.28682742E+04</pdfrwt>
<totfact> 0.14052707E+00</totfact>
</mgrwt>
</event>
<event>
 4    1  0.1295381E-008  0.2337365E+04  0.7816531E-02  0.8463333E-01
          4   -1    0    0  501    0  0.00000000000E+00  0.00000000000E+00  0.17884609251E+04  0.17884609251E+04  0.00000000000E+00 0.  1.
         -4   -1    0    0    0  501 -0.00000000000E+00 -0.00000000000E+00 -0.76368387302E+03  0.76368387302E+03  0.00000000000E+00 0. -1.
    2000013    1    1    2    0    0 -0.24707087763E+03  0.18501951800E+03  0.11747998962E+04  0.15420541614E+04  0.95000000000E+03 0.  0.
   -2000013    1    1    2    0    0  0.24707087763E+03 -0.18501951800E+03 -0.15002284412E+03  0.10100906367E+04  0.95000000000E+03 0.  0.
<mgrwt>
<rscale>  0 0.23373650E+04</rscale>
<asrwt>0</asrwt>
<pdfrwt beam="1">  1        4 0.27514783E+00 0.23373650E+04</pdfrwt>
<pdfrwt beam="2">  1       -4 0.11748983E+00 0.23373650E+04</pdfrwt>
<totfact> 0.44419780E-02</totfact>
</mgrwt>
</event>
<event>
 4    1  0.1295381E-008  0.2789399E+04  0.7816531E-02  0.8306567E-01
         -2   -1    0    0    0  501 -0.00000000000E+00  0.00000000000E+00  0.18167454538E+04  0.18167454538E+04  0.00000000000E+00 0. -1.
          2   -1    0    0  501    0  0.00000000000E+00 -0.00000000000E+00 -0.10706982141E+04  0.10706982141E+04  0.00000000000E+00 0.  1.
    2000013    1    1    2    0    0 -0.68664591110E+03  0.74603568269E+03  0.49824786271E+03  0.14760768204E+04  0.95000000000E+03 0.  0.
   -2000013    1    1    2    0    0  0.68664591110E+03 -0.74603568269E+03  0.24779937703E+03  0.14113668475E+04  0.95000000000E+03 0.  0.
<mgrwt>
<rscale>  0 0.27893986E+04</rscale>
<asrwt>0</asrwt>
<pdfrwt beam="2">  1        2 0.16472280E+00 0.27893986E+04</pdfrwt>
<pdfrwt beam="1">  1       -2 0.27949930E+00 0.27893986E+04</pdfrwt>
<totfact> 0.83910027E-01</totfact>
</mgrwt>
</event>
<event>
 4    1  0.1295381E-008  0.2682117E+04  0.7816531E-02  0.8340831E-01
          2   -1    0    0  501    0  0.00000000000E+00  0.00000000000E+00  0.17640412008E+04  0.17640412008E+04  0.00000000000E+00 0.  1.
         -2   -1    0    0    0  501 -0.00000000000E+00 -0.00000000000E+00 -0.10194988798E+04  0.10194988798E+04  0.00000000000E+00 0. -1.
    2000013    1    1    2    0    0  0.55531528416E+03 -0.32461213555E+03  0.10929284946E+04  0.15845317282E+04  0.95000000000E+03 0.  0.
   -2000013    1    1    2    0    0 -0.55531528416E+03  0.32461213555E+03 -0.34838617357E+03  0.11990083525E+04  0.95000000000E+03 0.  0.
<mgrwt>
<rscale>  0 0.26821171E+04</rscale>
<asrwt>0</asrwt>
<pdfrwt beam="1">  1        2 0.27139095E+00 0.26821171E+04</pdfrwt>
<pdfrwt beam="2">  1       -2 0.15684598E+00 0.26821171E+04</pdfrwt>
<totfact> 0.21108999E+00</totfact>
</mgrwt>
</event>
<event>
 4    1  0.1295381E-008  0.2370654E+04  0.7816531E-02  0.8450573E-01
         -2   -1    0    0    0  501 -0.00000000000E+00  0.00000000000E+00  0.13151050131E+04  0.13151050131E+04  0.00000000000E+00 0. -1.
          2   -1    0    0  501    0  0.00000000000E+00 -0.00000000000E+00 -0.10683554841E+04  0.10683554841E+04  0.00000000000E+00 0.  1.
    2000013    1    1    2    0    0 -0.48920131042E+03  0.62840436217E+02  0.63527442123E+03  0.12447250431E+04  0.95000000000E+03 0.  0.
   -2000013    1    1    2    0    0  0.48920131042E+03 -0.62840436217E+02 -0.38852489226E+03  0.11387354541E+04  0.95000000000E+03 0.  0.
<mgrwt>
<rscale>  0 0.23706536E+04</rscale>
<asrwt>0</asrwt>
<pdfrwt beam="2">  1        2 0.16436238E+00 0.23706536E+04</pdfrwt>
<pdfrwt beam="1">  1       -2 0.20232385E+00 0.23706536E+04</pdfrwt>
<totfact> 0.26382695E+00</totfact>
</mgrwt>
</event>
<event>
 4    1  0.1295381E-008  0.2812326E+04  0.7816531E-02  0.8299452E-01
         -2   -1    0    0    0  501 -0.00000000000E+00  0.00000000000E+00  0.10649425376E+04  0.10649425376E+04  0.00000000000E+00 0. -1.
          2   -1    0    0  501    0  0.00000000000E+00 -0.00000000000E+00 -0.18567145268E+04  0.18567145268E+04  0.00000000000E+00 0.  1.
    2000013    1    1    2    0    0  0.48031234181E+03  0.91620612480E+03 -0.46680911103E+03  0.14800487678E+04  0.95000000000E+03 0.  0.
   -2000013    1    1    2    0    0 -0.48031234181E+03 -0.91620612480E+03 -0.32496287812E+03  0.14416082967E+04  0.95000000000E+03 0.  0.
<mgrwt>
<rscale>  0 0.28123259E+04</rscale>
<asrwt>0</asrwt>
<pdfrwt beam="2">  1        2 0.28564839E+00 0.28123259E+04</pdfrwt>
<pdfrwt beam="1">  1       -2 0.16383731E+00 0.28123259E+04</pdfrwt>
<totfact> 0.16471069E+00</totfact>
</mgrwt>
</event>
<event>
 4    1  0.1295381E-008  0.3889035E+04  0.7816531E-02  0.8027314E-01
          2   -1    0    0  501    0  0.00000000000E+00  0.00000000000E+00  0.22981053977E+04  0.22981053977E+04  0.00000000000E+00 0.  1.
         -2   -1    0    0    0  501 -0.00000000000E+00 -0.00000000000E+00 -0.16453328984E+04  0.16453328984E+04  0.00000000000E+00 0. -1.
    2000013    1    1    2    0    0  0.48161228614E+03  0.13033664144E+04  0.13136251158E+04  0.21351405924E+04  0.95000000000E+03 0.  0.
   -2000013    1    1    2    0    0 -0.48161228614E+03 -0.13033664144E+04 -0.66085261655E+03  0.18082977037E+04  0.95000000000E+03 0.  0.
<mgrwt>
<rscale>  0 0.38890351E+04</rscale>
<asrwt>0</asrwt>
<pdfrwt beam="1">  1        2 0.35355468E+00 0.38890351E+04</pdfrwt>
<pdfrwt beam="2">  1       -2 0.25312814E+00 0.38890351E+04</pdfrwt>
<totfact> 0.22241807E-01</totfact>
</mgrwt>
</event>
<event>
 4    1  0.1295381E-008  0.2673507E+04  0.7816531E-02  0.8343653E-01
          2   -1    0    0  501    0  0.00000000000E+00  0.00000000000E+00  0.16711278528E+04  0.16711278528E+04  0.00000000000E+00 0.  1.
         -2   -1    0    0    0  501 -0.00000000000E+00 -0.00000000000E+00 -0.10692836933E+04  0.10692836933E+04  0.00000000000E+00 0. -1.
    2000013    1    1    2    0    0  0.19368988077E+03 -0.64650007423E+03 -0.37039628343E+03  0.12227720649E+04  0.95000000000E+03 0.  0.
   -2000013    1    1    2    0    0 -0.19368988077E+03  0.64650007423E+03  0.97224044297E+03  0.15176394812E+04  0.95000000000E+03 0.  0.
<mgrwt>
<rscale>  0 0.26735069E+04</rscale>
<asrwt>0</asrwt>
<pdfrwt beam="1">  1        2 0.25709659E+00 0.26735069E+04</pdfrwt>
<pdfrwt beam="2">  1       -2 0.16450518E+00 0.26735069E+04</pdfrwt>
<totfact> 0.20890875E+00</totfact>
</mgrwt>
</event>
<event>
 4    1  0.1295381E-008  0.2726751E+04  0.7816531E-02  0.8326377E-01
         -2   -1    0    0    0  501 -0.00000000000E+00  0.00000000000E+00  0.55063245319E+03  0.55063245319E+03  0.00000000000E+00 0. -1.
          2   -1    0    0  501    0  0.00000000000E+00 -0.00000000000E+00 -0.33757424066E+04  0.33757424066E+04  0.00000000000E+00 0.  1.
    2000013    1    1    2    0    0  0.93662156506E+03 -0.27564521739E+03 -0.14921187465E+04  0.20204352490E+04  0.95000000000E+03 0.  0.
   -2000013    1    1    2    0    0 -0.93662156506E+03  0.27564521739E+03 -0.13329912069E+04  0.19059396107E+04  0.95000000000E+03 0.  0.
<mgrwt>
<rscale>  0 0.27267514E+04</rscale>
<asrwt>0</asrwt>
<pdfrwt beam="2">  1        2 0.51934499E+00 0.27267514E+04</pdfrwt>
<pdfrwt beam="1">  1       -2 0.84712685E-01 0.27267514E+04</pdfrwt>
<totfact> 0.10526526E+00</totfact>
</mgrwt>
</event>
<event>
 4    1  0.1295381E-008  0.3048837E+04  0.7816531E-02  0.8229921E-01
          1   -1    0    0  501    0  0.00000000000E+00  0.00000000000E+00  0.18219434007E+04  0.18219434007E+04  0.00000000000E+00 0.  1.
         -1   -1    0    0    0  501 -0.00000000000E+00 -0.00000000000E+00 -0.12754794430E+04  0.12754794430E+04  0.00000000000E+00 0. -1.
    2000013    1    1    2    0    0  0.17907053969E+03  0.10471719139E+04  0.82288626398E+03  0.16456843801E+04  0.95000000000E+03 0.  0.
   -2000013    1    1    2    0    0 -0.17907053969E+03 -0.10471719139E+04 -0.27642230626E+03  0.14517384636E+04  0.95000000000E+03 0.  0.
<mgrwt>
<rscale>  0 0.30488367E+04</rscale>
<asrwt>0</asrwt>
<pdfrwt beam="1">  1        1 0.28029898E+00 0.30488367E+04</pdfrwt>
<pdfrwt beam="2">  1       -1 0.19622761E+00 0.30488367E+04</pdfrwt>
<totfact> 0.53329087E-01</totfact>
</mgrwt>
</event>
<event>
 4    1  0.1295381E-008  0.2741345E+04  0.7816531E-02  0.8321713E-01
          2   -1    0    0  501    0  0.00000000000E+00  0.00000000000E+00  0.11264243349E+04  0.11264243349E+04  0.00000000000E+00 0.  1.
         -2   -1    0    0    0  501 -0.00000000000E+00 -0.00000000000E+00 -0.16678825327E+04  0.16678825327E+04  0.00000000000E+00 0. -1.
    2000013    1    1    2    0    0 -0.91059531561E+03 -0.34511327894E+03 -0.44116124613E+03  0.14301783977E+04  0.95000000000E+03 0.  0.
   -2000013    1    1    2    0    0  0.91059531561E+03  0.34511327894E+03 -0.10029695168E+03  0.13641284700E+04  0.95000000000E+03 0.  0.
<mgrwt>
<rscale>  0 0.27413453E+04</rscale>
<asrwt>0</asrwt>
<pdfrwt beam="1">  1        2 0.17329605E+00 0.27413453E+04</pdfrwt>
<pdfrwt beam="2">  1       -2 0.25659731E+00 0.27413453E+04</pdfrwt>
<totfact> 0.10740224E+00</totfact>
</mgrwt>
</event>
<event>
 4    1  0.1295381E-008  0.2173767E+04  0.7816531E-02  0.8529427E-01
          2   -1    0    0  501    0  0.00000000000E+00  0.00000000000E+00  0.31642758966E+04  0.31642758966E+04  0.00000000000E+00 0.  1.
         -2   -1    0    0    0  501 -0.00000000000E+00 -0.00000000000E+00 -0.37332909760E+03  0.37332909760E+03  0.00000000000E+00 0. -1.
    2000013    1    1    2    0    0 -0.16576227096E+03 -0.48038997167E+03  0.16288495579E+04  0.19529215391E+04  0.95000000000E+03 0.  0.
   -2000013    1    1    2    0    0  0.16576227096E+03  0.48038997167E+03  0.11620972411E+04  0.15846834552E+04  0.95000000000E+03 0.  0.
<mgrwt>
<rscale>  0 0.21737675E+04</rscale>
<asrwt>0</asrwt>
<pdfrwt beam="1">  1        2 0.48681166E+00 0.21737675E+04</pdfrwt>
<pdfrwt beam="2">  1       -2 0.57435248E-01 0.21737675E+04</pdfrwt>
<totfact> 0.35658715E+00</totfact>
</mgrwt>
</event>
<event>
 4    1  0.1295381E-008  0.2450174E+04  0.7816531E-02  0.8420954E-01
          2   -1    0    0  501    0  0.00000000000E+00  0.00000000000E+00  0.20019685293E+04  0.20019685293E+04  0.00000000000E+00 0.  1.
         -2   -1    0    0    0  501 -0.00000000000E+00 -0.00000000000E+00 -0.74968117463E+03  0.74968117463E+03  0.00000000000E+00 0. -1.
    2000013    1    1    2    0    0 -0.37224294009E+03  0.63849906930E+03  0.88246384902E+03  0.14924772403E+04  0.95000000000E+03 0.  0.
   -2000013    1    1    2    0    0  0.37224294009E+03 -0.63849906930E+03  0.36982350568E+03  0.12591724637E+04  0.95000000000E+03 0.  0.
<mgrwt>
<rscale>  0 0.24501740E+04</rscale>
<asrwt>0</asrwt>
<pdfrwt beam="1">  1        2 0.30799516E+00 0.24501740E+04</pdfrwt>
<pdfrwt beam="2">  1       -2 0.11533557E+00 0.24501740E+04</pdfrwt>
<totfact> 0.34941179E+00</totfact>
</mgrwt>
</event>
<event>
 4    1  0.1295381E-008  0.2017492E+04  0.7816531E-02  0.8598486E-01
          2   -1    0    0  501    0  0.00000000000E+00  0.00000000000E+00  0.10410417180E+04  0.10410417180E+04  0.00000000000E+00 0.  1.
         -2   -1    0    0    0  501 -0.00000000000E+00 -0.00000000000E+00 -0.97745258931E+03  0.97745258931E+03  0.00000000000E+00 0. -1.
    2000013    1    1    2    0    0 -0.74528170321E+02  0.33058195984E+03  0.46969247718E+02  0.10097252055E+04  0.95000000000E+03 0.  0.
   -2000013    1    1    2    0    0  0.74528170321E+02 -0.33058195984E+03  0.16619880946E+02  0.10087691018E+04  0.95000000000E+03 0.  0.
<mgrwt>
<rscale>  0 0.20174924E+04</rscale>
<asrwt>0</asrwt>
<pdfrwt beam="1">  1        2 0.16016027E+00 0.20174924E+04</pdfrwt>
<pdfrwt beam="2">  1       -2 0.15037732E+00 0.20174924E+04</pdfrwt>
<totfact> 0.65478458E+00</totfact>
</mgrwt>
</event>
<event>
 4    1  0.1295381E-008  0.2438262E+04  0.7816531E-02  0.8425316E-01
          2   -1    0    0  501    0  0.00000000000E+00  0.00000000000E+00  0.21453166085E+04  0.21453166085E+04  0.00000000000E+00 0.  1.
         -2   -1    0    0    0  501 -0.00000000000E+00 -0.00000000000E+00 -0.69280207933E+03  0.69280207933E+03  0.00000000000E+00 0. -1.
    2000013    1    1    2    0    0 -0.81799450949E+02 -0.65865912361E+03  0.28569437091E+03  0.11935846283E+04  0.95000000000E+03 0.  0.
   -2000013    1    1    2    0    0  0.81799450949E+02  0.65865912361E+03  0.11668201583E+04  0.16445340596E+04  0.95000000000E+03 0.  0.
<mgrwt>
<rscale>  0 0.24382615E+04</rscale>
<asrwt>0</asrwt>
<pdfrwt beam="1">  1        2 0.33004871E+00 0.24382615E+04</pdfrwt>
<pdfrwt beam="2">  1       -2 0.10658494E+00 0.24382615E+04</pdfrwt>
<totfact> 0.35224096E+00</totfact>
</mgrwt>
</event>
<event>
 4    1  0.1295381E-008  0.2543973E+04  0.7816531E-02  0.8387485E-01
         -2   -1    0    0    0  501 -0.00000000000E+00  0.00000000000E+00  0.47841127057E+03  0.47841127057E+03  0.00000000000E+00 0. -1.
          2   -1    0    0  501    0  0.00000000000E+00 -0.00000000000E+00 -0.33819220937E+04  0.33819220937E+04  0.00000000000E+00 0.  1.
    2000013    1    1    2    0    0  0.79997500850E+03 -0.27202884919E+03 -0.13931825776E+04  0.18861117155E+04  0.95000000000E+03 0.  0.
   -2000013    1    1    2    0    0 -0.79997500850E+03  0.27202884919E+03 -0.15103282456E+04  0.19742216488E+04  0.95000000000E+03 0.  0.
<mgrwt>
<rscale>  0 0.25439730E+04</rscale>
<asrwt>0</asrwt>
<pdfrwt beam="2">  1        2 0.52029570E+00 0.25439730E+04</pdfrwt>
<pdfrwt beam="1">  1       -2 0.73601735E-01 0.25439730E+04</pdfrwt>
<totfact> 0.14521491E+00</totfact>
</mgrwt>
</event>
<event>
 4    1  0.1295381E-008  0.2211669E+04  0.7816531E-02  0.8513587E-01
         -2   -1    0    0    0  501 -0.00000000000E+00  0.00000000000E+00  0.77498902289E+03  0.77498902289E+03  0.00000000000E+00 0. -1.
          2   -1    0    0  501    0  0.00000000000E+00 -0.00000000000E+00 -0.15779189140E+04  0.15779189140E+04  0.00000000000E+00 0.  1.
    2000013    1    1    2    0    0  0.31613868840E+03 -0.37626766576E+03 -0.10273249857E+03  0.10745115136E+04  0.95000000000E+03 0.  0.
   -2000013    1    1    2    0    0 -0.31613868840E+03  0.37626766576E+03 -0.70019739259E+03  0.12783964233E+04  0.95000000000E+03 0.  0.
<mgrwt>
<rscale>  0 0.22116689E+04</rscale>
<asrwt>0</asrwt>
<pdfrwt beam="2">  1        2 0.24275676E+00 0.22116689E+04</pdfrwt>
<pdfrwt beam="1">  1       -2 0.11922908E+00 0.22116689E+04</pdfrwt>
<totfact> 0.56544876E+00</totfact>
</mgrwt>
</event>
<event>
 4    1  0.1295381E-008  0.2487434E+04  0.7816531E-02  0.8407476E-01
          2   -1    0    0  501    0  0.00000000000E+00  0.00000000000E+00  0.16794695983E+04  0.16794695983E+04  0.00000000000E+00 0. -1.
         -2   -1    0    0    0  501 -0.00000000000E+00 -0.00000000000E+00 -0.92102438133E+03  0.92102438133E+03  0.00000000000E+00 0.  1.
    2000013    1    1    2    0    0  0.15708313530E+03 -0.72538429084E+03  0.69885580665E+03  0.13934693823E+04  0.95000000000E+03 0.  0.
   -2000013    1    1    2    0    0 -0.15708313530E+03  0.72538429084E+03  0.59589410297E+02  0.12070245974E+04  0.95000000000E+03 0.  0.
<mgrwt>
<rscale>  0 0.24874344E+04</rscale>
<asrwt>0</asrwt>
<pdfrwt beam="1">  1        2 0.25837994E+00 0.24874344E+04</pdfrwt>
<pdfrwt beam="2">  1       -2 0.14169606E+00 0.24874344E+04</pdfrwt>
<totfact> 0.31293299E+00</totfact>
</mgrwt>
</event>
<event>
 4    1  0.1295381E-008  0.2313463E+04  0.7816531E-02  0.8472632E-01
          2   -1    0    0  501    0  0.00000000000E+00  0.00000000000E+00  0.18422898878E+04  0.18422898878E+04  0.00000000000E+00 0.  1.
         -2   -1    0    0    0  501 -0.00000000000E+00 -0.00000000000E+00 -0.72628518279E+03  0.72628518279E+03  0.00000000000E+00 0. -1.
    2000013    1    1    2    0    0  0.60521772603E+03 -0.27460851967E+02  0.26744743807E+03  0.11580460813E+04  0.95000000000E+03 0.  0.
   -2000013    1    1    2    0    0 -0.60521772603E+03  0.27460851967E+02  0.84855726691E+03  0.14105289892E+04  0.95000000000E+03 0.  0.
<mgrwt>
<rscale>  0 0.23134631E+04</rscale>
<asrwt>0</asrwt>
<pdfrwt beam="1">  1        2 0.28342921E+00 0.23134631E+04</pdfrwt>
<pdfrwt beam="2">  1       -2 0.11173618E+00 0.23134631E+04</pdfrwt>
<totfact> 0.46827654E+00</totfact>
</mgrwt>
</event>
<event>
 4    1  0.1295381E-008  0.2093963E+04  0.7816531E-02  0.8563907E-01
         -2   -1    0    0    0  501 -0.00000000000E+00  0.00000000000E+00  0.48291658210E+03  0.48291658210E+03  0.00000000000E+00 0.  1.
          2   -1    0    0  501    0  0.00000000000E+00 -0.00000000000E+00 -0.22698954818E+04  0.22698954818E+04  0.00000000000E+00 0. -1.
    2000013    1    1    2    0    0 -0.29588276032E+02 -0.42770399698E+03 -0.76292229241E+03  0.12916487910E+04  0.95000000000E+03 0.  0.
   -2000013    1    1    2    0    0  0.29588276032E+02  0.42770399698E+03 -0.10240566073E+04  0.14611632729E+04  0.95000000000E+03 0.  0.
<mgrwt>
<rscale>  0 0.20939629E+04</rscale>
<asrwt>0</asrwt>
<pdfrwt beam="2">  1        2 0.34921470E+00 0.20939629E+04</pdfrwt>
<pdfrwt beam="1">  1       -2 0.74294858E-01 0.20939629E+04</pdfrwt>
<totfact> 0.70891278E+00</totfact>
</mgrwt>
</event>
<event>
 4    1  0.1295381E-008  0.2220468E+04  0.7816531E-02  0.8509957E-01
         -2   -1    0    0    0  501 -0.00000000000E+00  0.00000000000E+00  0.64399526273E+03  0.64399526273E+03  0.00000000000E+00 0. -1.
          2   -1    0    0  501    0  0.00000000000E+00 -0.00000000000E+00 -0.19140197842E+04  0.19140197842E+04  0.00000000000E+00 0.  1.
    2000013    1    1    2    0    0  0.27950978411E+03  0.30442655909E+03 -0.10948361739E+04  0.15073047127E+04  0.95000000000E+03 0.  0.
   -2000013    1    1    2    0    0 -0.27950978411E+03 -0.30442655909E+03 -0.17518834756E+03  0.10507103342E+04  0.95000000000E+03 0.  0.
<mgrwt>
<rscale>  0 0.22204681E+04</rscale>
<asrwt>0</asrwt>
<pdfrwt beam="2">  1        2 0.29446458E+00 0.22204681E+04</pdfrwt>
<pdfrwt beam="1">  1       -2 0.99076194E-01 0.22204681E+04</pdfrwt>
<totfact> 0.57464050E+00</totfact>
</mgrwt>
</event>
<event>
 4    1  0.1295381E-008  0.2354934E+04  0.7816531E-02  0.8456571E-01
         -3   -1    0    0    0  501 -0.00000000000E+00  0.00000000000E+00  0.29028681021E+04  0.29028681021E+04  0.00000000000E+00 0.  1.
          3   -1    0    0  501    0  0.00000000000E+00 -0.00000000000E+00 -0.47760637772E+03  0.47760637772E+03  0.00000000000E+00 0. -1.
    2000013    1    1    2    0    0 -0.65815778084E+03  0.22457724048E+03  0.12383784477E+04  0.17087093905E+04  0.95000000000E+03 0.  0.
   -2000013    1    1    2    0    0  0.65815778084E+03 -0.22457724048E+03  0.11868832767E+04  0.16717650893E+04  0.95000000000E+03 0.  0.
<mgrwt>
<rscale>  0 0.23549338E+04</rscale>
<asrwt>0</asrwt>
<pdfrwt beam="2">  1        3 0.73477906E-01 0.23549338E+04</pdfrwt>
<pdfrwt beam="1">  1       -3 0.44659508E+00 0.23549338E+04</pdfrwt>
<totfact> 0.24310965E-02</totfact>
</mgrwt>
</event>
<event>
 4    1  0.1295381E-008  0.3924202E+04  0.7816531E-02  0.8020014E-01
         -1   -1    0    0    0  501 -0.00000000000E+00  0.00000000000E+00  0.17699234500E+04  0.17699234500E+04  0.00000000000E+00 0. -1.
          1   -1    0    0  501    0  0.00000000000E+00 -0.00000000000E+00 -0.21751448713E+04  0.21751448713E+04  0.00000000000E+00 0.  1.
    2000013    1    1    2    0    0 -0.41736208209E+03  0.16431656432E+04 -0.47452161156E+03  0.20004637458E+04  0.95000000000E+03 0.  0.
   -2000013    1    1    2    0    0  0.41736208209E+03 -0.16431656432E+04  0.69300190277E+02  0.19446045754E+04  0.95000000000E+03 0.  0.
<mgrwt>
<rscale>  0 0.39242018E+04</rscale>
<asrwt>0</asrwt>
<pdfrwt beam="2">  1        1 0.33463767E+00 0.39242018E+04</pdfrwt>
<pdfrwt beam="1">  1       -1 0.27229592E+00 0.39242018E+04</pdfrwt>
<totfact> 0.89070954E-02</totfact>
</mgrwt>
</event>
<event>
 4    1  0.1295381E-008  0.2417250E+04  0.7816531E-02  0.8433073E-01
          1   -1    0    0  501    0  0.00000000000E+00  0.00000000000E+00  0.71147811854E+03  0.71147811854E+03  0.00000000000E+00 0.  1.
         -1   -1    0    0    0  501 -0.00000000000E+00 -0.00000000000E+00 -0.20531547767E+04  0.20531547767E+04  0.00000000000E+00 0. -1.
    2000013    1    1    2    0    0  0.22196164878E+03 -0.64115920078E+03 -0.10287347308E+04  0.15560036120E+04  0.95000000000E+03 0.  0.
   -2000013    1    1    2    0    0 -0.22196164878E+03  0.64115920078E+03 -0.31294192731E+03  0.12086292832E+04  0.95000000000E+03 0.  0.
<mgrwt>
<rscale>  0 0.24172503E+04</rscale>
<asrwt>0</asrwt>
<pdfrwt beam="1">  1        1 0.10945817E+00 0.24172503E+04</pdfrwt>
<pdfrwt beam="2">  1       -1 0.31586996E+00 0.24172503E+04</pdfrwt>
<totfact> 0.61940114E-01</totfact>
</mgrwt>
</event>
<event>
 4    1  0.1295381E-008  0.2340461E+04  0.7816531E-02  0.8462137E-01
          2   -1    0    0  501    0  0.00000000000E+00  0.00000000000E+00  0.11763775482E+04  0.11763775482E+04  0.00000000000E+00 0.  1.
         -2   -1    0    0    0  501 -0.00000000000E+00 -0.00000000000E+00 -0.11641153979E+04  0.11641153979E+04  0.00000000000E+00 0. -1.
    2000013    1    1    2    0    0  0.64150298644E+03  0.20028498330E+03 -0.11755999742E+03  0.11695984393E+04  0.95000000000E+03 0.  0.
   -2000013    1    1    2    0    0 -0.64150298644E+03 -0.20028498330E+03  0.12982214775E+03  0.11708945069E+04  0.95000000000E+03 0.  0.
<mgrwt>
<rscale>  0 0.23404608E+04</rscale>
<asrwt>0</asrwt>
<pdfrwt beam="1">  1        2 0.18098116E+00 0.23404608E+04</pdfrwt>
<pdfrwt beam="2">  1       -2 0.17909468E+00 0.23404608E+04</pdfrwt>
<totfact> 0.32531244E+00</totfact>
</mgrwt>
</event>
<event>
 4    1  0.1295381E-008  0.2177658E+04  0.7816531E-02  0.8527785E-01
          2   -1    0    0  501    0  0.00000000000E+00  0.00000000000E+00  0.12455789893E+04  0.12455789893E+04  0.00000000000E+00 0.  1.
         -2   -1    0    0    0  501 -0.00000000000E+00 -0.00000000000E+00 -0.95180554422E+03  0.95180554422E+03  0.00000000000E+00 0. -1.
    2000013    1    1    2    0    0 -0.39421656319E+03  0.34371624381E+03  0.24524498914E+03  0.11118420120E+04  0.95000000000E+03 0.  0.
   -2000013    1    1    2    0    0  0.39421656319E+03 -0.34371624381E+03  0.48528455918E+02  0.10855425215E+04  0.95000000000E+03 0.  0.
<mgrwt>
<rscale>  0 0.21776584E+04</rscale>
<asrwt>0</asrwt>
<pdfrwt beam="1">  1        2 0.19162754E+00 0.21776584E+04</pdfrwt>
<pdfrwt beam="2">  1       -2 0.14643162E+00 0.21776584E+04</pdfrwt>
<totfact> 0.52037482E+00</totfact>
</mgrwt>
</event>
<event>
 4    1  0.1295381E-008  0.2729425E+04  0.7816531E-02  0.8325520E-01
         -2   -1    0    0    0  501 -0.00000000000E+00  0.00000000000E+00  0.12187211320E+04  0.12187211320E+04  0.00000000000E+00 0. -1.
          2   -1    0    0  501    0  0.00000000000E+00 -0.00000000000E+00 -0.15281927645E+04  0.15281927645E+04  0.00000000000E+00 0.  1.
    2000013    1    1    2    0    0 -0.78444804521E+03  0.44839191094E+03  0.22654088949E+03  0.13305017159E+04  0.95000000000E+03 0.  0.
   -2000013    1    1    2    0    0  0.78444804521E+03 -0.44839191094E+03 -0.53601252206E+03  0.14164121806E+04  0.95000000000E+03 0.  0.
<mgrwt>
<rscale>  0 0.27294254E+04</rscale>
<asrwt>0</asrwt>
<pdfrwt beam="2">  1        2 0.23510658E+00 0.27294254E+04</pdfrwt>
<pdfrwt beam="1">  1       -2 0.18749556E+00 0.27294254E+04</pdfrwt>
<totfact> 0.17260531E+00</totfact>
</mgrwt>
</event>
<event>
 4    1  0.1295381E-008  0.2194476E+04  0.7816531E-02  0.8520731E-01
          2   -1    0    0  501    0  0.00000000000E+00  0.00000000000E+00  0.94160311484E+03  0.94160311484E+03  0.00000000000E+00 0.  1.
         -2   -1    0    0    0  501 -0.00000000000E+00 -0.00000000000E+00 -0.12785977746E+04  0.12785977746E+04  0.00000000000E+00 0. -1.
    2000013    1    1    2    0    0  0.12039473464E+03  0.41232299226E+03  0.17745626336E+03  0.10575896499E+04  0.95000000000E+03 0.  0.
   -2000013    1    1    2    0    0 -0.12039473464E+03 -0.41232299226E+03 -0.51445092308E+03  0.11626112396E+04  0.95000000000E+03 0.  0.
<mgrwt>
<rscale>  0 0.21944764E+04</rscale>
<asrwt>0</asrwt>
<pdfrwt beam="1">  1        2 0.14486202E+00 0.21944764E+04</pdfrwt>
<pdfrwt beam="2">  1       -2 0.19670735E+00 0.21944764E+04</pdfrwt>
<totfact> 0.35149965E+00</totfact>
</mgrwt>
</event>
<event>
 4    1  0.1295381E-008  0.2892677E+04  0.7816531E-02  0.8275060E-01
         -2   -1    0    0    0  501 -0.00000000000E+00  0.00000000000E+00  0.25649198702E+04  0.25649198702E+04  0.00000000000E+00 0. -1.
          2   -1    0    0  501    0  0.00000000000E+00 -0.00000000000E+00 -0.81557929101E+03  0.81557929101E+03  0.00000000000E+00 0.  1.
    2000013    1    1    2    0    0  0.68573371608E+03 -0.59026422218E+03  0.16309124931E+03  0.13220216855E+04  0.95000000000E+03 0.  0.
   -2000013    1    1    2    0    0 -0.68573371608E+03  0.59026422218E+03  0.15862493299E+04  0.20584774757E+04  0.95000000000E+03 0.  0.
<mgrwt>
<rscale>  0 0.28926773E+04</rscale>
<asrwt>0</asrwt>
<pdfrwt beam="2">  1        2 0.12547374E+00 0.28926773E+04</pdfrwt>
<pdfrwt beam="1">  1       -2 0.39460305E+00 0.28926773E+04</pdfrwt>
<totfact> 0.23324319E-01</totfact>
</mgrwt>
</event>
<event>
 4    1  0.1295381E-008  0.4445246E+04  0.7816531E-02  0.7920293E-01
         -2   -1    0    0    0  501 -0.00000000000E+00  0.00000000000E+00  0.17622558988E+04  0.17622558988E+04  0.00000000000E+00 0. -1.
          2   -1    0    0  501    0  0.00000000000E+00 -0.00000000000E+00 -0.28032554545E+04  0.28032554545E+04  0.00000000000E+00 0.  1.
    2000013    1    1    2    0    0  0.15977206035E+04  0.11934924318E+04 -0.26804865026E+03  0.22251933378E+04  0.95000000000E+03 0.  0.
   -2000013    1    1    2    0    0 -0.15977206035E+04 -0.11934924318E+04 -0.77295090543E+03  0.23403180155E+04  0.95000000000E+03 0.  0.
<mgrwt>
<rscale>  0 0.44452462E+04</rscale>
<asrwt>0</asrwt>
<pdfrwt beam="2">  1        2 0.43127007E+00 0.44452462E+04</pdfrwt>
<pdfrwt beam="1">  1       -2 0.27111629E+00 0.44452462E+04</pdfrwt>
<totfact> 0.83568325E-02</totfact>
</mgrwt>
</event>
<event>
 4    1  0.1295381E-008  0.2475217E+04  0.7816531E-02  0.8411868E-01
          2   -1    0    0  501    0  0.00000000000E+00  0.00000000000E+00  0.35124647895E+04  0.35124647895E+04  0.00000000000E+00 0.  1.
         -2   -1    0    0    0  501 -0.00000000000E+00 -0.00000000000E+00 -0.43606825386E+03  0.43606825386E+03  0.00000000000E+00 0. -1.
    2000013    1    1    2    0    0  0.51073050646E+03 -0.47058235326E+03  0.92682654797E+03  0.14979321919E+04  0.95000000000E+03 0.  0.
   -2000013    1    1    2    0    0 -0.51073050646E+03  0.47058235326E+03  0.21495699876E+04  0.24506008515E+04  0.95000000000E+03 0.  0.
<mgrwt>
<rscale>  0 0.24752167E+04</rscale>
<asrwt>0</asrwt>
<pdfrwt beam="1">  1        2 0.54037918E+00 0.24752167E+04</pdfrwt>
<pdfrwt beam="2">  1       -2 0.67087426E-01 0.24752167E+04</pdfrwt>
<totfact> 0.14541573E+00</totfact>
</mgrwt>
</event>
<event>
 4    1  0.1295381E-008  0.3321383E+04  0.7816531E-02  0.8157476E-01
          2   -1    0    0  501    0  0.00000000000E+00  0.00000000000E+00  0.16420171168E+04  0.16420171168E+04  0.00000000000E+00 0.  1.
         -2   -1    0    0    0  501 -0.00000000000E+00 -0.00000000000E+00 -0.16795778647E+04  0.16795778647E+04  0.00000000000E+00 0. -1.
    2000013    1    1    2    0    0 -0.82932711152E+03 -0.93156672643E+02  0.10578264221E+04  0.16486231719E+04  0.95000000000E+03 0.  0.
   -2000013    1    1    2    0    0  0.82932711152E+03  0.93156672643E+02 -0.10953871700E+04  0.16729718096E+04  0.95000000000E+03 0.  0.
<mgrwt>
<rscale>  0 0.33213826E+04</rscale>
<asrwt>0</asrwt>
<pdfrwt beam="1">  1        2 0.25261802E+00 0.33213826E+04</pdfrwt>
<pdfrwt beam="2">  1       -2 0.25839659E+00 0.33213826E+04</pdfrwt>
<totfact> 0.50269273E-01</totfact>
</mgrwt>
</event>
<event>
 4    1  0.1295381E-008  0.2450223E+04  0.7816531E-02  0.8420936E-01
         -2   -1    0    0    0  501 -0.00000000000E+00  0.00000000000E+00  0.69246225043E+03  0.69246225043E+03  0.00000000000E+00 0. -1.
          2   -1    0    0  501    0  0.00000000000E+00 -0.00000000000E+00 -0.21674806805E+04  0.21674806805E+04  0.00000000000E+00 0.  1.
    2000013    1    1    2    0    0 -0.11817104330E+03 -0.66018081268E+03 -0.11874490622E+04  0.16620283921E+04  0.95000000000E+03 0.  0.
   -2000013    1    1    2    0    0  0.11817104330E+03  0.66018081268E+03 -0.28756936785E+03  0.11979145388E+04  0.95000000000E+03 0.  0.
<mgrwt>
<rscale>  0 0.24502233E+04</rscale>
<asrwt>0</asrwt>
<pdfrwt beam="2">  1        2 0.33345857E+00 0.24502233E+04</pdfrwt>
<pdfrwt beam="1">  1       -2 0.10653265E+00 0.24502233E+04</pdfrwt>
<totfact> 0.34236110E+00</totfact>
</mgrwt>
</event>
<event>
 4    1  0.1295381E-008  0.3183228E+04  0.7816531E-02  0.8193261E-01
          1   -1    0    0  501    0  0.00000000000E+00  0.00000000000E+00  0.19149688349E+04  0.19149688349E+04  0.00000000000E+00 0.  1.
         -1   -1    0    0    0  501 -0.00000000000E+00 -0.00000000000E+00 -0.13228600976E+04  0.13228600976E+04  0.00000000000E+00 0. -1.
    2000013    1    1    2    0    0 -0.10400489093E+04  0.61995355013E+03  0.70883753237E+03  0.16944010108E+04  0.95000000000E+03 0.  0.
   -2000013    1    1    2    0    0  0.10400489093E+04 -0.61995355013E+03 -0.11672879510E+03  0.15434279217E+04  0.95000000000E+03 0.  0.
<mgrwt>
<rscale>  0 0.31832285E+04</rscale>
<asrwt>0</asrwt>
<pdfrwt beam="1">  1        1 0.29461059E+00 0.31832285E+04</pdfrwt>
<pdfrwt beam="2">  1       -1 0.20351694E+00 0.31832285E+04</pdfrwt>
<totfact> 0.40594184E-01</totfact>
</mgrwt>
</event>
<event>
 4    1  0.1295381E-008  0.3513828E+04  0.7816531E-02  0.8110521E-01
          2   -1    0    0  501    0  0.00000000000E+00  0.00000000000E+00  0.16941869593E+04  0.16941869593E+04  0.00000000000E+00 0.  1.
         -2   -1    0    0    0  501 -0.00000000000E+00 -0.00000000000E+00 -0.18219632612E+04  0.18219632612E+04  0.00000000000E+00 0. -1.
    2000013    1    1    2    0    0  0.18717833781E+03 -0.10308830755E+04  0.97914945657E+03  0.17201713007E+04  0.95000000000E+03 0.  0.
   -2000013    1    1    2    0    0 -0.18717833781E+03  0.10308830755E+04 -0.11069257585E+04  0.17959789198E+04  0.95000000000E+03 0.  0.
<mgrwt>
<rscale>  0 0.35138278E+04</rscale>
<asrwt>0</asrwt>
<pdfrwt beam="1">  1        2 0.26064415E+00 0.35138278E+04</pdfrwt>
<pdfrwt beam="2">  1       -2 0.28030204E+00 0.35138278E+04</pdfrwt>
<totfact> 0.34006459E-01</totfact>
</mgrwt>
</event>
<event>
 4    1  0.1295381E-008  0.2469254E+04  0.7816531E-02  0.8414021E-01
          2   -1    0    0  501    0  0.00000000000E+00  0.00000000000E+00  0.28880451732E+04  0.28880451732E+04  0.00000000000E+00 0.  1.
         -2   -1    0    0    0  501 -0.00000000000E+00 -0.00000000000E+00 -0.52779780839E+03  0.52779780839E+03  0.00000000000E+00 0. -1.
    2000013    1    1    2    0    0  0.41638014625E+02 -0.78670972857E+03  0.12271980866E+04  0.17404485241E+04  0.95000000000E+03 0.  0.
   -2000013    1    1    2    0    0 -0.41638014625E+02  0.78670972857E+03  0.11330492782E+04  0.16753944574E+04  0.95000000000E+03 0.  0.
<mgrwt>
<rscale>  0 0.24692541E+04</rscale>
<asrwt>0</asrwt>
<pdfrwt beam="1">  1        2 0.44431463E+00 0.24692541E+04</pdfrwt>
<pdfrwt beam="2">  1       -2 0.81199664E-01 0.24692541E+04</pdfrwt>
<totfact> 0.24424344E+00</totfact>
</mgrwt>
</event>
<event>
 4    1  0.1295381E-008  0.2184562E+04  0.7816531E-02  0.8524881E-01
         -2   -1    0    0    0  501 -0.00000000000E+00  0.00000000000E+00  0.47571430161E+03  0.47571430161E+03  0.00000000000E+00 0. -1.
          2   -1    0    0  501    0  0.00000000000E+00 -0.00000000000E+00 -0.25079704971E+04  0.25079704971E+04  0.00000000000E+00 0.  1.
    2000013    1    1    2    0    0 -0.14989375246E+03  0.49519442725E+03 -0.80948144686E+03  0.13510906227E+04  0.95000000000E+03 0.  0.
   -2000013    1    1    2    0    0  0.14989375246E+03 -0.49519442725E+03 -0.12227747486E+04  0.16325941761E+04  0.95000000000E+03 0.  0.
<mgrwt>
<rscale>  0 0.21845617E+04</rscale>
<asrwt>0</asrwt>
<pdfrwt beam="2">  1        2 0.38584161E+00 0.21845617E+04</pdfrwt>
<pdfrwt beam="1">  1       -2 0.73186817E-01 0.21845617E+04</pdfrwt>
<totfact> 0.53143381E+00</totfact>
</mgrwt>
</event>
<event>
 4    1  0.1295381E-008  0.2276834E+04  0.7816531E-02  0.8487112E-01
          2   -1    0    0  501    0  0.00000000000E+00  0.00000000000E+00  0.34607709124E+04  0.34607709124E+04  0.00000000000E+00 0.  1.
         -2   -1    0    0    0  501 -0.00000000000E+00 -0.00000000000E+00 -0.37448104665E+03  0.37448104665E+03  0.00000000000E+00 0. -1.
    2000013    1    1    2    0    0  0.35511283831E+03  0.51095495290E+03  0.14093063905E+04  0.18099239195E+04  0.95000000000E+03 0.  0.
   -2000013    1    1    2    0    0 -0.35511283831E+03 -0.51095495290E+03  0.16769834752E+04  0.20253280396E+04  0.95000000000E+03 0.  0.
<mgrwt>
<rscale>  0 0.22768339E+04</rscale>
<asrwt>0</asrwt>
<pdfrwt beam="1">  1        2 0.53242627E+00 0.22768339E+04</pdfrwt>
<pdfrwt beam="2">  1       -2 0.57612471E-01 0.22768339E+04</pdfrwt>
<totfact> 0.22248674E+00</totfact>
</mgrwt>
</event>
<event>
 4    1  0.1295381E-008  0.3561723E+04  0.7816531E-02  0.8099316E-01
         -2   -1    0    0    0  501 -0.00000000000E+00  0.00000000000E+00  0.12425217772E+04  0.12425217772E+04  0.00000000000E+00 0. -1.
          2   -1    0    0  501    0  0.00000000000E+00 -0.00000000000E+00 -0.25524449849E+04  0.25524449849E+04  0.00000000000E+00 0.  1.
    2000013    1    1    2    0    0 -0.10352551239E+04  0.85347013638E+03  0.74568892089E+02  0.16456685465E+04  0.95000000000E+03 0.  0.
   -2000013    1    1    2    0    0  0.10352551239E+04 -0.85347013638E+03 -0.13844920998E+04  0.21492982156E+04  0.95000000000E+03 0.  0.
<mgrwt>
<rscale>  0 0.35617234E+04</rscale>
<asrwt>0</asrwt>
<pdfrwt beam="2">  1        2 0.39268384E+00 0.35617234E+04</pdfrwt>
<pdfrwt beam="1">  1       -2 0.19115720E+00 0.35617234E+04</pdfrwt>
<totfact> 0.40386745E-01</totfact>
</mgrwt>
</event>
<event>
 4    1  0.1295381E-008  0.2368505E+04  0.7816531E-02  0.8451390E-01
          2   -1    0    0  501    0  0.00000000000E+00  0.00000000000E+00  0.16029598396E+04  0.16029598396E+04  0.00000000000E+00 0.  1.
         -2   -1    0    0    0  501 -0.00000000000E+00 -0.00000000000E+00 -0.87491496471E+03  0.87491496471E+03  0.00000000000E+00 0. -1.
    2000013    1    1    2    0    0  0.59535853307E+03 -0.13021197198E+03  0.73911239465E+03  0.13491456825E+04  0.95000000000E+03 0.  0.
   -2000013    1    1    2    0    0 -0.59535853307E+03  0.13021197198E+03 -0.11067519759E+02  0.11287291219E+04  0.95000000000E+03 0.  0.
<mgrwt>
<rscale>  0 0.23685046E+04</rscale>
<asrwt>0</asrwt>
<pdfrwt beam="1">  1        2 0.24660921E+00 0.23685046E+04</pdfrwt>
<pdfrwt beam="2">  1       -2 0.13460230E+00 0.23685046E+04</pdfrwt>
<totfact> 0.39819211E+00</totfact>
</mgrwt>
</event>
<event>
 4    1  0.1295381E-008  0.2940117E+04  0.7816531E-02  0.8261041E-01
          2   -1    0    0  501    0  0.00000000000E+00  0.00000000000E+00  0.27794309268E+04  0.27794309268E+04  0.00000000000E+00 0.  1.
         -2   -1    0    0    0  501 -0.00000000000E+00 -0.00000000000E+00 -0.77752317243E+03  0.77752317243E+03  0.00000000000E+00 0. -1.
    2000013    1    1    2    0    0  0.93515909835E+03  0.31432613813E+03  0.35481580741E+03  0.14148207369E+04  0.95000000000E+03 0.  0.
   -2000013    1    1    2    0    0 -0.93515909835E+03 -0.31432613813E+03  0.16470919470E+04  0.21421333624E+04  0.95000000000E+03 0.  0.
<mgrwt>
<rscale>  0 0.29401170E+04</rscale>
<asrwt>0</asrwt>
<pdfrwt beam="1">  1        2 0.42760476E+00 0.29401170E+04</pdfrwt>
<pdfrwt beam="2">  1       -2 0.11961895E+00 0.29401170E+04</pdfrwt>
<totfact> 0.10951377E+00</totfact>
</mgrwt>
</event>
<event>
 4    1  0.1295381E-008  0.3342069E+04  0.7816531E-02  0.8152273E-01
          2   -1    0    0  501    0  0.00000000000E+00  0.00000000000E+00  0.15538642242E+04  0.15538642242E+04  0.00000000000E+00 0.  1.
         -2   -1    0    0    0  501 -0.00000000000E+00 -0.00000000000E+00 -0.17970402937E+04  0.17970402937E+04  0.00000000000E+00 0. -1.
    2000013    1    1    2    0    0 -0.11694749673E+04  0.63231554964E+03 -0.47231555418E+03  0.17009046523E+04  0.95000000000E+03 0.  0.
   -2000013    1    1    2    0    0  0.11694749673E+04 -0.63231554964E+03  0.22913948469E+03  0.16499998657E+04  0.95000000000E+03 0.  0.
<mgrwt>
<rscale>  0 0.33420692E+04</rscale>
<asrwt>0</asrwt>
<pdfrwt beam="1">  1        2 0.23905603E+00 0.33420692E+04</pdfrwt>
<pdfrwt beam="2">  1       -2 0.27646774E+00 0.33420692E+04</pdfrwt>
<totfact> 0.43600342E-01</totfact>
</mgrwt>
</event>
<event>
 4    1  0.1295381E-008  0.2440271E+04  0.7816531E-02  0.8424579E-01
         -1   -1    0    0    0  501 -0.00000000000E+00  0.00000000000E+00  0.10280846957E+04  0.10280846957E+04  0.00000000000E+00 0. -1.
          1   -1    0    0  501    0  0.00000000000E+00 -0.00000000000E+00 -0.14480618188E+04  0.14480618188E+04  0.00000000000E+00 0.  1.
    2000013    1    1    2    0    0  0.10946189544E+03  0.75753595228E+03 -0.22996475504E+03  0.12414614026E+04  0.95000000000E+03 0.  0.
   -2000013    1    1    2    0    0 -0.10946189544E+03 -0.75753595228E+03 -0.19001236810E+03  0.12346851119E+04  0.95000000000E+03 0.  0.
<mgrwt>
<rscale>  0 0.24402706E+04</rscale>
<asrwt>0</asrwt>
<pdfrwt beam="2">  1        1 0.22277874E+00 0.24402706E+04</pdfrwt>
<pdfrwt beam="1">  1       -1 0.15816688E+00 0.24402706E+04</pdfrwt>
<totfact> 0.19160435E+00</totfact>
</mgrwt>
</event>
<event>
 4    1  0.1295381E-008  0.2673602E+04  0.7816531E-02  0.8343621E-01
          1   -1    0    0  501    0  0.00000000000E+00  0.00000000000E+00  0.22374649811E+04  0.22374649811E+04  0.00000000000E+00 0. -1.
         -1   -1    0    0    0  501 -0.00000000000E+00 -0.00000000000E+00 -0.79868829699E+03  0.79868829699E+03  0.00000000000E+00 0.  1.
    2000013    1    1    2    0    0  0.45046514359E+03  0.31809926213E+03  0.15845599400E+04  0.19280654008E+04  0.95000000000E+03 0.  0.
   -2000013    1    1    2    0    0 -0.45046514359E+03 -0.31809926213E+03 -0.14578325592E+03  0.11080878773E+04  0.95000000000E+03 0.  0.
<mgrwt>
<rscale>  0 0.26736021E+04</rscale>
<asrwt>0</asrwt>
<pdfrwt beam="1">  1        1 0.34422538E+00 0.26736021E+04</pdfrwt>
<pdfrwt beam="2">  1       -1 0.12287512E+00 0.26736021E+04</pdfrwt>
<totfact> 0.10493745E+00</totfact>
</mgrwt>
</event>
<event>
 4    1  0.1295381E-008  0.3261096E+04  0.7816531E-02  0.8172866E-01
         -2   -1    0    0    0  501 -0.00000000000E+00  0.00000000000E+00  0.11665012913E+04  0.11665012913E+04  0.00000000000E+00 0.  1.
          2   -1    0    0  501    0  0.00000000000E+00 -0.00000000000E+00 -0.22791973560E+04  0.22791973560E+04  0.00000000000E+00 0. -1.
    2000013    1    1    2    0    0 -0.52344127019E+03 -0.10527941192E+04  0.89670891105E+02  0.15142348198E+04  0.95000000000E+03 0.  0.
   -2000013    1    1    2    0    0  0.52344127019E+03  0.10527941192E+04 -0.12023669558E+04  0.19314638276E+04  0.95000000000E+03 0.  0.
<mgrwt>
<rscale>  0 0.32610959E+04</rscale>
<asrwt>0</asrwt>
<pdfrwt beam="2">  1        2 0.35064574E+00 0.32610959E+04</pdfrwt>
<pdfrwt beam="1">  1       -2 0.17946174E+00 0.32610959E+04</pdfrwt>
<totfact> 0.71381943E-01</totfact>
</mgrwt>
</event>
<event>
 4    1  0.1295381E-008  0.3747748E+04  0.7816531E-02  0.8057462E-01
          2   -1    0    0  501    0  0.00000000000E+00  0.00000000000E+00  0.19924553271E+04  0.19924553271E+04  0.00000000000E+00 0.  1.
         -2   -1    0    0    0  501 -0.00000000000E+00 -0.00000000000E+00 -0.17623500353E+04  0.17623500353E+04  0.00000000000E+00 0. -1.
    2000013    1    1    2    0    0  0.85346743838E+03 -0.10534949223E+04  0.99456992064E+03  0.19313020341E+04  0.95000000000E+03 0.  0.
   -2000013    1    1    2    0    0 -0.85346743838E+03  0.10534949223E+04 -0.76446462889E+03  0.18235033283E+04  0.95000000000E+03 0.  0.
<mgrwt>
<rscale>  0 0.37477480E+04</rscale>
<asrwt>0</asrwt>
<pdfrwt beam="1">  1        2 0.30653159E+00 0.37477480E+04</pdfrwt>
<pdfrwt beam="2">  1       -2 0.27113078E+00 0.37477480E+04</pdfrwt>
<totfact> 0.25914868E-01</totfact>
</mgrwt>
</event>
<event>
 4    1  0.1295381E-008  0.2385126E+04  0.7816531E-02  0.8445093E-01
         -2   -1    0    0    0  501 -0.00000000000E+00  0.00000000000E+00  0.39658588257E+03  0.39658588257E+03  0.00000000000E+00 0. -1.
          2   -1    0    0  501    0  0.00000000000E+00 -0.00000000000E+00 -0.35861241280E+04  0.35861241280E+04  0.00000000000E+00 0.  1.
    2000013    1    1    2    0    0  0.55730334931E+03  0.14692515777E+02 -0.83156612840E+03  0.13801467745E+04  0.95000000000E+03 0.  0.
   -2000013    1    1    2    0    0 -0.55730334931E+03 -0.14692515777E+02 -0.23579721170E+04  0.26025632361E+04  0.95000000000E+03 0.  0.
<mgrwt>
<rscale>  0 0.23851257E+04</rscale>
<asrwt>0</asrwt>
<pdfrwt beam="2">  1        2 0.55171142E+00 0.23851257E+04</pdfrwt>
<pdfrwt beam="1">  1       -2 0.61013211E-01 0.23851257E+04</pdfrwt>
<totfact> 0.15936339E+00</totfact>
</mgrwt>
</event>
<event>
 4    1  0.1295381E-008  0.2183103E+04  0.7816531E-02  0.8525494E-01
         -2   -1    0    0    0  501 -0.00000000000E+00  0.00000000000E+00  0.80115913660E+03  0.80115913660E+03  0.00000000000E+00 0. -1.
          2   -1    0    0  501    0  0.00000000000E+00 -0.00000000000E+00 -0.14872006794E+04  0.14872006794E+04  0.00000000000E+00 0.  1.
    2000013    1    1    2    0    0 -0.12182278523E+03  0.44574696426E+03 -0.55089288673E+02  0.10578591479E+04  0.95000000000E+03 0.  0.
   -2000013    1    1    2    0    0  0.12182278523E+03 -0.44574696426E+03 -0.63095225417E+03  0.12305006681E+04  0.95000000000E+03 0.  0.
<mgrwt>
<rscale>  0 0.21831028E+04</rscale>
<asrwt>0</asrwt>
<pdfrwt beam="2">  1        2 0.22880010E+00 0.21831028E+04</pdfrwt>
<pdfrwt beam="1">  1       -2 0.12325525E+00 0.21831028E+04</pdfrwt>
<totfact> 0.58689088E+00</totfact>
</mgrwt>
</event>
<event>
 4    1  0.1295381E-008  0.2368911E+04  0.7816531E-02  0.8451235E-01
          2   -1    0    0  501    0  0.00000000000E+00  0.00000000000E+00  0.28168234795E+04  0.28168234795E+04  0.00000000000E+00 0.  1.
         -2   -1    0    0    0  501 -0.00000000000E+00 -0.00000000000E+00 -0.49805549780E+03  0.49805549780E+03  0.00000000000E+00 0. -1.
    2000013    1    1    2    0    0 -0.56229950918E+03 -0.55244553257E+01  0.55877598982E+03  0.12373123552E+04  0.95000000000E+03 0.  0.
   -2000013    1    1    2    0    0  0.56229950918E+03  0.55244553257E+01  0.17599919919E+04  0.20775666221E+04  0.95000000000E+03 0.  0.
<mgrwt>
<rscale>  0 0.23689107E+04</rscale>
<asrwt>0</asrwt>
<pdfrwt beam="1">  1        2 0.43335745E+00 0.23689107E+04</pdfrwt>
<pdfrwt beam="2">  1       -2 0.76623924E-01 0.23689107E+04</pdfrwt>
<totfact> 0.31009542E+00</totfact>
</mgrwt>
</event>
<event>
 4    1  0.1295381E-008  0.3237296E+04  0.7816531E-02  0.8179036E-01
         -2   -1    0    0    0  501 -0.00000000000E+00  0.00000000000E+00  0.13644489986E+04  0.13644489986E+04  0.00000000000E+00 0. -1.
          2   -1    0    0  501    0  0.00000000000E+00 -0.00000000000E+00 -0.19202040945E+04  0.19202040945E+04  0.00000000000E+00 0.  1.
    2000013    1    1    2    0    0 -0.97789659855E+02  0.13068045050E+04 -0.29291741303E+03  0.16448712542E+04  0.95000000000E+03 0.  0.
   -2000013    1    1    2    0    0  0.97789659855E+02 -0.13068045050E+04 -0.26283768284E+03  0.16397818390E+04  0.95000000000E+03 0.  0.
<mgrwt>
<rscale>  0 0.32372955E+04</rscale>
<asrwt>0</asrwt>
<pdfrwt beam="2">  1        2 0.29541601E+00 0.32372955E+04</pdfrwt>
<pdfrwt beam="1">  1       -2 0.20991523E+00 0.32372955E+04</pdfrwt>
<totfact> 0.71228403E-01</totfact>
</mgrwt>
</event>
<event>
 4    1  0.1295381E-008  0.2155015E+04  0.7816531E-02  0.8537389E-01
          2   -1    0    0  501    0  0.00000000000E+00  0.00000000000E+00  0.19222522901E+04  0.19222522901E+04  0.00000000000E+00 0.  1.
         -2   -1    0    0    0  501 -0.00000000000E+00 -0.00000000000E+00 -0.60399075526E+03  0.60399075526E+03  0.00000000000E+00 0. -1.
    2000013    1    1    2    0    0  0.12108740118E+03  0.34732994411E+03  0.24763102870E+03  0.10483898965E+04  0.95000000000E+03 0.  0.
   -2000013    1    1    2    0    0 -0.12108740118E+03 -0.34732994411E+03  0.10706305061E+04  0.14778531488E+04  0.95000000000E+03 0.  0.
<mgrwt>
<rscale>  0 0.21550152E+04</rscale>
<asrwt>0</asrwt>
<pdfrwt beam="1">  1        2 0.29573112E+00 0.21550152E+04</pdfrwt>
<pdfrwt beam="2">  1       -2 0.92921655E-01 0.21550152E+04</pdfrwt>
<totfact> 0.66443797E+00</totfact>
</mgrwt>
</event>
<event>
 4    1  0.1295381E-008  0.2190519E+04  0.7816531E-02  0.8522385E-01
         -2   -1    0    0    0  501 -0.00000000000E+00  0.00000000000E+00  0.41265844896E+03  0.41265844896E+03  0.00000000000E+00 0. -1.
          2   -1    0    0  501    0  0.00000000000E+00 -0.00000000000E+00 -0.29069875817E+04  0.29069875817E+04  0.00000000000E+00 0.  1.
    2000013    1    1    2    0    0  0.47387339896E+03 -0.23074912189E+03 -0.14576546056E+04  0.18179818769E+04  0.95000000000E+03 0.  0.
   -2000013    1    1    2    0    0 -0.47387339896E+03  0.23074912189E+03 -0.10366745272E+04  0.15016641538E+04  0.95000000000E+03 0.  0.
<mgrwt>
<rscale>  0 0.21905186E+04</rscale>
<asrwt>0</asrwt>
<pdfrwt beam="2">  1        2 0.44722886E+00 0.21905186E+04</pdfrwt>
<pdfrwt beam="1">  1       -2 0.63485915E-01 0.21905186E+04</pdfrwt>
<totfact> 0.41829284E+00</totfact>
</mgrwt>
</event>
<event>
 4    1  0.1295381E-008  0.2586661E+04  0.7816531E-02  0.8372746E-01
          2   -1    0    0  501    0  0.00000000000E+00  0.00000000000E+00  0.14739345571E+04  0.14739345571E+04  0.00000000000E+00 0.  1.
         -2   -1    0    0    0  501 -0.00000000000E+00 -0.00000000000E+00 -0.11348558558E+04  0.11348558558E+04  0.00000000000E+00 0. -1.
    2000013    1    1    2    0    0 -0.21977829569E+03 -0.54887037132E+03  0.82365735027E+03  0.13894144862E+04  0.95000000000E+03 0.  0.
   -2000013    1    1    2    0    0  0.21977829569E+03  0.54887037132E+03 -0.48457864899E+03  0.12193759268E+04  0.95000000000E+03 0.  0.
<mgrwt>
<rscale>  0 0.25866606E+04</rscale>
<asrwt>0</asrwt>
<pdfrwt beam="1">  1        2 0.22675916E+00 0.25866606E+04</pdfrwt>
<pdfrwt beam="2">  1       -2 0.17459321E+00 0.25866606E+04</pdfrwt>
<totfact> 0.23003403E+00</totfact>
</mgrwt>
</event>
<event>
 4    1  0.1295381E-008  0.4155905E+04  0.7816531E-02  0.7973813E-01
         -2   -1    0    0    0  501 -0.00000000000E+00  0.00000000000E+00  0.17410502194E+04  0.17410502194E+04  0.00000000000E+00 0.  1.
          2   -1    0    0  501    0  0.00000000000E+00 -0.00000000000E+00 -0.24800468813E+04  0.24800468813E+04  0.00000000000E+00 0. -1.
    2000013    1    1    2    0    0 -0.36914526646E+03  0.41825124592E+03  0.14200089471E+04  0.17972556141E+04  0.95000000000E+03 0.  0.
   -2000013    1    1    2    0    0  0.36914526646E+03 -0.41825124592E+03 -0.21590056091E+04  0.24238414866E+04  0.95000000000E+03 0.  0.
<mgrwt>
<rscale>  0 0.41559048E+04</rscale>
<asrwt>0</asrwt>
<pdfrwt beam="2">  1        2 0.38154568E+00 0.41559048E+04</pdfrwt>
<pdfrwt beam="1">  1       -2 0.26785388E+00 0.41559048E+04</pdfrwt>
<totfact> 0.13912387E-01</totfact>
</mgrwt>
</event>
<event>
 4    1  0.1295381E-008  0.2851641E+04  0.7816531E-02  0.8287413E-01
          2   -1    0    0  501    0  0.00000000000E+00  0.00000000000E+00  0.18869032816E+04  0.18869032816E+04  0.00000000000E+00 0.  1.
         -2   -1    0    0    0  501 -0.00000000000E+00 -0.00000000000E+00 -0.10774073692E+04  0.10774073692E+04  0.00000000000E+00 0. -1.
    2000013    1    1    2    0    0  0.29627203742E+03 -0.88801315084E+03 -0.11927162728E+03  0.13390557110E+04  0.95000000000E+03 0.  0.
   -2000013    1    1    2    0    0 -0.29627203742E+03  0.88801315084E+03  0.92876753969E+03  0.16252549397E+04  0.95000000000E+03 0.  0.
<mgrwt>
<rscale>  0 0.28516406E+04</rscale>
<asrwt>0</asrwt>
<pdfrwt beam="1">  1        2 0.29029281E+00 0.28516406E+04</pdfrwt>
<pdfrwt beam="2">  1       -2 0.16575498E+00 0.28516406E+04</pdfrwt>
<totfact> 0.15298209E+00</totfact>
</mgrwt>
</event>
<event>
 4    1  0.1295381E-008  0.2709704E+04  0.7816531E-02  0.8331863E-01
         -1   -1    0    0    0  501 -0.00000000000E+00  0.00000000000E+00  0.10087207199E+04  0.10087207199E+04  0.00000000000E+00 0. -1.
          1   -1    0    0  501    0  0.00000000000E+00 -0.00000000000E+00 -0.18197541740E+04  0.18197541740E+04  0.00000000000E+00 0.  1.
    2000013    1    1    2    0    0 -0.33394475661E+03 -0.36589902191E+03  0.46012290283E+03  0.11660249913E+04  0.95000000000E+03 0.  0.
   -2000013    1    1    2    0    0  0.33394475661E+03  0.36589902191E+03 -0.12711563570E+04  0.16624499026E+04  0.95000000000E+03 0.  0.
<mgrwt>
<rscale>  0 0.27097039E+04</rscale>
<asrwt>0</asrwt>
<pdfrwt beam="2">  1        1 0.27996218E+00 0.27097039E+04</pdfrwt>
<pdfrwt beam="1">  1       -1 0.15518781E+00 0.27097039E+04</pdfrwt>
<totfact> 0.10960525E+00</totfact>
</mgrwt>
</event>
<event>
 4    1  0.1295381E-008  0.2129985E+04  0.7816531E-02  0.8548148E-01
         -2   -1    0    0    0  501 -0.00000000000E+00  0.00000000000E+00  0.96591185531E+03  0.96591185531E+03  0.00000000000E+00 0. -1.
          2   -1    0    0  501    0  0.00000000000E+00 -0.00000000000E+00 -0.11742369629E+04  0.11742369629E+04  0.00000000000E+00 0.  1.
    2000013    1    1    2    0    0 -0.38436046605E+03 -0.28890092705E+03 -0.12691325255E+03  0.10722889942E+04  0.95000000000E+03 0.  0.
   -2000013    1    1    2    0    0  0.38436046605E+03  0.28890092705E+03 -0.81411855057E+02  0.10678598240E+04  0.95000000000E+03 0.  0.
<mgrwt>
<rscale>  0 0.21299854E+04</rscale>
<asrwt>0</asrwt>
<pdfrwt beam="2">  1        2 0.18065184E+00 0.21299854E+04</pdfrwt>
<pdfrwt beam="1">  1       -2 0.14860183E+00 0.21299854E+04</pdfrwt>
<totfact> 0.55425423E+00</totfact>
</mgrwt>
</event>
<event>
 4    1  0.1295381E-008  0.1976444E+04  0.7816531E-02  0.8617714E-01
          2   -1    0    0  501    0  0.00000000000E+00  0.00000000000E+00  0.18963350255E+04  0.18963350255E+04  0.00000000000E+00 0.  1.
         -2   -1    0    0    0  501 -0.00000000000E+00 -0.00000000000E+00 -0.51498406813E+03  0.51498406813E+03  0.00000000000E+00 0. -1.
    2000013    1    1    2    0    0  0.19722368905E+02 -0.26614100721E+03  0.75594782617E+03  0.12430515369E+04  0.95000000000E+03 0.  0.
   -2000013    1    1    2    0    0 -0.19722368905E+02  0.26614100721E+03  0.62540313120E+03  0.11682675567E+04  0.95000000000E+03 0.  0.
<mgrwt>
<rscale>  0 0.19764436E+04</rscale>
<asrwt>0</asrwt>
<pdfrwt beam="1">  1        2 0.29174385E+00 0.19764436E+04</pdfrwt>
<pdfrwt beam="2">  1       -2 0.79228319E-01 0.19764436E+04</pdfrwt>
<totfact> 0.10031698E+01</totfact>
</mgrwt>
</event>
<event>
 4    1  0.1295381E-008  0.3578477E+04  0.7816531E-02  0.8095440E-01
         -2   -1    0    0    0  501 -0.00000000000E+00  0.00000000000E+00  0.15937674356E+04  0.15937674356E+04  0.00000000000E+00 0. -1.
          2   -1    0    0  501    0  0.00000000000E+00 -0.00000000000E+00 -0.20086835295E+04  0.20086835295E+04  0.00000000000E+00 0.  1.
    2000013    1    1    2    0    0 -0.64413504935E+03 -0.12629886073E+04 -0.74848219330E+03  0.18635385099E+04  0.95000000000E+03 0.  0.
   -2000013    1    1    2    0    0  0.64413504935E+03  0.12629886073E+04  0.33356609939E+03  0.17389124552E+04  0.95000000000E+03 0.  0.
<mgrwt>
<rscale>  0 0.35784770E+04</rscale>
<asrwt>0</asrwt>
<pdfrwt beam="2">  1        2 0.30902823E+00 0.35784770E+04</pdfrwt>
<pdfrwt beam="1">  1       -2 0.24519499E+00 0.35784770E+04</pdfrwt>
<totfact> 0.37115213E-01</totfact>
</mgrwt>
</event>
<event>
 4    1  0.1295381E-008  0.1976501E+04  0.7816531E-02  0.8617686E-01
         -1   -1    0    0    0  501 -0.00000000000E+00  0.00000000000E+00  0.10644273959E+04  0.10644273959E+04  0.00000000000E+00 0. -1.
          1   -1    0    0  501    0  0.00000000000E+00 -0.00000000000E+00 -0.91752572446E+03  0.91752572446E+03  0.00000000000E+00 0.  1.
    2000013    1    1    2    0    0  0.25209174048E+03  0.90277091517E+02  0.23925149043E+02  0.98730573361E+03  0.95000000000E+03 0.  0.
   -2000013    1    1    2    0    0 -0.25209174048E+03 -0.90277091517E+02  0.12297652238E+03  0.99464738673E+03  0.95000000000E+03 0.  0.
<mgrwt>
<rscale>  0 0.19765015E+04</rscale>
<asrwt>0</asrwt>
<pdfrwt beam="2">  1        1 0.14115780E+00 0.19765015E+04</pdfrwt>
<pdfrwt beam="1">  1       -1 0.16375806E+00 0.19765015E+04</pdfrwt>
<totfact> 0.44806213E+00</totfact>
</mgrwt>
</event>
<event>
 4    1  0.1295381E-008  0.2072963E+04  0.7816531E-02  0.8573248E-01
          2   -1    0    0  501    0  0.00000000000E+00  0.00000000000E+00  0.15386039045E+04  0.15386039045E+04  0.00000000000E+00 0. -1.
         -2   -1    0    0    0  501 -0.00000000000E+00 -0.00000000000E+00 -0.69822615702E+03  0.69822615702E+03  0.00000000000E+00 0.  1.
    2000013    1    1    2    0    0  0.20954166122E+02 -0.39487725722E+03  0.28616772409E+03  0.10680632433E+04  0.95000000000E+03 0.  0.
   -2000013    1    1    2    0    0 -0.20954166122E+02  0.39487725722E+03  0.55421002337E+03  0.11687668182E+04  0.95000000000E+03 0.  0.
<mgrwt>
<rscale>  0 0.20729626E+04</rscale>
<asrwt>0</asrwt>
<pdfrwt beam="1">  1        2 0.23670829E+00 0.20729626E+04</pdfrwt>
<pdfrwt beam="2">  1       -2 0.10741941E+00 0.20729626E+04</pdfrwt>
<totfact> 0.77599440E+00</totfact>
</mgrwt>
</event>
<event>
 4    1  0.1295381E-008  0.3505847E+04  0.7816531E-02  0.8112406E-01
         -2   -1    0    0    0  501 -0.00000000000E+00  0.00000000000E+00  0.16643720493E+04  0.16643720493E+04  0.00000000000E+00 0. -1.
          2   -1    0    0  501    0  0.00000000000E+00 -0.00000000000E+00 -0.18461859171E+04  0.18461859171E+04  0.00000000000E+00 0.  1.
    2000013    1    1    2    0    0 -0.75135608043E+03  0.11112776096E+04  0.51881720152E+03  0.17237010106E+04  0.95000000000E+03 0.  0.
   -2000013    1    1    2    0    0  0.75135608043E+03 -0.11112776096E+04 -0.70063106929E+03  0.17868569558E+04  0.95000000000E+03 0.  0.
<mgrwt>
<rscale>  0 0.35058467E+04</rscale>
<asrwt>0</asrwt>
<pdfrwt beam="2">  1        2 0.28402860E+00 0.35058467E+04</pdfrwt>
<pdfrwt beam="1">  1       -2 0.25605724E+00 0.35058467E+04</pdfrwt>
<totfact> 0.39407685E-01</totfact>
</mgrwt>
</event>
<event>
 4    1  0.1295381E-008  0.2159324E+04  0.7816531E-02  0.8535552E-01
         -2   -1    0    0    0  501 -0.00000000000E+00  0.00000000000E+00  0.10476504538E+04  0.10476504538E+04  0.00000000000E+00 0. -1.
          2   -1    0    0  501    0  0.00000000000E+00 -0.00000000000E+00 -0.11126518349E+04  0.11126518349E+04  0.00000000000E+00 0.  1.
    2000013    1    1    2    0    0  0.43311894028E+03 -0.28932849461E+01 -0.30752485537E+03  0.10884263522E+04  0.95000000000E+03 0.  0.
   -2000013    1    1    2    0    0 -0.43311894028E+03  0.28932849461E+01  0.24252347427E+03  0.10718759364E+04  0.95000000000E+03 0.  0.
<mgrwt>
<rscale>  0 0.21593242E+04</rscale>
<asrwt>0</asrwt>
<pdfrwt beam="2">  1        2 0.17117721E+00 0.21593242E+04</pdfrwt>
<pdfrwt beam="1">  1       -2 0.16117699E+00 0.21593242E+04</pdfrwt>
<totfact> 0.48451714E+00</totfact>
</mgrwt>
</event>
<event>
 4    1  0.1295381E-008  0.3724466E+04  0.7816531E-02  0.8062561E-01
          2   -1    0    0  501    0  0.00000000000E+00  0.00000000000E+00  0.30284387719E+04  0.30284387719E+04  0.00000000000E+00 0.  1.
         -2   -1    0    0    0  501 -0.00000000000E+00 -0.00000000000E+00 -0.11451156078E+04  0.11451156078E+04  0.00000000000E+00 0. -1.
    2000013    1    1    2    0    0 -0.55811326981E+03  0.11991894402E+04 -0.70504167541E+02  0.16300357582E+04  0.95000000000E+03 0.  0.
   -2000013    1    1    2    0    0  0.55811326981E+03 -0.11991894402E+04  0.19538273317E+04  0.25435186215E+04  0.95000000000E+03 0.  0.
<mgrwt>
<rscale>  0 0.37244664E+04</rscale>
<asrwt>0</asrwt>
<pdfrwt beam="1">  1        2 0.46591365E+00 0.37244664E+04</pdfrwt>
<pdfrwt beam="2">  1       -2 0.17617163E+00 0.37244664E+04</pdfrwt>
<totfact> 0.25971319E-01</totfact>
</mgrwt>
</event>
<event>
 4    1  0.1295381E-008  0.2323377E+04  0.7816531E-02  0.8468761E-01
          2   -1    0    0  501    0  0.00000000000E+00  0.00000000000E+00  0.22764426339E+04  0.22764426339E+04  0.00000000000E+00 0.  1.
         -2   -1    0    0    0  501 -0.00000000000E+00 -0.00000000000E+00 -0.59281962176E+03  0.59281962176E+03  0.00000000000E+00 0. -1.
    2000013    1    1    2    0    0  0.48605348485E+03 -0.22295182632E+03  0.34618978987E+03  0.11438106826E+04  0.95000000000E+03 0.  0.
   -2000013    1    1    2    0    0 -0.48605348485E+03  0.22295182632E+03  0.13374332223E+04  0.17254515731E+04  0.95000000000E+03 0.  0.
<mgrwt>
<rscale>  0 0.23233767E+04</rscale>
<asrwt>0</asrwt>
<pdfrwt beam="1">  1        2 0.35022194E+00 0.23233767E+04</pdfrwt>
<pdfrwt beam="2">  1       -2 0.91203020E-01 0.23233767E+04</pdfrwt>
<totfact> 0.43350729E+00</totfact>
</mgrwt>
</event>
<event>
 4    1  0.1295381E-008  0.2736818E+04  0.7816531E-02  0.8323157E-01
          1   -1    0    0  501    0  0.00000000000E+00  0.00000000000E+00  0.20101577789E+04  0.20101577789E+04  0.00000000000E+00 0.  1.
         -1   -1    0    0    0  501 -0.00000000000E+00 -0.00000000000E+00 -0.93154020925E+03  0.93154020925E+03  0.00000000000E+00 0. -1.
    2000013    1    1    2    0    0 -0.59674147042E+03 -0.77213529092E+03  0.68250956064E+03  0.15233557005E+04  0.95000000000E+03 0.  0.
   -2000013    1    1    2    0    0  0.59674147042E+03  0.77213529092E+03  0.39610800901E+03  0.14183422876E+04  0.95000000000E+03 0.  0.
<mgrwt>
<rscale>  0 0.27368177E+04</rscale>
<asrwt>0</asrwt>
<pdfrwt beam="1">  1        1 0.30925504E+00 0.27368177E+04</pdfrwt>
<pdfrwt beam="2">  1       -1 0.14331388E+00 0.27368177E+04</pdfrwt>
<totfact> 0.10060541E+00</totfact>
</mgrwt>
</event>
<event>
 4    1  0.1295381E-008  0.3216781E+04  0.7816531E-02  0.8184399E-01
         -2   -1    0    0    0  501 -0.00000000000E+00  0.00000000000E+00  0.19943324403E+04  0.19943324403E+04  0.00000000000E+00 0. -1.
          2   -1    0    0  501    0  0.00000000000E+00 -0.00000000000E+00 -0.12971359767E+04  0.12971359767E+04  0.00000000000E+00 0.  1.
    2000013    1    1    2    0    0 -0.64456966407E+03  0.37860296362E+03 -0.73698257993E+03  0.14157872647E+04  0.95000000000E+03 0.  0.
   -2000013    1    1    2    0    0  0.64456966407E+03 -0.37860296362E+03  0.14341790435E+04  0.18756811522E+04  0.95000000000E+03 0.  0.
<mgrwt>
<rscale>  0 0.32167812E+04</rscale>
<asrwt>0</asrwt>
<pdfrwt beam="2">  1        2 0.19955938E+00 0.32167812E+04</pdfrwt>
<pdfrwt beam="1">  1       -2 0.30682037E+00 0.32167812E+04</pdfrwt>
<totfact> 0.40275430E-01</totfact>
</mgrwt>
</event>
<event>
 4    1  0.1295381E-008  0.2933565E+04  0.7816531E-02  0.8262960E-01
         -1   -1    0    0    0  501 -0.00000000000E+00  0.00000000000E+00  0.54041258043E+03  0.54041258043E+03  0.00000000000E+00 0.  1.
          1   -1    0    0  501    0  0.00000000000E+00 -0.00000000000E+00 -0.39811279063E+04  0.39811279063E+04  0.00000000000E+00 0. -1.
    2000013    1    1    2    0    0 -0.83970227285E+03 -0.20475291719E+03 -0.62838611256E+03  0.14298226361E+04  0.95000000000E+03 0.  0.
   -2000013    1    1    2    0    0  0.83970227285E+03  0.20475291719E+03 -0.28123292133E+04  0.30917178506E+04  0.95000000000E+03 0.  0.
<mgrwt>
<rscale>  0 0.29335655E+04</rscale>
<asrwt>0</asrwt>
<pdfrwt beam="2">  1        1 0.61248122E+00 0.29335655E+04</pdfrwt>
<pdfrwt beam="1">  1       -1 0.83140396E-01 0.29335655E+04</pdfrwt>
<totfact> 0.12249320E-01</totfact>
</mgrwt>
</event>
<event>
 4    1  0.1295381E-008  0.2720300E+04  0.7816531E-02  0.8328448E-01
         -2   -1    0    0    0  501 -0.00000000000E+00  0.00000000000E+00  0.77692799411E+03  0.77692799411E+03  0.00000000000E+00 0. -1.
          2   -1    0    0  501    0  0.00000000000E+00 -0.00000000000E+00 -0.23811826572E+04  0.23811826572E+04  0.00000000000E+00 0.  1.
    2000013    1    1    2    0    0 -0.84859732059E+03 -0.44017901710E+03 -0.10150344050E+04  0.16872077000E+04  0.95000000000E+03 0.  0.
   -2000013    1    1    2    0    0  0.84859732059E+03  0.44017901710E+03 -0.58922025809E+03  0.14709029513E+04  0.95000000000E+03 0.  0.
<mgrwt>
<rscale>  0 0.27202996E+04</rscale>
<asrwt>0</asrwt>
<pdfrwt beam="2">  1        2 0.36633579E+00 0.27202996E+04</pdfrwt>
<pdfrwt beam="1">  1       -2 0.11952738E+00 0.27202996E+04</pdfrwt>
<totfact> 0.19137333E+00</totfact>
</mgrwt>
</event>
<event>
 4    1  0.1295381E-008  0.2509700E+04  0.7816531E-02  0.8399538E-01
          2   -1    0    0  501    0  0.00000000000E+00  0.00000000000E+00  0.30910657313E+04  0.30910657313E+04  0.00000000000E+00 0.  1.
         -2   -1    0    0    0  501 -0.00000000000E+00 -0.00000000000E+00 -0.50941941000E+03  0.50941941000E+03  0.00000000000E+00 0. -1.
    2000013    1    1    2    0    0  0.41319042683E+03  0.56443565402E+03  0.67738785846E+03  0.13603926812E+04  0.95000000000E+03 0.  0.
   -2000013    1    1    2    0    0 -0.41319042683E+03 -0.56443565402E+03  0.19042584628E+04  0.22400924600E+04  0.95000000000E+03 0.  0.
<mgrwt>
<rscale>  0 0.25097003E+04</rscale>
<asrwt>0</asrwt>
<pdfrwt beam="1">  1        2 0.47554856E+00 0.25097003E+04</pdfrwt>
<pdfrwt beam="2">  1       -2 0.78372219E-01 0.25097003E+04</pdfrwt>
<totfact> 0.19676030E+00</totfact>
</mgrwt>
</event>
<event>
 4    1  0.1295381E-008  0.2528108E+04  0.7816531E-02  0.8393040E-01
          2   -1    0    0  501    0  0.00000000000E+00  0.00000000000E+00  0.27795549589E+04  0.27795549589E+04  0.00000000000E+00 0.  1.
         -2   -1    0    0    0  501 -0.00000000000E+00 -0.00000000000E+00 -0.57485187048E+03  0.57485187048E+03  0.00000000000E+00 0. -1.
    2000013    1    1    2    0    0  0.56080201480E+03  0.47837704299E+03  0.16196319488E+04  0.20171889214E+04  0.95000000000E+03 0.  0.
   -2000013    1    1    2    0    0 -0.56080201480E+03 -0.47837704299E+03  0.58507113969E+03  0.13372179080E+04  0.95000000000E+03 0.  0.
<mgrwt>
<rscale>  0 0.25281079E+04</rscale>
<asrwt>0</asrwt>
<pdfrwt beam="1">  1        2 0.42762383E+00 0.25281079E+04</pdfrwt>
<pdfrwt beam="2">  1       -2 0.88438751E-01 0.25281079E+04</pdfrwt>
<totfact> 0.23291410E+00</totfact>
</mgrwt>
</event>
<event>
 4    1  0.1295381E-008  0.2612197E+04  0.7816531E-02  0.8364070E-01
         -2   -1    0    0    0  501 -0.00000000000E+00  0.00000000000E+00  0.71703065102E+03  0.71703065102E+03  0.00000000000E+00 0. -1.
          2   -1    0    0  501    0  0.00000000000E+00 -0.00000000000E+00 -0.23791073667E+04  0.23791073667E+04  0.00000000000E+00 0.  1.
    2000013    1    1    2    0    0  0.14566769543E+03 -0.77174992168E+03 -0.31907109645E+03  0.12732334364E+04  0.95000000000E+03 0.  0.
   -2000013    1    1    2    0    0 -0.14566769543E+03  0.77174992168E+03 -0.13430056192E+04  0.18229045813E+04  0.95000000000E+03 0.  0.
<mgrwt>
<rscale>  0 0.26121967E+04</rscale>
<asrwt>0</asrwt>
<pdfrwt beam="2">  1        2 0.36601653E+00 0.26121967E+04</pdfrwt>
<pdfrwt beam="1">  1       -2 0.11031241E+00 0.26121967E+04</pdfrwt>
<totfact> 0.23559159E+00</totfact>
</mgrwt>
</event>
<event>
 4    1  0.1295381E-008  0.2736669E+04  0.7816531E-02  0.8323204E-01
         -1   -1    0    0    0  501 -0.00000000000E+00  0.00000000000E+00  0.10634286911E+04  0.10634286911E+04  0.00000000000E+00 0. -1.
          1   -1    0    0  501    0  0.00000000000E+00 -0.00000000000E+00 -0.17606625555E+04  0.17606625555E+04  0.00000000000E+00 0.  1.
    2000013    1    1    2    0    0 -0.31552031242E+03 -0.85843182306E+03 -0.72549699268E+03  0.15050927376E+04  0.95000000000E+03 0.  0.
   -2000013    1    1    2    0    0  0.31552031242E+03  0.85843182306E+03  0.28263128280E+02  0.13189985090E+04  0.95000000000E+03 0.  0.
<mgrwt>
<rscale>  0 0.27366688E+04</rscale>
<asrwt>0</asrwt>
<pdfrwt beam="2">  1        1 0.27087116E+00 0.27366688E+04</pdfrwt>
<pdfrwt beam="1">  1       -1 0.16360442E+00 0.27366688E+04</pdfrwt>
<totfact> 0.10353362E+00</totfact>
</mgrwt>
</event>
<event>
 4    1  0.1295381E-008  0.4003558E+04  0.7816531E-02  0.8003829E-01
          1   -1    0    0  501    0  0.00000000000E+00  0.00000000000E+00  0.18421046785E+04  0.18421046785E+04  0.00000000000E+00 0.  1.
         -1   -1    0    0    0  501 -0.00000000000E+00 -0.00000000000E+00 -0.21752934143E+04  0.21752934143E+04  0.00000000000E+00 0. -1.
    2000013    1    1    2    0    0 -0.93888985471E+03  0.14895874194E+04 -0.10130534124E+03  0.20032842063E+04  0.95000000000E+03 0.  0.
   -2000013    1    1    2    0    0  0.93888985471E+03 -0.14895874194E+04 -0.23188339457E+03  0.20141138865E+04  0.95000000000E+03 0.  0.
<mgrwt>
<rscale>  0 0.40035575E+04</rscale>
<asrwt>0</asrwt>
<pdfrwt beam="1">  1        1 0.28340072E+00 0.40035575E+04</pdfrwt>
<pdfrwt beam="2">  1       -1 0.33466053E+00 0.40035575E+04</pdfrwt>
<totfact> 0.58535938E-02</totfact>
</mgrwt>
</event>
<event>
 4    1  0.1295381E-008  0.2046945E+04  0.7816531E-02  0.8584982E-01
         -2   -1    0    0    0  501 -0.00000000000E+00  0.00000000000E+00  0.32862371734E+03  0.32862371734E+03  0.00000000000E+00 0. -1.
          2   -1    0    0  501    0  0.00000000000E+00 -0.00000000000E+00 -0.31875229382E+04  0.31875229382E+04  0.00000000000E+00 0.  1.
    2000013    1    1    2    0    0 -0.16008614359E+03  0.19420119002E+03 -0.93859880991E+03  0.13589736574E+04  0.95000000000E+03 0.  0.
   -2000013    1    1    2    0    0  0.16008614359E+03 -0.19420119002E+03 -0.19203004110E+04  0.21571729982E+04  0.95000000000E+03 0.  0.
<mgrwt>
<rscale>  0 0.20469447E+04</rscale>
<asrwt>0</asrwt>
<pdfrwt beam="2">  1        2 0.49038813E+00 0.20469447E+04</pdfrwt>
<pdfrwt beam="1">  1       -2 0.50557497E-01 0.20469447E+04</pdfrwt>
<totfact> 0.45378811E+00</totfact>
</mgrwt>
</event>
<event>
 4    1  0.1295381E-008  0.2592588E+04  0.7816531E-02  0.8370723E-01
          2   -1    0    0  501    0  0.00000000000E+00  0.00000000000E+00  0.92952864345E+03  0.92952864345E+03  0.00000000000E+00 0.  1.
         -2   -1    0    0    0  501 -0.00000000000E+00 -0.00000000000E+00 -0.18077737615E+04  0.18077737615E+04  0.00000000000E+00 0. -1.
    2000013    1    1    2    0    0  0.81491445683E+03 -0.21639605917E+03 -0.16590273440E+03  0.12809904542E+04  0.95000000000E+03 0.  0.
   -2000013    1    1    2    0    0 -0.81491445683E+03  0.21639605917E+03 -0.71234238361E+03  0.14563119507E+04  0.95000000000E+03 0.  0.
<mgrwt>
<rscale>  0 0.25925875E+04</rscale>
<asrwt>0</asrwt>
<pdfrwt beam="1">  1        2 0.14300441E+00 0.25925875E+04</pdfrwt>
<pdfrwt beam="2">  1       -2 0.27811904E+00 0.25925875E+04</pdfrwt>
<totfact> 0.10720502E+00</totfact>
</mgrwt>
</event>
<event>
 4    1  0.1295381E-008  0.3895986E+04  0.7816531E-02  0.8025865E-01
         -2   -1    0    0    0  501 -0.00000000000E+00  0.00000000000E+00  0.11738167144E+04  0.11738167144E+04  0.00000000000E+00 0. -1.
          2   -1    0    0  501    0  0.00000000000E+00 -0.00000000000E+00 -0.32327670440E+04  0.32327670440E+04  0.00000000000E+00 0.  1.
    2000013    1    1    2    0    0 -0.16215484745E+04  0.48349408258E+03 -0.83689620158E+03  0.21133104919E+04  0.95000000000E+03 0.  0.
   -2000013    1    1    2    0    0  0.16215484745E+04 -0.48349408258E+03 -0.12220541280E+04  0.22932732665E+04  0.95000000000E+03 0.  0.
<mgrwt>
<rscale>  0 0.38959856E+04</rscale>
<asrwt>0</asrwt>
<pdfrwt beam="2">  1        2 0.49734876E+00 0.38959856E+04</pdfrwt>
<pdfrwt beam="1">  1       -2 0.18058719E+00 0.38959856E+04</pdfrwt>
<totfact> 0.17618557E-01</totfact>
</mgrwt>
</event>
<event>
 4    1  0.1295381E-008  0.2386749E+04  0.7816531E-02  0.8444481E-01
         -2   -1    0    0    0  501 -0.00000000000E+00  0.00000000000E+00  0.73863762481E+03  0.73863762481E+03  0.00000000000E+00 0. -1.
          2   -1    0    0  501    0  0.00000000000E+00 -0.00000000000E+00 -0.19280670833E+04  0.19280670833E+04  0.00000000000E+00 0.  1.
    2000013    1    1    2    0    0 -0.89706123455E+02 -0.63252232924E+03 -0.21828187863E+03  0.11654521286E+04  0.95000000000E+03 0.  0.
   -2000013    1    1    2    0    0  0.89706123455E+02  0.63252232924E+03 -0.97114757991E+03  0.15012525795E+04  0.95000000000E+03 0.  0.
<mgrwt>
<rscale>  0 0.23867492E+04</rscale>
<asrwt>0</asrwt>
<pdfrwt beam="2">  1        2 0.29662570E+00 0.23867492E+04</pdfrwt>
<pdfrwt beam="1">  1       -2 0.11363656E+00 0.23867492E+04</pdfrwt>
<totfact> 0.40034591E+00</totfact>
</mgrwt>
</event>
<event>
 4    1  0.1295381E-008  0.2396758E+04  0.7816531E-02  0.8440718E-01
         -2   -1    0    0    0  501 -0.00000000000E+00  0.00000000000E+00  0.30600608111E+04  0.30600608111E+04  0.00000000000E+00 0. -1.
          2   -1    0    0  501    0  0.00000000000E+00 -0.00000000000E+00 -0.46930850837E+03  0.46930850837E+03  0.00000000000E+00 0.  1.
    2000013    1    1    2    0    0 -0.58618119763E+03  0.42602989957E+03  0.14311610188E+04  0.18643582632E+04  0.95000000000E+03 0.  0.
   -2000013    1    1    2    0    0  0.58618119763E+03 -0.42602989957E+03  0.11595912840E+04  0.16650110563E+04  0.95000000000E+03 0.  0.
<mgrwt>
<rscale>  0 0.23967583E+04</rscale>
<asrwt>0</asrwt>
<pdfrwt beam="2">  1        2 0.72201311E-01 0.23967583E+04</pdfrwt>
<pdfrwt beam="1">  1       -2 0.47077857E+00 0.23967583E+04</pdfrwt>
<totfact> 0.15080767E-01</totfact>
</mgrwt>
</event>
<event>
 4    1  0.1295381E-008  0.2758947E+04  0.7816531E-02  0.8316128E-01
          2   -1    0    0  501    0  0.00000000000E+00  0.00000000000E+00  0.25751286585E+04  0.25751286585E+04  0.00000000000E+00 0.  1.
         -2   -1    0    0    0  501 -0.00000000000E+00 -0.00000000000E+00 -0.73897194062E+03  0.73897194062E+03  0.00000000000E+00 0. -1.
    2000013    1    1    2    0    0  0.64002199308E+03  0.47163623580E+03  0.16471490561E+04  0.20609873613E+04  0.95000000000E+03 0.  0.
   -2000013    1    1    2    0    0 -0.64002199308E+03 -0.47163623580E+03  0.18900766178E+03  0.12531132378E+04  0.95000000000E+03 0.  0.
<mgrwt>
<rscale>  0 0.27589475E+04</rscale>
<asrwt>0</asrwt>
<pdfrwt beam="1">  1        2 0.39617364E+00 0.27589475E+04</pdfrwt>
<pdfrwt beam="2">  1       -2 0.11368799E+00 0.27589475E+04</pdfrwt>
<totfact> 0.16657964E+00</totfact>
</mgrwt>
</event>
<event>
 4    1  0.1295381E-008  0.2179867E+04  0.7816531E-02  0.8526855E-01
          2   -1    0    0  501    0  0.00000000000E+00  0.00000000000E+00  0.33749361727E+04  0.33749361727E+04  0.00000000000E+00 0. -1.
         -2   -1    0    0    0  501 -0.00000000000E+00 -0.00000000000E+00 -0.35199322858E+03  0.35199322858E+03  0.00000000000E+00 0.  1.
    2000013    1    1    2    0    0 -0.33735807472E+03  0.32921228751E+03  0.19415004966E+04  0.22122647625E+04  0.95000000000E+03 0.  0.
   -2000013    1    1    2    0    0  0.33735807472E+03 -0.32921228751E+03  0.10814424475E+04  0.15146646388E+04  0.95000000000E+03 0.  0.
<mgrwt>
<rscale>  0 0.21798667E+04</rscale>
<asrwt>0</asrwt>
<pdfrwt beam="1">  1        2 0.51922093E+00 0.21798667E+04</pdfrwt>
<pdfrwt beam="2">  1       -2 0.54152807E-01 0.21798667E+04</pdfrwt>
<totfact> 0.29239724E+00</totfact>
</mgrwt>
</event>
<event>
 4    1  0.1295381E-008  0.3901670E+04  0.7816531E-02  0.8024682E-01
          2   -1    0    0  501    0  0.00000000000E+00  0.00000000000E+00  0.24331572621E+04  0.24331572621E+04  0.00000000000E+00 0.  1.
         -2   -1    0    0    0  501 -0.00000000000E+00 -0.00000000000E+00 -0.15641228258E+04  0.15641228258E+04  0.00000000000E+00 0. -1.
    2000013    1    1    2    0    0  0.14529579528E+04 -0.85683104736E+01 -0.47729023517E+03  0.18004072309E+04  0.95000000000E+03 0.  0.
   -2000013    1    1    2    0    0 -0.14529579528E+04  0.85683104736E+01  0.13463246715E+04  0.21968728569E+04  0.95000000000E+03 0.  0.
<mgrwt>
<rscale>  0 0.39016698E+04</rscale>
<asrwt>0</asrwt>
<pdfrwt beam="1">  1        2 0.37433189E+00 0.39016698E+04</pdfrwt>
<pdfrwt beam="2">  1       -2 0.24063428E+00 0.39016698E+04</pdfrwt>
<totfact> 0.22210345E-01</totfact>
</mgrwt>
</event>
<event>
 4    1  0.1295381E-008  0.1988259E+04  0.7816531E-02  0.8612130E-01
         -2   -1    0    0    0  501 -0.00000000000E+00  0.00000000000E+00  0.43219617490E+03  0.43219617490E+03  0.00000000000E+00 0. -1.
          2   -1    0    0  501    0  0.00000000000E+00 -0.00000000000E+00 -0.22866773831E+04  0.22866773831E+04  0.00000000000E+00 0.  1.
    2000013    1    1    2    0    0  0.17176374651E+03  0.10681723600E+03 -0.12169382778E+04  0.15570329086E+04  0.95000000000E+03 0.  0.
   -2000013    1    1    2    0    0 -0.17176374651E+03 -0.10681723600E+03 -0.63754293043E+03  0.11618406494E+04  0.95000000000E+03 0.  0.
<mgrwt>
<rscale>  0 0.19882588E+04</rscale>
<asrwt>0</asrwt>
<pdfrwt beam="2">  1        2 0.35179653E+00 0.19882588E+04</pdfrwt>
<pdfrwt beam="1">  1       -2 0.66491718E-01 0.19882588E+04</pdfrwt>
<totfact> 0.89196123E+00</totfact>
</mgrwt>
</event>
<event>
 4    1  0.1295381E-008  0.2134659E+04  0.7816531E-02  0.8546128E-01
          2   -1    0    0  501    0  0.00000000000E+00  0.00000000000E+00  0.11024176690E+04  0.11024176690E+04  0.00000000000E+00 0.  1.
         -2   -1    0    0    0  501 -0.00000000000E+00 -0.00000000000E+00 -0.10333577920E+04  0.10333577920E+04  0.00000000000E+00 0. -1.
    2000013    1    1    2    0    0 -0.44629483026E+03  0.89865553599E+02  0.20619182963E+03  0.10734383838E+04  0.95000000000E+03 0.  0.
   -2000013    1    1    2    0    0  0.44629483026E+03 -0.89865553599E+02 -0.13713195261E+03  0.10623370772E+04  0.95000000000E+03 0.  0.
<mgrwt>
<rscale>  0 0.21346587E+04</rscale>
<asrwt>0</asrwt>
<pdfrwt beam="1">  1        2 0.16960272E+00 0.21346587E+04</pdfrwt>
<pdfrwt beam="2">  1       -2 0.15897812E+00 0.21346587E+04</pdfrwt>
<totfact> 0.51139332E+00</totfact>
</mgrwt>
</event>
<event>
 4    1  0.1295381E-008  0.3107967E+04  0.7816531E-02  0.8213555E-01
         -2   -1    0    0    0  501 -0.00000000000E+00  0.00000000000E+00  0.18010366189E+04  0.18010366189E+04  0.00000000000E+00 0. -1.
          2   -1    0    0  501    0  0.00000000000E+00 -0.00000000000E+00 -0.13408196613E+04  0.13408196613E+04  0.00000000000E+00 0.  1.
    2000013    1    1    2    0    0  0.27264278240E+03  0.11862860965E+04  0.52820838625E+02  0.15449591679E+04  0.95000000000E+03 0.  0.
   -2000013    1    1    2    0    0 -0.27264278240E+03 -0.11862860965E+04  0.40739611902E+03  0.15968971123E+04  0.95000000000E+03 0.  0.
<mgrwt>
<rscale>  0 0.31079674E+04</rscale>
<asrwt>0</asrwt>
<pdfrwt beam="2">  1        2 0.20627995E+00 0.31079674E+04</pdfrwt>
<pdfrwt beam="1">  1       -2 0.27708256E+00 0.31079674E+04</pdfrwt>
<totfact> 0.58264061E-01</totfact>
</mgrwt>
</event>
<event>
 4    1  0.1295381E-008  0.2189433E+04  0.7816531E-02  0.8522839E-01
          2   -1    0    0  501    0  0.00000000000E+00  0.00000000000E+00  0.17722216119E+04  0.17722216119E+04  0.00000000000E+00 0.  1.
         -2   -1    0    0    0  501 -0.00000000000E+00 -0.00000000000E+00 -0.67621556531E+03  0.67621556531E+03  0.00000000000E+00 0. -1.
    2000013    1    1    2    0    0 -0.49951895512E+03  0.13305425182E+03  0.73739264396E+03  0.13089960015E+04  0.95000000000E+03 0.  0.
   -2000013    1    1    2    0    0  0.49951895512E+03 -0.13305425182E+03  0.35861340264E+03  0.11394411758E+04  0.95000000000E+03 0.  0.
<mgrwt>
<rscale>  0 0.21894327E+04</rscale>
<asrwt>0</asrwt>
<pdfrwt beam="1">  1        2 0.27264948E+00 0.21894327E+04</pdfrwt>
<pdfrwt beam="2">  1       -2 0.10403316E+00 0.21894327E+04</pdfrwt>
<totfact> 0.61476975E+00</totfact>
</mgrwt>
</event>
<event>
 4    1  0.1295381E-008  0.2306784E+04  0.7816531E-02  0.8475251E-01
         -2   -1    0    0    0  501 -0.00000000000E+00  0.00000000000E+00  0.20108536689E+04  0.20108536689E+04  0.00000000000E+00 0. -1.
          2   -1    0    0  501    0  0.00000000000E+00 -0.00000000000E+00 -0.66156637514E+03  0.66156637514E+03  0.00000000000E+00 0.  1.
    2000013    1    1    2    0    0 -0.61589517840E+03 -0.64220431664E+02  0.43063595088E+03  0.12130121421E+04  0.95000000000E+03 0.  0.
   -2000013    1    1    2    0    0  0.61589517840E+03  0.64220431664E+02  0.91865134293E+03  0.14594079020E+04  0.95000000000E+03 0.  0.
<mgrwt>
<rscale>  0 0.23067841E+04</rscale>
<asrwt>0</asrwt>
<pdfrwt beam="2">  1        2 0.10177944E+00 0.23067841E+04</pdfrwt>
<pdfrwt beam="1">  1       -2 0.30936210E+00 0.23067841E+04</pdfrwt>
<totfact> 0.11104402E+00</totfact>
</mgrwt>
</event>
<event>
 4    1  0.1295381E-008  0.2823628E+04  0.7816531E-02  0.8295970E-01
          2   -1    0    0  501    0  0.00000000000E+00  0.00000000000E+00  0.40029586646E+04  0.40029586646E+04  0.00000000000E+00 0.  1.
         -2   -1    0    0    0  501 -0.00000000000E+00 -0.00000000000E+00 -0.49793624629E+03  0.49793624629E+03  0.00000000000E+00 0. -1.
    2000013    1    1    2    0    0  0.82095549241E+03 -0.46953910600E+03  0.24587200505E+04  0.28003998249E+04  0.95000000000E+03 0.  0.
   -2000013    1    1    2    0    0 -0.82095549241E+03  0.46953910600E+03  0.10463023678E+04  0.17004950860E+04  0.95000000000E+03 0.  0.
<mgrwt>
<rscale>  0 0.28236276E+04</rscale>
<asrwt>0</asrwt>
<pdfrwt beam="1">  1        2 0.61583977E+00 0.28236276E+04</pdfrwt>
<pdfrwt beam="2">  1       -2 0.76605579E-01 0.28236276E+04</pdfrwt>
<totfact> 0.45036749E-01</totfact>
</mgrwt>
</event>
<event>
 4    1  0.1295381E-008  0.2295280E+04  0.7816531E-02  0.8479785E-01
          2   -1    0    0  501    0  0.00000000000E+00  0.00000000000E+00  0.17125266257E+04  0.17125266257E+04  0.00000000000E+00 0.  1.
         -2   -1    0    0    0  501 -0.00000000000E+00 -0.00000000000E+00 -0.76908436509E+03  0.76908436509E+03  0.00000000000E+00 0. -1.
    2000013    1    1    2    0    0 -0.30970516575E+03 -0.37395639042E+03  0.14525377763E+02  0.10669918736E+04  0.95000000000E+03 0.  0.
   -2000013    1    1    2    0    0  0.30970516575E+03  0.37395639042E+03  0.92891688288E+03  0.14146191173E+04  0.95000000000E+03 0.  0.
<mgrwt>
<rscale>  0 0.22952799E+04</rscale>
<asrwt>0</asrwt>
<pdfrwt beam="1">  1        2 0.26346563E+00 0.22952799E+04</pdfrwt>
<pdfrwt beam="2">  1       -2 0.11832067E+00 0.22952799E+04</pdfrwt>
<totfact> 0.48138155E+00</totfact>
</mgrwt>
</event>
<event>
 4    1  0.1295381E-008  0.2575066E+04  0.7816531E-02  0.8376721E-01
          2   -1    0    0  501    0  0.00000000000E+00  0.00000000000E+00  0.12003861804E+04  0.12003861804E+04  0.00000000000E+00 0.  1.
         -2   -1    0    0    0  501 -0.00000000000E+00 -0.00000000000E+00 -0.13810060716E+04  0.13810060716E+04  0.00000000000E+00 0. -1.
    2000013    1    1    2    0    0 -0.51318927584E+03 -0.42351520563E+03  0.47009148558E+03  0.12514848649E+04  0.95000000000E+03 0.  0.
   -2000013    1    1    2    0    0  0.51318927584E+03  0.42351520563E+03 -0.65071137681E+03  0.13299073871E+04  0.95000000000E+03 0.  0.
<mgrwt>
<rscale>  0 0.25750655E+04</rscale>
<asrwt>0</asrwt>
<pdfrwt beam="1">  1        2 0.18467480E+00 0.25750655E+04</pdfrwt>
<pdfrwt beam="2">  1       -2 0.21246247E+00 0.25750655E+04</pdfrwt>
<totfact> 0.18525627E+00</totfact>
</mgrwt>
</event>
<event>
 4    1  0.1295381E-008  0.2510271E+04  0.7816531E-02  0.8399336E-01
          1   -1    0    0  501    0  0.00000000000E+00  0.00000000000E+00  0.34090649958E+04  0.34090649958E+04  0.00000000000E+00 0.  1.
         -1   -1    0    0    0  501 -0.00000000000E+00 -0.00000000000E+00 -0.46211043725E+03  0.46211043725E+03  0.00000000000E+00 0. -1.
    2000013    1    1    2    0    0  0.29093602457E+03 -0.59702626268E+03  0.22159160958E+04  0.25007735348E+04  0.95000000000E+03 0.  0.
   -2000013    1    1    2    0    0 -0.29093602457E+03  0.59702626268E+03  0.73103846273E+03  0.13704018982E+04  0.95000000000E+03 0.  0.
<mgrwt>
<rscale>  0 0.25102705E+04</rscale>
<asrwt>0</asrwt>
<pdfrwt beam="1">  1        1 0.52447152E+00 0.25102705E+04</pdfrwt>
<pdfrwt beam="2">  1       -1 0.71093916E-01 0.25102705E+04</pdfrwt>
<totfact> 0.52251301E-01</totfact>
</mgrwt>
</event>
<event>
 4    1  0.1295381E-008  0.2874017E+04  0.7816531E-02  0.8280651E-01
         -2   -1    0    0    0  501 -0.00000000000E+00  0.00000000000E+00  0.96299708837E+03  0.96299708837E+03  0.00000000000E+00 0. -1.
          2   -1    0    0  501    0  0.00000000000E+00 -0.00000000000E+00 -0.21443395762E+04  0.21443395762E+04  0.00000000000E+00 0.  1.
    2000013    1    1    2    0    0 -0.54787713846E+03 -0.48492891249E+03 -0.14469018941E+04  0.18791887878E+04  0.95000000000E+03 0.  0.
   -2000013    1    1    2    0    0  0.54787713846E+03  0.48492891249E+03  0.26555940624E+03  0.12281478768E+04  0.95000000000E+03 0.  0.
<mgrwt>
<rscale>  0 0.28740165E+04</rscale>
<asrwt>0</asrwt>
<pdfrwt beam="2">  1        2 0.32989839E+00 0.28740165E+04</pdfrwt>
<pdfrwt beam="1">  1       -2 0.14815340E+00 0.28740165E+04</pdfrwt>
<totfact> 0.14860302E+00</totfact>
</mgrwt>
</event>
<event>
 4    1  0.1295381E-008  0.2438610E+04  0.7816531E-02  0.8425189E-01
          2   -1    0    0  501    0  0.00000000000E+00  0.00000000000E+00  0.12344552105E+04  0.12344552105E+04  0.00000000000E+00 0.  1.
         -2   -1    0    0    0  501 -0.00000000000E+00 -0.00000000000E+00 -0.12043403374E+04  0.12043403374E+04  0.00000000000E+00 0. -1.
    2000013    1    1    2    0    0  0.68912594254E+03 -0.31785674339E+03  0.10604091257E+03  0.12205212612E+04  0.95000000000E+03 0.  0.
   -2000013    1    1    2    0    0 -0.68912594254E+03  0.31785674339E+03 -0.75926039454E+02  0.12182742866E+04  0.95000000000E+03 0.  0.
<mgrwt>
<rscale>  0 0.24386096E+04</rscale>
<asrwt>0</asrwt>
<pdfrwt beam="1">  1        2 0.18991619E+00 0.24386096E+04</pdfrwt>
<pdfrwt beam="2">  1       -2 0.18528313E+00 0.24386096E+04</pdfrwt>
<totfact> 0.27014506E+00</totfact>
</mgrwt>
</event>
<event>
 4    1  0.1295381E-008  0.2452717E+04  0.7816531E-02  0.8420027E-01
          2   -1    0    0  501    0  0.00000000000E+00  0.00000000000E+00  0.12130185201E+04  0.12130185201E+04  0.00000000000E+00 0. -1.
         -2   -1    0    0    0  501 -0.00000000000E+00 -0.00000000000E+00 -0.12398447414E+04  0.12398447414E+04  0.00000000000E+00 0.  1.
    2000013    1    1    2    0    0  0.71762369283E+03  0.22786504688E+03  0.17246997665E+03  0.12243986838E+04  0.95000000000E+03 0.  0.
   -2000013    1    1    2    0    0 -0.71762369283E+03 -0.22786504688E+03 -0.19929619798E+03  0.12284645777E+04  0.95000000000E+03 0.  0.
<mgrwt>
<rscale>  0 0.24527166E+04</rscale>
<asrwt>0</asrwt>
<pdfrwt beam="1">  1        2 0.18661824E+00 0.24527166E+04</pdfrwt>
<pdfrwt beam="2">  1       -2 0.19074534E+00 0.24527166E+04</pdfrwt>
<totfact> 0.25523667E+00</totfact>
</mgrwt>
</event>
<event>
 4    1  0.1295381E-008  0.2183604E+04  0.7816531E-02  0.8525283E-01
         -2   -1    0    0    0  501 -0.00000000000E+00  0.00000000000E+00  0.55088073540E+03  0.55088073540E+03  0.00000000000E+00 0. -1.
          2   -1    0    0  501    0  0.00000000000E+00 -0.00000000000E+00 -0.21638657016E+04  0.21638657016E+04  0.00000000000E+00 0.  1.
    2000013    1    1    2    0    0 -0.23311436475E+03  0.44878389941E+03 -0.57798412836E+03  0.12216034332E+04  0.95000000000E+03 0.  0.
   -2000013    1    1    2    0    0  0.23311436475E+03 -0.44878389941E+03 -0.10350008379E+04  0.14931430038E+04  0.95000000000E+03 0.  0.
<mgrwt>
<rscale>  0 0.21836043E+04</rscale>
<asrwt>0</asrwt>
<pdfrwt beam="2">  1        2 0.33290243E+00 0.21836043E+04</pdfrwt>
<pdfrwt beam="1">  1       -2 0.84750880E-01 0.21836043E+04</pdfrwt>
<totfact> 0.60068455E+00</totfact>
</mgrwt>
</event>
<event>
 4    1  0.1295381E-008  0.2257749E+04  0.7816531E-02  0.8494769E-01
         -2   -1    0    0    0  501 -0.00000000000E+00  0.00000000000E+00  0.13072315171E+04  0.13072315171E+04  0.00000000000E+00 0. -1.
          2   -1    0    0  501    0  0.00000000000E+00 -0.00000000000E+00 -0.97485252126E+03  0.97485252126E+03  0.00000000000E+00 0.  1.
    2000013    1    1    2    0    0  0.51345152444E+03 -0.21474968701E+03 -0.85711478054E+02  0.11043533644E+04  0.95000000000E+03 0.  0.
   -2000013    1    1    2    0    0 -0.51345152444E+03  0.21474968701E+03  0.41809047391E+03  0.11777306740E+04  0.95000000000E+03 0.  0.
<mgrwt>
<rscale>  0 0.22577493E+04</rscale>
<asrwt>0</asrwt>
<pdfrwt beam="2">  1        2 0.14997731E+00 0.22577493E+04</pdfrwt>
<pdfrwt beam="1">  1       -2 0.20111254E+00 0.22577493E+04</pdfrwt>
<totfact> 0.31105494E+00</totfact>
</mgrwt>
</event>
<event>
 4    1  0.1295381E-008  0.2923725E+04  0.7816531E-02  0.8265853E-01
         -2   -1    0    0    0  501 -0.00000000000E+00  0.00000000000E+00  0.52184156867E+03  0.52184156867E+03  0.00000000000E+00 0.  1.
          2   -1    0    0  501    0  0.00000000000E+00 -0.00000000000E+00 -0.40951926984E+04  0.40951926984E+04  0.00000000000E+00 0. -1.
    2000013    1    1    2    0    0  0.10008360527E+04 -0.34412913875E+03 -0.23208994788E+04  0.27219794376E+04  0.95000000000E+03 0.  0.
   -2000013    1    1    2    0    0 -0.10008360527E+04  0.34412913875E+03 -0.12524516509E+04  0.18950548294E+04  0.95000000000E+03 0.  0.
<mgrwt>
<rscale>  0 0.29237249E+04</rscale>
<asrwt>0</asrwt>
<pdfrwt beam="2">  1        2 0.63002962E+00 0.29237249E+04</pdfrwt>
<pdfrwt beam="1">  1       -2 0.80283321E-01 0.29237249E+04</pdfrwt>
<totfact> 0.33738895E-01</totfact>
</mgrwt>
</event>
<event>
 4    1  0.1295381E-008  0.2922003E+04  0.7816531E-02  0.8266361E-01
         -2   -1    0    0    0  501 -0.00000000000E+00  0.00000000000E+00  0.12574059335E+04  0.12574059335E+04  0.00000000000E+00 0. -1.
          2   -1    0    0  501    0  0.00000000000E+00 -0.00000000000E+00 -0.16975626149E+04  0.16975626149E+04  0.00000000000E+00 0.  1.
    2000013    1    1    2    0    0  0.86274675400E+03  0.60043368079E+03  0.14055778091E+03  0.14237658011E+04  0.95000000000E+03 0.  0.
   -2000013    1    1    2    0    0 -0.86274675400E+03 -0.60043368079E+03 -0.58071446227E+03  0.15312027473E+04  0.95000000000E+03 0.  0.
<mgrwt>
<rscale>  0 0.29220029E+04</rscale>
<asrwt>0</asrwt>
<pdfrwt beam="2">  1        2 0.26116348E+00 0.29220029E+04</pdfrwt>
<pdfrwt beam="1">  1       -2 0.19344707E+00 0.29220029E+04</pdfrwt>
<totfact> 0.12458308E+00</totfact>
</mgrwt>
</event>
<event>
 4    1  0.1295381E-008  0.2495334E+04  0.7816531E-02  0.8404650E-01
          1   -1    0    0  501    0  0.00000000000E+00  0.00000000000E+00  0.10317910643E+04  0.10317910643E+04  0.00000000000E+00 0.  1.
         -1   -1    0    0    0  501 -0.00000000000E+00 -0.00000000000E+00 -0.15087096494E+04  0.15087096494E+04  0.00000000000E+00 0. -1.
    2000013    1    1    2    0    0  0.53771675694E+03  0.54420693223E+03  0.28726876308E+02  0.12200925085E+04  0.95000000000E+03 0.  0.
   -2000013    1    1    2    0    0 -0.53771675694E+03 -0.54420693223E+03 -0.50564546136E+03  0.13204082052E+04  0.95000000000E+03 0.  0.
<mgrwt>
<rscale>  0 0.24953342E+04</rscale>
<asrwt>0</asrwt>
<pdfrwt beam="1">  1        1 0.15873709E+00 0.24953342E+04</pdfrwt>
<pdfrwt beam="2">  1       -1 0.23210918E+00 0.24953342E+04</pdfrwt>
<totfact> 0.11610661E+00</totfact>
</mgrwt>
</event>
<event>
 4    1  0.1295381E-008  0.2157719E+04  0.7816531E-02  0.8536235E-01
         -2   -1    0    0    0  501 -0.00000000000E+00  0.00000000000E+00  0.98086039354E+03  0.98086039354E+03  0.00000000000E+00 0. -1.
          2   -1    0    0  501    0  0.00000000000E+00 -0.00000000000E+00 -0.11866496665E+04  0.11866496665E+04  0.00000000000E+00 0.  1.
    2000013    1    1    2    0    0  0.12244603428E+03 -0.48835260963E+03 -0.13291465909E+02  0.10752478625E+04  0.95000000000E+03 0.  0.
   -2000013    1    1    2    0    0 -0.12244603428E+03  0.48835260963E+03 -0.19249780710E+03  0.10922621976E+04  0.95000000000E+03 0.  0.
<mgrwt>
<rscale>  0 0.21577189E+04</rscale>
<asrwt>0</asrwt>
<pdfrwt beam="2">  1        2 0.18256149E+00 0.21577189E+04</pdfrwt>
<pdfrwt beam="1">  1       -2 0.15090160E+00 0.21577189E+04</pdfrwt>
<totfact> 0.52186918E+00</totfact>
</mgrwt>
</event>
<event>
 4    1  0.1295381E-008  0.2537898E+04  0.7816531E-02  0.8389607E-01
          2   -1    0    0  501    0  0.00000000000E+00  0.00000000000E+00  0.12375612137E+04  0.12375612137E+04  0.00000000000E+00 0.  1.
         -2   -1    0    0    0  501 -0.00000000000E+00 -0.00000000000E+00 -0.13011330239E+04  0.13011330239E+04  0.00000000000E+00 0. -1.
    2000013    1    1    2    0    0  0.61068754636E+02 -0.67869897027E+03  0.46169437035E+03  0.12569898077E+04  0.95000000000E+03 0.  0.
   -2000013    1    1    2    0    0 -0.61068754636E+02  0.67869897027E+03 -0.52526618055E+03  0.12817044298E+04  0.95000000000E+03 0.  0.
<mgrwt>
<rscale>  0 0.25378982E+04</rscale>
<asrwt>0</asrwt>
<pdfrwt beam="1">  1        2 0.19039403E+00 0.25378982E+04</pdfrwt>
<pdfrwt beam="2">  1       -2 0.20017431E+00 0.25378982E+04</pdfrwt>
<totfact> 0.21217156E+00</totfact>
</mgrwt>
</event>
<event>
 4    1  0.1295381E-008  0.3262589E+04  0.7816531E-02  0.8172480E-01
         -2   -1    0    0    0  501 -0.00000000000E+00  0.00000000000E+00  0.24490590031E+04  0.24490590031E+04  0.00000000000E+00 0. -1.
          2   -1    0    0  501    0  0.00000000000E+00 -0.00000000000E+00 -0.10865897681E+04  0.10865897681E+04  0.00000000000E+00 0.  1.
    2000013    1    1    2    0    0  0.10913406845E+04  0.71007594018E+03  0.95408055388E+03  0.18729661059E+04  0.95000000000E+03 0.  0.
   -2000013    1    1    2    0    0 -0.10913406845E+04 -0.71007594018E+03  0.40838868118E+03  0.16626826653E+04  0.95000000000E+03 0.  0.
<mgrwt>
<rscale>  0 0.32625894E+04</rscale>
<asrwt>0</asrwt>
<pdfrwt beam="2">  1        2 0.16716766E+00 0.32625894E+04</pdfrwt>
<pdfrwt beam="1">  1       -2 0.37677831E+00 0.32625894E+04</pdfrwt>
<totfact> 0.19526204E-01</totfact>
</mgrwt>
</event>
<event>
 4    1  0.1295381E-008  0.2280914E+04  0.7816531E-02  0.8485484E-01
         -2   -1    0    0    0  501 -0.00000000000E+00  0.00000000000E+00  0.50136728170E+03  0.50136728170E+03  0.00000000000E+00 0. -1.
          2   -1    0    0  501    0  0.00000000000E+00 -0.00000000000E+00 -0.25941913280E+04  0.25941913280E+04  0.00000000000E+00 0.  1.
    2000013    1    1    2    0    0 -0.58074068916E+03 -0.20255324632E+03 -0.12376463954E+04  0.16770677284E+04  0.95000000000E+03 0.  0.
   -2000013    1    1    2    0    0  0.58074068916E+03  0.20255324632E+03 -0.85517765086E+03  0.14184908812E+04  0.95000000000E+03 0.  0.
<mgrwt>
<rscale>  0 0.22809144E+04</rscale>
<asrwt>0</asrwt>
<pdfrwt beam="2">  1        2 0.39910636E+00 0.22809144E+04</pdfrwt>
<pdfrwt beam="1">  1       -2 0.77133428E-01 0.22809144E+04</pdfrwt>
<totfact> 0.41784815E+00</totfact>
</mgrwt>
</event>
<event>
 4    1  0.1295381E-008  0.2288920E+04  0.7816531E-02  0.8482303E-01
         -2   -1    0    0    0  501 -0.00000000000E+00  0.00000000000E+00  0.11998514936E+04  0.11998514936E+04  0.00000000000E+00 0. -1.
          2   -1    0    0  501    0  0.00000000000E+00 -0.00000000000E+00 -0.10916252063E+04  0.10916252063E+04  0.00000000000E+00 0.  1.
    2000013    1    1    2    0    0  0.60443610735E+03 -0.19062216632E+03  0.12908550096E+03  0.11492792893E+04  0.95000000000E+03 0.  0.
   -2000013    1    1    2    0    0 -0.60443610735E+03  0.19062216632E+03 -0.20859213710E+02  0.11421974107E+04  0.95000000000E+03 0.  0.
<mgrwt>
<rscale>  0 0.22889195E+04</rscale>
<asrwt>0</asrwt>
<pdfrwt beam="2">  1        2 0.16794234E+00 0.22889195E+04</pdfrwt>
<pdfrwt beam="1">  1       -2 0.18459254E+00 0.22889195E+04</pdfrwt>
<totfact> 0.33733297E+00</totfact>
</mgrwt>
</event>
<event>
 4    1  0.1295381E-008  0.2253925E+04  0.7816531E-02  0.8496313E-01
         -2   -1    0    0    0  501 -0.00000000000E+00  0.00000000000E+00  0.12486101808E+04  0.12486101808E+04  0.00000000000E+00 0. -1.
          2   -1    0    0  501    0  0.00000000000E+00 -0.00000000000E+00 -0.10171662104E+04  0.10171662104E+04  0.00000000000E+00 0.  1.
    2000013    1    1    2    0    0  0.38905150894E+03 -0.41241678772E+03  0.33154932553E+03  0.11549344738E+04  0.95000000000E+03 0.  0.
   -2000013    1    1    2    0    0 -0.38905150894E+03  0.41241678772E+03 -0.10010535512E+03  0.11108419174E+04  0.95000000000E+03 0.  0.
<mgrwt>
<rscale>  0 0.22539247E+04</rscale>
<asrwt>0</asrwt>
<pdfrwt beam="2">  1        2 0.15648711E+00 0.22539247E+04</pdfrwt>
<pdfrwt beam="1">  1       -2 0.19209388E+00 0.22539247E+04</pdfrwt>
<totfact> 0.33532372E+00</totfact>
</mgrwt>
</event>
<event>
 4    1  0.1295381E-008  0.3276626E+04  0.7816531E-02  0.8168868E-01
          1   -1    0    0  501    0  0.00000000000E+00  0.00000000000E+00  0.14066854921E+04  0.14066854921E+04  0.00000000000E+00 0.  1.
         -1   -1    0    0    0  501 -0.00000000000E+00 -0.00000000000E+00 -0.19080806685E+04  0.19080806685E+04  0.00000000000E+00 0. -1.
    2000013    1    1    2    0    0  0.17011668937E+03  0.13236880354E+04 -0.27285437675E+03  0.16607345405E+04  0.95000000000E+03 0.  0.
   -2000013    1    1    2    0    0 -0.17011668937E+03 -0.13236880354E+04 -0.22854079963E+03  0.16540316201E+04  0.95000000000E+03 0.  0.
<mgrwt>
<rscale>  0 0.32766259E+04</rscale>
<asrwt>0</asrwt>
<pdfrwt beam="1">  1        1 0.21641315E+00 0.32766259E+04</pdfrwt>
<pdfrwt beam="2">  1       -1 0.29355087E+00 0.32766259E+04</pdfrwt>
<totfact> 0.22969321E-01</totfact>
</mgrwt>
</event>
<event>
 4    1  0.1295381E-008  0.1953668E+04  0.7816531E-02  0.8628594E-01
         -4   -1    0    0    0  501 -0.00000000000E+00  0.00000000000E+00  0.68418133315E+03  0.68418133315E+03  0.00000000000E+00 0. -1.
          4   -1    0    0  501    0  0.00000000000E+00 -0.00000000000E+00 -0.13946666291E+04  0.13946666291E+04  0.00000000000E+00 0.  1.
    2000013    1    1    2    0    0 -0.19429793264E+03  0.31716031107E+02 -0.47631952020E+03  0.10808042739E+04  0.95000000000E+03 0.  0.
   -2000013    1    1    2    0    0  0.19429793264E+03 -0.31716031107E+02 -0.23416577577E+03  0.99804368832E+03  0.95000000000E+03 0.  0.
<mgrwt>
<rscale>  0 0.19536682E+04</rscale>
<asrwt>0</asrwt>
<pdfrwt beam="2">  1        4 0.21456409E+00 0.19536682E+04</pdfrwt>
<pdfrwt beam="1">  1       -4 0.10525867E+00 0.19536682E+04</pdfrwt>
<totfact> 0.14393664E-01</totfact>
</mgrwt>
</event>
<event>
 4    1  0.1295381E-008  0.3013521E+04  0.7816531E-02  0.8239880E-01
          2   -1    0    0  501    0  0.00000000000E+00  0.00000000000E+00  0.17422464297E+04  0.17422464297E+04  0.00000000000E+00 0.  1.
         -2   -1    0    0    0  501 -0.00000000000E+00 -0.00000000000E+00 -0.13031031349E+04  0.13031031349E+04  0.00000000000E+00 0. -1.
    2000013    1    1    2    0    0  0.54853834034E+03  0.99218407014E+03 -0.70695899491E+02  0.14808178315E+04  0.95000000000E+03 0.  0.
   -2000013    1    1    2    0    0 -0.54853834034E+03 -0.99218407014E+03  0.50983919423E+03  0.15645317331E+04  0.95000000000E+03 0.  0.
<mgrwt>
<rscale>  0 0.30135207E+04</rscale>
<asrwt>0</asrwt>
<pdfrwt beam="1">  1        2 0.26803791E+00 0.30135207E+04</pdfrwt>
<pdfrwt beam="2">  1       -2 0.20047741E+00 0.30135207E+04</pdfrwt>
<totfact> 0.10490514E+00</totfact>
</mgrwt>
</event>
<event>
 4    1  0.1295381E-008  0.2506331E+04  0.7816531E-02  0.8400734E-01
          2   -1    0    0  501    0  0.00000000000E+00  0.00000000000E+00  0.13952498919E+04  0.13952498919E+04  0.00000000000E+00 0.  1.
         -2   -1    0    0    0  501 -0.00000000000E+00 -0.00000000000E+00 -0.11255498559E+04  0.11255498559E+04  0.00000000000E+00 0. -1.
    2000013    1    1    2    0    0 -0.79364201176E+03 -0.18687499911E+03  0.19115001344E+03  0.12664234030E+04  0.95000000000E+03 0.  0.
   -2000013    1    1    2    0    0  0.79364201176E+03  0.18687499911E+03  0.78550022515E+02  0.12543763447E+04  0.95000000000E+03 0.  0.
<mgrwt>
<rscale>  0 0.25063306E+04</rscale>
<asrwt>0</asrwt>
<pdfrwt beam="1">  1        2 0.21465383E+00 0.25063306E+04</pdfrwt>
<pdfrwt beam="2">  1       -2 0.17316152E+00 0.25063306E+04</pdfrwt>
<totfact> 0.26278860E+00</totfact>
</mgrwt>
</event>
<event>
 4    1  0.1295381E-008  0.2234460E+04  0.7816531E-02  0.8504220E-01
         -2   -1    0    0    0  501 -0.00000000000E+00  0.00000000000E+00  0.68311583442E+03  0.68311583442E+03  0.00000000000E+00 0. -1.
          2   -1    0    0  501    0  0.00000000000E+00 -0.00000000000E+00 -0.18272201385E+04  0.18272201385E+04  0.00000000000E+00 0.  1.
    2000013    1    1    2    0    0  0.15158188693E+03 -0.53622472441E+03 -0.78279974240E+03  0.13512177694E+04  0.95000000000E+03 0.  0.
   -2000013    1    1    2    0    0 -0.15158188693E+03  0.53622472441E+03 -0.36130456165E+03  0.11591182035E+04  0.95000000000E+03 0.  0.
<mgrwt>
<rscale>  0 0.22344601E+04</rscale>
<asrwt>0</asrwt>
<pdfrwt beam="2">  1        2 0.28111079E+00 0.22344601E+04</pdfrwt>
<pdfrwt beam="1">  1       -2 0.10509475E+00 0.22344601E+04</pdfrwt>
<totfact> 0.55716044E+00</totfact>
</mgrwt>
</event>
<event>
 4    1  0.1295381E-008  0.4001455E+04  0.7816531E-02  0.8004253E-01
          2   -1    0    0  501    0  0.00000000000E+00  0.00000000000E+00  0.24518222902E+04  0.24518222902E+04  0.00000000000E+00 0.  1.
         -2   -1    0    0    0  501 -0.00000000000E+00 -0.00000000000E+00 -0.16326269590E+04  0.16326269590E+04  0.00000000000E+00 0. -1.
    2000013    1    1    2    0    0 -0.29089455849E+03 -0.17329444998E+04  0.52460616475E+03  0.20652912414E+04  0.95000000000E+03 0.  0.
   -2000013    1    1    2    0    0  0.29089455849E+03  0.17329444998E+04  0.29458916642E+03  0.20191580078E+04  0.95000000000E+03 0.  0.
<mgrwt>
<rscale>  0 0.40014553E+04</rscale>
<asrwt>0</asrwt>
<pdfrwt beam="1">  1        2 0.37720343E+00 0.40014553E+04</pdfrwt>
<pdfrwt beam="2">  1       -2 0.25117338E+00 0.40014553E+04</pdfrwt>
<totfact> 0.18505091E-01</totfact>
</mgrwt>
</event>
<event>
 4    1  0.1295381E-008  0.2338331E+04  0.7816531E-02  0.8462959E-01
         -2   -1    0    0    0  501 -0.00000000000E+00  0.00000000000E+00  0.71314468791E+03  0.71314468791E+03  0.00000000000E+00 0. -1.
          2   -1    0    0  501    0  0.00000000000E+00 -0.00000000000E+00 -0.19167887594E+04  0.19167887594E+04  0.00000000000E+00 0.  1.
    2000013    1    1    2    0    0  0.17832189169E+03 -0.56394361020E+03 -0.98259194967E+03  0.14892340421E+04  0.95000000000E+03 0.  0.
   -2000013    1    1    2    0    0 -0.17832189169E+03  0.56394361020E+03 -0.22105212182E+03  0.11406994052E+04  0.95000000000E+03 0.  0.
<mgrwt>
<rscale>  0 0.23383308E+04</rscale>
<asrwt>0</asrwt>
<pdfrwt beam="2">  1        2 0.29489058E+00 0.23383308E+04</pdfrwt>
<pdfrwt beam="1">  1       -2 0.10971457E+00 0.23383308E+04</pdfrwt>
<totfact> 0.44410896E+00</totfact>
</mgrwt>
</event>
<event>
 4    1  0.1295381E-008  0.2359999E+04  0.7816531E-02  0.8454633E-01
          2   -1    0    0  501    0  0.00000000000E+00  0.00000000000E+00  0.12704977330E+04  0.12704977330E+04  0.00000000000E+00 0.  1.
         -2   -1    0    0    0  501 -0.00000000000E+00 -0.00000000000E+00 -0.10959476291E+04  0.10959476291E+04  0.00000000000E+00 0. -1.
    2000013    1    1    2    0    0 -0.56406499604E+03  0.31493227183E+03 -0.18280675637E+03  0.11633013220E+04  0.95000000000E+03 0.  0.
   -2000013    1    1    2    0    0  0.56406499604E+03 -0.31493227183E+03  0.35735686034E+03  0.12031440401E+04  0.95000000000E+03 0.  0.
<mgrwt>
<rscale>  0 0.23599991E+04</rscale>
<asrwt>0</asrwt>
<pdfrwt beam="1">  1        2 0.19546119E+00 0.23599991E+04</pdfrwt>
<pdfrwt beam="2">  1       -2 0.16860733E+00 0.23599991E+04</pdfrwt>
<totfact> 0.33846379E+00</totfact>
</mgrwt>
</event>
<event>
 4    1  0.1295381E-008  0.2556803E+04  0.7816531E-02  0.8383024E-01
          2   -1    0    0  501    0  0.00000000000E+00  0.00000000000E+00  0.14103663352E+04  0.14103663352E+04  0.00000000000E+00 0.  1.
         -2   -1    0    0    0  501 -0.00000000000E+00 -0.00000000000E+00 -0.11587843661E+04  0.11587843661E+04  0.00000000000E+00 0. -1.
    2000013    1    1    2    0    0 -0.68920640068E+03 -0.50284946825E+03  0.18892281436E+03  0.12907574831E+04  0.95000000000E+03 0.  0.
   -2000013    1    1    2    0    0  0.68920640068E+03  0.50284946825E+03  0.62659154773E+02  0.12783932181E+04  0.95000000000E+03 0.  0.
<mgrwt>
<rscale>  0 0.25568031E+04</rscale>
<asrwt>0</asrwt>
<pdfrwt beam="1">  1        2 0.21697944E+00 0.25568031E+04</pdfrwt>
<pdfrwt beam="2">  1       -2 0.17827452E+00 0.25568031E+04</pdfrwt>
<totfact> 0.23621472E+00</totfact>
</mgrwt>
</event>
<event>
 4    1  0.1295381E-008  0.2035844E+04  0.7816531E-02  0.8590043E-01
          1   -1    0    0  501    0  0.00000000000E+00  0.00000000000E+00  0.65586475735E+03  0.65586475735E+03  0.00000000000E+00 0.  1.
         -1   -1    0    0    0  501 -0.00000000000E+00 -0.00000000000E+00 -0.15798455673E+04  0.15798455673E+04  0.00000000000E+00 0. -1.
    2000013    1    1    2    0    0 -0.17812509272E+03 -0.31240034528E+03 -0.38962329172E+03  0.10879470731E+04  0.95000000000E+03 0.  0.
   -2000013    1    1    2    0    0  0.17812509272E+03  0.31240034528E+03 -0.53435751828E+03  0.11477632516E+04  0.95000000000E+03 0.  0.
<mgrwt>
<rscale>  0 0.20358438E+04</rscale>
<asrwt>0</asrwt>
<pdfrwt beam="1">  1        1 0.10090227E+00 0.20358438E+04</pdfrwt>
<pdfrwt beam="2">  1       -1 0.24305316E+00 0.20358438E+04</pdfrwt>
<totfact> 0.21514277E+00</totfact>
</mgrwt>
</event>
<event>
 4    1  0.1295381E-008  0.2450738E+04  0.7816531E-02  0.8420749E-01
         -2   -1    0    0    0  501 -0.00000000000E+00  0.00000000000E+00  0.79402558421E+03  0.79402558421E+03  0.00000000000E+00 0. -1.
          2   -1    0    0  501    0  0.00000000000E+00 -0.00000000000E+00 -0.18910334270E+04  0.18910334270E+04  0.00000000000E+00 0.  1.
    2000013    1    1    2    0    0  0.70964386375E+03 -0.30428014551E+03 -0.49003370413E+03  0.13186409107E+04  0.95000000000E+03 0.  0.
   -2000013    1    1    2    0    0 -0.70964386375E+03  0.30428014551E+03 -0.60697413871E+03  0.13664181005E+04  0.95000000000E+03 0.  0.
<mgrwt>
<rscale>  0 0.24507378E+04</rscale>
<asrwt>0</asrwt>
<pdfrwt beam="2">  1        2 0.29092822E+00 0.24507378E+04</pdfrwt>
<pdfrwt beam="1">  1       -2 0.12215778E+00 0.24507378E+04</pdfrwt>
<totfact> 0.34938366E+00</totfact>
</mgrwt>
</event>
<event>
 4    1  0.1295381E-008  0.2322804E+04  0.7816531E-02  0.8468984E-01
         -2   -1    0    0    0  501 -0.00000000000E+00  0.00000000000E+00  0.83817014481E+03  0.83817014481E+03  0.00000000000E+00 0. -1.
          2   -1    0    0  501    0  0.00000000000E+00 -0.00000000000E+00 -0.16092851509E+04  0.16092851509E+04  0.00000000000E+00 0.  1.
    2000013    1    1    2    0    0  0.15510054225E+03  0.28881655420E+03  0.22781943709E+03  0.10304721617E+04  0.95000000000E+03 0.  0.
   -2000013    1    1    2    0    0 -0.15510054225E+03 -0.28881655420E+03 -0.99893444315E+03  0.14169831340E+04  0.95000000000E+03 0.  0.
<mgrwt>
<rscale>  0 0.23228041E+04</rscale>
<asrwt>0</asrwt>
<pdfrwt beam="2">  1        2 0.24758233E+00 0.23228041E+04</pdfrwt>
<pdfrwt beam="1">  1       -2 0.12894926E+00 0.23228041E+04</pdfrwt>
<totfact> 0.44212925E+00</totfact>
</mgrwt>
</event>
<event>
 4    1  0.1295381E-008  0.2933265E+04  0.7816531E-02  0.8263048E-01
         -2   -1    0    0    0  501 -0.00000000000E+00  0.00000000000E+00  0.15648620834E+04  0.15648620834E+04  0.00000000000E+00 0. -1.
          2   -1    0    0  501    0  0.00000000000E+00 -0.00000000000E+00 -0.13745687614E+04  0.13745687614E+04  0.00000000000E+00 0.  1.
    2000013    1    1    2    0    0  0.17777299938E+03  0.96437821813E+03  0.63188620621E+03  0.15044629489E+04  0.95000000000E+03 0.  0.
   -2000013    1    1    2    0    0 -0.17777299938E+03 -0.96437821813E+03 -0.44159288426E+03  0.14349678959E+04  0.95000000000E+03 0.  0.
<mgrwt>
<rscale>  0 0.29332648E+04</rscale>
<asrwt>0</asrwt>
<pdfrwt beam="2">  1        2 0.21147212E+00 0.29332648E+04</pdfrwt>
<pdfrwt beam="1">  1       -2 0.24074801E+00 0.29332648E+04</pdfrwt>
<totfact> 0.94406686E-01</totfact>
</mgrwt>
</event>
<event>
 4    1  0.1295381E-008  0.3479686E+04  0.7816531E-02  0.8118621E-01
         -2   -1    0    0    0  501 -0.00000000000E+00  0.00000000000E+00  0.69904201270E+03  0.69904201270E+03  0.00000000000E+00 0. -1.
          2   -1    0    0  501    0  0.00000000000E+00 -0.00000000000E+00 -0.43302883778E+04  0.43302883778E+04  0.00000000000E+00 0.  1.
    2000013    1    1    2    0    0 -0.76826216589E+03  0.10811140503E+04 -0.94179671606E+03  0.18837503549E+04  0.95000000000E+03 0.  0.
   -2000013    1    1    2    0    0  0.76826216589E+03 -0.10811140503E+04 -0.26894496490E+04  0.31455800356E+04  0.95000000000E+03 0.  0.
<mgrwt>
<rscale>  0 0.34796859E+04</rscale>
<asrwt>0</asrwt>
<pdfrwt beam="2">  1        2 0.66619821E+00 0.34796859E+04</pdfrwt>
<pdfrwt beam="1">  1       -2 0.10754493E+00 0.34796859E+04</pdfrwt>
<totfact> 0.10129796E-01</totfact>
</mgrwt>
</event>
<event>
 4    1  0.1295381E-008  0.2452729E+04  0.7816531E-02  0.8420022E-01
         -1   -1    0    0    0  501 -0.00000000000E+00  0.00000000000E+00  0.92897903479E+03  0.92897903479E+03  0.00000000000E+00 0.  1.
          1   -1    0    0  501    0  0.00000000000E+00 -0.00000000000E+00 -0.16189496917E+04  0.16189496917E+04  0.00000000000E+00 0. -1.
    2000013    1    1    2    0    0  0.55481166663E+03 -0.48257641945E+03 -0.60107835776E+03  0.13433135070E+04  0.95000000000E+03 0.  0.
   -2000013    1    1    2    0    0 -0.55481166663E+03  0.48257641945E+03 -0.88892299149E+02  0.12046152194E+04  0.95000000000E+03 0.  0.
<mgrwt>
<rscale>  0 0.24527294E+04</rscale>
<asrwt>0</asrwt>
<pdfrwt beam="2">  1        1 0.24906918E+00 0.24527294E+04</pdfrwt>
<pdfrwt beam="1">  1       -1 0.14291985E+00 0.24527294E+04</pdfrwt>
<totfact> 0.19178261E+00</totfact>
</mgrwt>
</event>
<event>
 4    1  0.1295381E-008  0.3285988E+04  0.7816531E-02  0.8166470E-01
         -1   -1    0    0    0  501 -0.00000000000E+00  0.00000000000E+00  0.17929438559E+04  0.17929438559E+04  0.00000000000E+00 0. -1.
          1   -1    0    0  501    0  0.00000000000E+00 -0.00000000000E+00 -0.15055851965E+04  0.15055851965E+04  0.00000000000E+00 0.  1.
    2000013    1    1    2    0    0  0.85212278408E+03  0.45455453355E+03  0.10768489626E+04  0.17305596642E+04  0.95000000000E+03 0.  0.
   -2000013    1    1    2    0    0 -0.85212278408E+03 -0.45455453355E+03 -0.78949030322E+03  0.15679693881E+04  0.95000000000E+03 0.  0.
<mgrwt>
<rscale>  0 0.32859883E+04</rscale>
<asrwt>0</asrwt>
<pdfrwt beam="2">  1        1 0.23162849E+00 0.32859883E+04</pdfrwt>
<pdfrwt beam="1">  1       -1 0.27583751E+00 0.32859883E+04</pdfrwt>
<totfact> 0.25501329E-01</totfact>
</mgrwt>
</event>
<event>
 4    1  0.1295381E-008  0.2566399E+04  0.7816531E-02  0.8379705E-01
         -2   -1    0    0    0  501 -0.00000000000E+00  0.00000000000E+00  0.16552774881E+04  0.16552774881E+04  0.00000000000E+00 0. -1.
          2   -1    0    0  501    0  0.00000000000E+00 -0.00000000000E+00 -0.99475855344E+03  0.99475855344E+03  0.00000000000E+00 0.  1.
    2000013    1    1    2    0    0 -0.17351331999E+03 -0.61840094150E+03  0.92485045989E+03  0.14732192538E+04  0.95000000000E+03 0.  0.
   -2000013    1    1    2    0    0  0.17351331999E+03  0.61840094150E+03 -0.26433152522E+03  0.11768167877E+04  0.95000000000E+03 0.  0.
<mgrwt>
<rscale>  0 0.25663994E+04</rscale>
<asrwt>0</asrwt>
<pdfrwt beam="2">  1        2 0.15303978E+00 0.25663994E+04</pdfrwt>
<pdfrwt beam="1">  1       -2 0.25465808E+00 0.25663994E+04</pdfrwt>
<totfact> 0.13545391E+00</totfact>
</mgrwt>
</event>
<event>
 4    1  0.1295381E-008  0.3241447E+04  0.7816531E-02  0.8177956E-01
          3   -1    0    0  501    0  0.00000000000E+00  0.00000000000E+00  0.22736440957E+04  0.22736440957E+04  0.00000000000E+00 0.  1.
         -3   -1    0    0    0  501 -0.00000000000E+00 -0.00000000000E+00 -0.11553016511E+04  0.11553016511E+04  0.00000000000E+00 0. -1.
    2000013    1    1    2    0    0 -0.12627118021E+04 -0.35962649703E+03  0.53617764359E+03  0.17069735727E+04  0.95000000000E+03 0.  0.
   -2000013    1    1    2    0    0  0.12627118021E+04  0.35962649703E+03  0.58216480101E+03  0.17219721740E+04  0.95000000000E+03 0.  0.
<mgrwt>
<rscale>  0 0.32414471E+04</rscale>
<asrwt>0</asrwt>
<pdfrwt beam="1">  1        3 0.34979140E+00 0.32414471E+04</pdfrwt>
<pdfrwt beam="2">  1       -3 0.17773872E+00 0.32414471E+04</pdfrwt>
<totfact> 0.92015090E-03</totfact>
</mgrwt>
</event>
<event>
 4    1  0.1295381E-008  0.2797424E+04  0.7816531E-02  0.8304069E-01
          2   -1    0    0  501    0  0.00000000000E+00  0.00000000000E+00  0.14588155834E+04  0.14588155834E+04  0.00000000000E+00 0.  1.
         -2   -1    0    0    0  501 -0.00000000000E+00 -0.00000000000E+00 -0.13410845689E+04  0.13410845689E+04  0.00000000000E+00 0. -1.
    2000013    1    1    2    0    0  0.75822136571E+03  0.59780418325E+03 -0.29019180746E+03  0.13852728129E+04  0.95000000000E+03 0.  0.
   -2000013    1    1    2    0    0 -0.75822136571E+03 -0.59780418325E+03  0.40792282194E+03  0.14146273395E+04  0.95000000000E+03 0.  0.
<mgrwt>
<rscale>  0 0.27974239E+04</rscale>
<asrwt>0</asrwt>
<pdfrwt beam="1">  1        2 0.22443317E+00 0.27974239E+04</pdfrwt>
<pdfrwt beam="2">  1       -2 0.20632070E+00 0.27974239E+04</pdfrwt>
<totfact> 0.14101314E+00</totfact>
</mgrwt>
</event>
<event>
 4    1  0.1295381E-008  0.2670043E+04  0.7816531E-02  0.8344791E-01
         -2   -1    0    0    0  501 -0.00000000000E+00  0.00000000000E+00  0.11778929017E+04  0.11778929017E+04  0.00000000000E+00 0. -1.
          2   -1    0    0  501    0  0.00000000000E+00 -0.00000000000E+00 -0.15131111780E+04  0.15131111780E+04  0.00000000000E+00 0.  1.
    2000013    1    1    2    0    0  0.10145209825E+03 -0.76598973530E+03  0.36830773669E+03  0.12787428951E+04  0.95000000000E+03 0.  0.
   -2000013    1    1    2    0    0 -0.10145209825E+03  0.76598973530E+03 -0.70352601297E+03  0.14122611847E+04  0.95000000000E+03 0.  0.
<mgrwt>
<rscale>  0 0.26700434E+04</rscale>
<asrwt>0</asrwt>
<pdfrwt beam="2">  1        2 0.23278633E+00 0.26700434E+04</pdfrwt>
<pdfrwt beam="1">  1       -2 0.18121429E+00 0.26700434E+04</pdfrwt>
<totfact> 0.19522978E+00</totfact>
</mgrwt>
</event>
<event>
 4    1  0.1295381E-008  0.2685872E+04  0.7816531E-02  0.8339604E-01
          2   -1    0    0  501    0  0.00000000000E+00  0.00000000000E+00  0.11242928163E+04  0.11242928163E+04  0.00000000000E+00 0.  1.
         -2   -1    0    0    0  501 -0.00000000000E+00 -0.00000000000E+00 -0.16040990547E+04  0.16040990547E+04  0.00000000000E+00 0. -1.
    2000013    1    1    2    0    0 -0.46965250551E+03 -0.68323348136E+03 -0.70938363228E+03  0.14467572719E+04  0.95000000000E+03 0.  0.
   -2000013    1    1    2    0    0  0.46965250551E+03  0.68323348136E+03  0.22957739386E+03  0.12816345992E+04  0.95000000000E+03 0.  0.
<mgrwt>
<rscale>  0 0.26858720E+04</rscale>
<asrwt>0</asrwt>
<pdfrwt beam="1">  1        2 0.17296813E+00 0.26858720E+04</pdfrwt>
<pdfrwt beam="2">  1       -2 0.24678447E+00 0.26858720E+04</pdfrwt>
<totfact> 0.12434383E+00</totfact>
</mgrwt>
</event>
<event>
 4    1  0.1295381E-008  0.2187552E+04  0.7816531E-02  0.8523627E-01
         -2   -1    0    0    0  501 -0.00000000000E+00  0.00000000000E+00  0.11169966292E+04  0.11169966292E+04  0.00000000000E+00 0.  1.
          2   -1    0    0  501    0  0.00000000000E+00 -0.00000000000E+00 -0.10710378495E+04  0.10710378495E+04  0.00000000000E+00 0. -1.
    2000013    1    1    2    0    0 -0.27829860415E+03  0.18341221573E+03  0.45057286477E+03  0.11029986675E+04  0.95000000000E+03 0.  0.
   -2000013    1    1    2    0    0  0.27829860415E+03 -0.18341221573E+03 -0.40461408500E+03  0.10850358113E+04  0.95000000000E+03 0.  0.
<mgrwt>
<rscale>  0 0.21875518E+04</rscale>
<asrwt>0</asrwt>
<pdfrwt beam="2">  1        2 0.16477505E+00 0.21875518E+04</pdfrwt>
<pdfrwt beam="1">  1       -2 0.17184563E+00 0.21875518E+04</pdfrwt>
<totfact> 0.42962789E+00</totfact>
</mgrwt>
</event>
<event>
 4    1  0.1295381E-008  0.2051868E+04  0.7816531E-02  0.8582747E-01
          2   -1    0    0  501    0  0.00000000000E+00  0.00000000000E+00  0.37623787508E+04  0.37623787508E+04  0.00000000000E+00 0.  1.
         -2   -1    0    0    0  501 -0.00000000000E+00 -0.00000000000E+00 -0.27975410365E+03  0.27975410365E+03  0.00000000000E+00 0. -1.
    2000013    1    1    2    0    0 -0.38458682432E+03  0.43905474668E+02  0.17130255652E+04  0.19966950952E+04  0.95000000000E+03 0.  0.
   -2000013    1    1    2    0    0  0.38458682432E+03 -0.43905474668E+02  0.17695990819E+04  0.20454377593E+04  0.95000000000E+03 0.  0.
<mgrwt>
<rscale>  0 0.20518683E+04</rscale>
<asrwt>0</asrwt>
<pdfrwt beam="1">  1        2 0.57882747E+00 0.20518683E+04</pdfrwt>
<pdfrwt beam="2">  1       -2 0.43039095E-01 0.20518683E+04</pdfrwt>
<totfact> 0.25013127E+00</totfact>
</mgrwt>
</event>
<event>
 4    1  0.1295381E-008  0.2508235E+04  0.7816531E-02  0.8400058E-01
         -2   -1    0    0    0  501 -0.00000000000E+00  0.00000000000E+00  0.83721671424E+03  0.83721671424E+03  0.00000000000E+00 0. -1.
          2   -1    0    0  501    0  0.00000000000E+00 -0.00000000000E+00 -0.18786185497E+04  0.18786185497E+04  0.00000000000E+00 0.  1.
    2000013    1    1    2    0    0  0.20814419332E+03  0.79181466637E+03 -0.52508289892E+03  0.13595979265E+04  0.95000000000E+03 0.  0.
   -2000013    1    1    2    0    0 -0.20814419332E+03 -0.79181466637E+03 -0.51631893652E+03  0.13562373374E+04  0.95000000000E+03 0.  0.
<mgrwt>
<rscale>  0 0.25082351E+04</rscale>
<asrwt>0</asrwt>
<pdfrwt beam="2">  1        2 0.28901824E+00 0.25082351E+04</pdfrwt>
<pdfrwt beam="1">  1       -2 0.12880257E+00 0.25082351E+04</pdfrwt>
<totfact> 0.30925782E+00</totfact>
</mgrwt>
</event>
<event>
 4    1  0.1295381E-008  0.2656003E+04  0.7816531E-02  0.8349423E-01
         -2   -1    0    0    0  501 -0.00000000000E+00  0.00000000000E+00  0.72478981895E+03  0.72478981895E+03  0.00000000000E+00 0. -1.
          2   -1    0    0  501    0  0.00000000000E+00 -0.00000000000E+00 -0.24332407445E+04  0.24332407445E+04  0.00000000000E+00 0.  1.
    2000013    1    1    2    0    0  0.85860002311E+02 -0.89192748005E+03 -0.11410262842E+04  0.17341705657E+04  0.95000000000E+03 0.  0.
   -2000013    1    1    2    0    0 -0.85860002311E+02  0.89192748005E+03 -0.56742464137E+03  0.14238599978E+04  0.95000000000E+03 0.  0.
<mgrwt>
<rscale>  0 0.26560031E+04</rscale>
<asrwt>0</asrwt>
<pdfrwt beam="2">  1        2 0.37434473E+00 0.26560031E+04</pdfrwt>
<pdfrwt beam="1">  1       -2 0.11150612E+00 0.26560031E+04</pdfrwt>
<totfact> 0.21289470E+00</totfact>
</mgrwt>
</event>
<event>
 4    1  0.1295381E-008  0.2509724E+04  0.7816531E-02  0.8399529E-01
         -2   -1    0    0    0  501 -0.00000000000E+00  0.00000000000E+00  0.12015819525E+04  0.12015819525E+04  0.00000000000E+00 0. -1.
          2   -1    0    0  501    0  0.00000000000E+00 -0.00000000000E+00 -0.13105050623E+04  0.13105050623E+04  0.00000000000E+00 0.  1.
    2000013    1    1    2    0    0 -0.38410064231E+03  0.27571548928E+03  0.61596512218E+03  0.12269740691E+04  0.95000000000E+03 0.  0.
   -2000013    1    1    2    0    0  0.38410064231E+03 -0.27571548928E+03 -0.72488823195E+03  0.12851129457E+04  0.95000000000E+03 0.  0.
<mgrwt>
<rscale>  0 0.25097245E+04</rscale>
<asrwt>0</asrwt>
<pdfrwt beam="2">  1        2 0.20161616E+00 0.25097245E+04</pdfrwt>
<pdfrwt beam="1">  1       -2 0.18485876E+00 0.25097245E+04</pdfrwt>
<totfact> 0.24393881E+00</totfact>
</mgrwt>
</event>
<event>
 4    1  0.1295381E-008  0.2254597E+04  0.7816531E-02  0.8496041E-01
          2   -1    0    0  501    0  0.00000000000E+00  0.00000000000E+00  0.34498976631E+04  0.34498976631E+04  0.00000000000E+00 0.  1.
         -2   -1    0    0    0  501 -0.00000000000E+00 -0.00000000000E+00 -0.36835916411E+03  0.36835916411E+03  0.00000000000E+00 0. -1.
    2000013    1    1    2    0    0  0.13786007117E+03 -0.50202909023E+03  0.10126041403E+04  0.14828707805E+04  0.95000000000E+03 0.  0.
   -2000013    1    1    2    0    0 -0.13786007117E+03  0.50202909023E+03  0.20689343587E+04  0.23353860467E+04  0.95000000000E+03 0.  0.
<mgrwt>
<rscale>  0 0.22545966E+04</rscale>
<asrwt>0</asrwt>
<pdfrwt beam="1">  1        2 0.53075346E+00 0.22545966E+04</pdfrwt>
<pdfrwt beam="2">  1       -2 0.56670643E-01 0.22545966E+04</pdfrwt>
<totfact> 0.23479246E+00</totfact>
</mgrwt>
</event>
<event>
 4    1  0.1295381E-008  0.2545621E+04  0.7816531E-02  0.8386911E-01
         -1   -1    0    0    0  501 -0.00000000000E+00  0.00000000000E+00  0.58630185115E+03  0.58630185115E+03  0.00000000000E+00 0.  1.
          1   -1    0    0  501    0  0.00000000000E+00 -0.00000000000E+00 -0.27631623355E+04  0.27631623355E+04  0.00000000000E+00 0. -1.
    2000013    1    1    2    0    0  0.56788696901E+03  0.51334336719E+02 -0.19126728621E+04  0.22104181281E+04  0.95000000000E+03 0.  0.
   -2000013    1    1    2    0    0 -0.56788696901E+03 -0.51334336719E+02 -0.26418762225E+03  0.11390460585E+04  0.95000000000E+03 0.  0.
<mgrwt>
<rscale>  0 0.25456215E+04</rscale>
<asrwt>0</asrwt>
<pdfrwt beam="2">  1        1 0.42510189E+00 0.25456215E+04</pdfrwt>
<pdfrwt beam="1">  1       -1 0.90200287E-01 0.25456215E+04</pdfrwt>
<totfact> 0.94136865E-01</totfact>
</mgrwt>
</event>
<event>
 4    1  0.1295381E-008  0.2798223E+04  0.7816531E-02  0.8303820E-01
          2   -1    0    0  501    0  0.00000000000E+00  0.00000000000E+00  0.27584368871E+04  0.27584368871E+04  0.00000000000E+00 0.  1.
         -2   -1    0    0    0  501 -0.00000000000E+00 -0.00000000000E+00 -0.70964586065E+03  0.70964586065E+03  0.00000000000E+00 0. -1.
    2000013    1    1    2    0    0  0.30490024546E+03 -0.49983430011E+03 -0.21558520979E+02  0.11161376515E+04  0.95000000000E+03 0.  0.
   -2000013    1    1    2    0    0 -0.30490024546E+03  0.49983430011E+03  0.20703495474E+04  0.23519450962E+04  0.95000000000E+03 0.  0.
<mgrwt>
<rscale>  0 0.27982232E+04</rscale>
<asrwt>0</asrwt>
<pdfrwt beam="1">  1        2 0.42437490E+00 0.27982232E+04</pdfrwt>
<pdfrwt beam="2">  1       -2 0.10917629E+00 0.27982232E+04</pdfrwt>
<totfact> 0.14260647E+00</totfact>
</mgrwt>
</event>
<event>
 4    1  0.1295381E-008  0.3095377E+04  0.7816531E-02  0.8217008E-01
         -1   -1    0    0    0  501 -0.00000000000E+00  0.00000000000E+00  0.14644964654E+04  0.14644964654E+04  0.00000000000E+00 0. -1.
          1   -1    0    0  501    0  0.00000000000E+00 -0.00000000000E+00 -0.16356063698E+04  0.16356063698E+04  0.00000000000E+00 0.  1.
    2000013    1    1    2    0    0  0.11506006618E+04  0.41020275185E+03 -0.11189276157E+03  0.15515051307E+04  0.95000000000E+03 0.  0.
   -2000013    1    1    2    0    0 -0.11506006618E+04 -0.41020275185E+03 -0.59217142834E+02  0.15485977045E+04  0.95000000000E+03 0.  0.
<mgrwt>
<rscale>  0 0.30953770E+04</rscale>
<asrwt>0</asrwt>
<pdfrwt beam="2">  1        1 0.25163175E+00 0.30953770E+04</pdfrwt>
<pdfrwt beam="1">  1       -1 0.22530715E+00 0.30953770E+04</pdfrwt>
<totfact> 0.45162252E-01</totfact>
</mgrwt>
</event>
<event>
 4    1  0.1295381E-008  0.2467923E+04  0.7816531E-02  0.8414503E-01
          2   -1    0    0  501    0  0.00000000000E+00  0.00000000000E+00  0.13285223909E+04  0.13285223909E+04  0.00000000000E+00 0.  1.
         -2   -1    0    0    0  501 -0.00000000000E+00 -0.00000000000E+00 -0.11461314515E+04  0.11461314515E+04  0.00000000000E+00 0. -1.
    2000013    1    1    2    0    0 -0.71115977234E+03 -0.31820990031E+03 -0.23814911871E+02  0.12288502401E+04  0.95000000000E+03 0.  0.
   -2000013    1    1    2    0    0  0.71115977234E+03  0.31820990031E+03  0.20620585121E+03  0.12458036023E+04  0.95000000000E+03 0.  0.
<mgrwt>
<rscale>  0 0.24679233E+04</rscale>
<asrwt>0</asrwt>
<pdfrwt beam="1">  1        2 0.20438806E+00 0.24679233E+04</pdfrwt>
<pdfrwt beam="2">  1       -2 0.17632792E+00 0.24679233E+04</pdfrwt>
<totfact> 0.27365247E+00</totfact>
</mgrwt>
</event>
<event>
 4    1  0.1295381E-008  0.2296688E+04  0.7816531E-02  0.8479228E-01
         -2   -1    0    0    0  501 -0.00000000000E+00  0.00000000000E+00  0.28879910152E+04  0.28879910152E+04  0.00000000000E+00 0. -1.
          2   -1    0    0  501    0  0.00000000000E+00 -0.00000000000E+00 -0.45661307418E+03  0.45661307418E+03  0.00000000000E+00 0.  1.
    2000013    1    1    2    0    0  0.38113110613E+03  0.53130552323E+02  0.46163976321E+03  0.11241419157E+04  0.95000000000E+03 0.  0.
   -2000013    1    1    2    0    0 -0.38113110613E+03 -0.53130552323E+02  0.19697381778E+04  0.22204621737E+04  0.95000000000E+03 0.  0.
<mgrwt>
<rscale>  0 0.22966884E+04</rscale>
<asrwt>0</asrwt>
<pdfrwt beam="2">  1        2 0.70248167E-01 0.22966884E+04</pdfrwt>
<pdfrwt beam="1">  1       -2 0.44430630E+00 0.22966884E+04</pdfrwt>
<totfact> 0.23479681E-01</totfact>
</mgrwt>
</event>
<event>
 4    1  0.1295381E-008  0.3335367E+04  0.7816531E-02  0.8153954E-01
          2   -1    0    0  501    0  0.00000000000E+00  0.00000000000E+00  0.20693995784E+04  0.20693995784E+04  0.00000000000E+00 0.  1.
         -2   -1    0    0    0  501 -0.00000000000E+00 -0.00000000000E+00 -0.13439490191E+04  0.13439490191E+04  0.00000000000E+00 0. -1.
    2000013    1    1    2    0    0 -0.35811517752E+03 -0.51327002125E+03  0.16106514642E+04  0.19719002851E+04  0.95000000000E+03 0.  0.
   -2000013    1    1    2    0    0  0.35811517752E+03  0.51327002125E+03 -0.88520090495E+03  0.14414483124E+04  0.95000000000E+03 0.  0.
<mgrwt>
<rscale>  0 0.33353666E+04</rscale>
<asrwt>0</asrwt>
<pdfrwt beam="1">  1        2 0.31836917E+00 0.33353666E+04</pdfrwt>
<pdfrwt beam="2">  1       -2 0.20676139E+00 0.33353666E+04</pdfrwt>
<totfact> 0.61162798E-01</totfact>
</mgrwt>
</event>
<event>
 4    1  0.1295381E-008  0.2067035E+04  0.7816531E-02  0.8575905E-01
         -2   -1    0    0    0  501 -0.00000000000E+00  0.00000000000E+00  0.10183233072E+04  0.10183233072E+04  0.00000000000E+00 0. -1.
          2   -1    0    0  501    0  0.00000000000E+00 -0.00000000000E+00 -0.10489380913E+04  0.10489380913E+04  0.00000000000E+00 0.  1.
    2000013    1    1    2    0    0  0.16922258655E+03  0.31812119093E+03  0.17397701830E+03  0.10308275214E+04  0.95000000000E+03 0.  0.
   -2000013    1    1    2    0    0 -0.16922258655E+03 -0.31812119093E+03 -0.20459180240E+03  0.10364338771E+04  0.95000000000E+03 0.  0.
<mgrwt>
<rscale>  0 0.20670347E+04</rscale>
<asrwt>0</asrwt>
<pdfrwt beam="2">  1        2 0.16137509E+00 0.20670347E+04</pdfrwt>
<pdfrwt beam="1">  1       -2 0.15666512E+00 0.20670347E+04</pdfrwt>
<totfact> 0.57775581E+00</totfact>
</mgrwt>
</event>
<event>
 4    1  0.1295381E-008  0.2184626E+04  0.7816531E-02  0.8524855E-01
         -2   -1    0    0    0  501 -0.00000000000E+00  0.00000000000E+00  0.33339026053E+03  0.33339026053E+03  0.00000000000E+00 0. -1.
          2   -1    0    0  501    0  0.00000000000E+00 -0.00000000000E+00 -0.35788309853E+04  0.35788309853E+04  0.00000000000E+00 0.  1.
    2000013    1    1    2    0    0  0.34268820918E+03  0.27041168746E+03 -0.21892740464E+04  0.24261035715E+04  0.95000000000E+03 0.  0.
   -2000013    1    1    2    0    0 -0.34268820918E+03 -0.27041168746E+03 -0.10561666784E+04  0.14861176743E+04  0.95000000000E+03 0.  0.
<mgrwt>
<rscale>  0 0.21846257E+04</rscale>
<asrwt>0</asrwt>
<pdfrwt beam="2">  1        2 0.55058938E+00 0.21846257E+04</pdfrwt>
<pdfrwt beam="1">  1       -2 0.51290810E-01 0.21846257E+04</pdfrwt>
<totfact> 0.23599845E+00</totfact>
</mgrwt>
</event>
<event>
 4    1  0.1295381E-008  0.2101996E+04  0.7816531E-02  0.8560365E-01
          2   -1    0    0  501    0  0.00000000000E+00  0.00000000000E+00  0.60380421297E+03  0.60380421297E+03  0.00000000000E+00 0.  1.
         -2   -1    0    0    0  501 -0.00000000000E+00 -0.00000000000E+00 -0.18293950760E+04  0.18293950760E+04  0.00000000000E+00 0. -1.
    2000013    1    1    2    0    0  0.44569685479E+03 -0.55856097277E+02 -0.63385117975E+03  0.12272053243E+04  0.95000000000E+03 0.  0.
   -2000013    1    1    2    0    0 -0.44569685479E+03  0.55856097277E+02 -0.59173968327E+03  0.12059939646E+04  0.95000000000E+03 0.  0.
<mgrwt>
<rscale>  0 0.21019957E+04</rscale>
<asrwt>0</asrwt>
<pdfrwt beam="1">  1        2 0.92892956E-01 0.21019957E+04</pdfrwt>
<pdfrwt beam="2">  1       -2 0.28144540E+00 0.21019957E+04</pdfrwt>
<totfact> 0.18720375E+00</totfact>
</mgrwt>
</event>
<event>
 4    1  0.1295381E-008  0.3040914E+04  0.7816531E-02  0.8232143E-01
          2   -1    0    0  501    0  0.00000000000E+00  0.00000000000E+00  0.13201018455E+04  0.13201018455E+04  0.00000000000E+00 0.  1.
         -2   -1    0    0    0  501 -0.00000000000E+00 -0.00000000000E+00 -0.17512209702E+04  0.17512209702E+04  0.00000000000E+00 0. -1.
    2000013    1    1    2    0    0  0.97325449003E+03  0.51711394551E+03 -0.66117313339E+03  0.15982118280E+04  0.95000000000E+03 0.  0.
   -2000013    1    1    2    0    0 -0.97325449003E+03 -0.51711394551E+03  0.23005400871E+03  0.14731109876E+04  0.95000000000E+03 0.  0.
<mgrwt>
<rscale>  0 0.30409144E+04</rscale>
<asrwt>0</asrwt>
<pdfrwt beam="1">  1        2 0.20309259E+00 0.30409144E+04</pdfrwt>
<pdfrwt beam="2">  1       -2 0.26941861E+00 0.30409144E+04</pdfrwt>
<totfact> 0.67082644E-01</totfact>
</mgrwt>
</event>
<event>
 4    1  0.1295381E-008  0.2566971E+04  0.7816531E-02  0.8379508E-01
          2   -1    0    0  501    0  0.00000000000E+00  0.00000000000E+00  0.18776525555E+04  0.18776525555E+04  0.00000000000E+00 0.  1.
         -2   -1    0    0    0  501 -0.00000000000E+00 -0.00000000000E+00 -0.87733754225E+03  0.87733754225E+03  0.00000000000E+00 0. -1.
    2000013    1    1    2    0    0  0.13511207069E+03 -0.84822565712E+03  0.59054645118E+03  0.14103145564E+04  0.95000000000E+03 0.  0.
   -2000013    1    1    2    0    0 -0.13511207069E+03  0.84822565712E+03  0.40976856210E+03  0.13446755414E+04  0.95000000000E+03 0.  0.
<mgrwt>
<rscale>  0 0.25669710E+04</rscale>
<asrwt>0</asrwt>
<pdfrwt beam="1">  1        2 0.28886962E+00 0.25669710E+04</pdfrwt>
<pdfrwt beam="2">  1       -2 0.13497501E+00 0.25669710E+04</pdfrwt>
<totfact> 0.27356795E+00</totfact>
</mgrwt>
</event>
<event>
 4    1  0.1295381E-008  0.2751610E+04  0.7816531E-02  0.8318451E-01
          1   -1    0    0  501    0  0.00000000000E+00  0.00000000000E+00  0.30236285437E+04  0.30236285437E+04  0.00000000000E+00 0.  1.
         -1   -1    0    0    0  501 -0.00000000000E+00 -0.00000000000E+00 -0.62601566579E+03  0.62601566579E+03  0.00000000000E+00 0. -1.
    2000013    1    1    2    0    0  0.84797147946E+03  0.49429136753E+03  0.98102662801E+03  0.16817529042E+04  0.95000000000E+03 0.  0.
   -2000013    1    1    2    0    0 -0.84797147946E+03 -0.49429136753E+03  0.14165862499E+04  0.19678913053E+04  0.95000000000E+03 0.  0.
<mgrwt>
<rscale>  0 0.27516096E+04</rscale>
<asrwt>0</asrwt>
<pdfrwt beam="1">  1        1 0.46517361E+00 0.27516096E+04</pdfrwt>
<pdfrwt beam="2">  1       -1 0.96310105E-01 0.27516096E+04</pdfrwt>
<totfact> 0.51815842E-01</totfact>
</mgrwt>
</event>
<event>
 4    1  0.1295381E-008  0.2276043E+04  0.7816531E-02  0.8487427E-01
          2   -1    0    0  501    0  0.00000000000E+00  0.00000000000E+00  0.21495604520E+04  0.21495604520E+04  0.00000000000E+00 0.  1.
         -2   -1    0    0    0  501 -0.00000000000E+00 -0.00000000000E+00 -0.60249179886E+03  0.60249179886E+03  0.00000000000E+00 0. -1.
    2000013    1    1    2    0    0 -0.22270540323E+03 -0.17988693519E+03  0.14474442436E+04  0.17548651927E+04  0.95000000000E+03 0.  0.
   -2000013    1    1    2    0    0  0.22270540323E+03  0.17988693519E+03  0.99624409532E+02  0.99718705821E+03  0.95000000000E+03 0.  0.
<mgrwt>
<rscale>  0 0.22760427E+04</rscale>
<asrwt>0</asrwt>
<pdfrwt beam="1">  1        2 0.33070160E+00 0.22760427E+04</pdfrwt>
<pdfrwt beam="2">  1       -2 0.92691047E-01 0.22760427E+04</pdfrwt>
<totfact> 0.49416833E+00</totfact>
</mgrwt>
</event>
<event>
 4    1  0.1295381E-008  0.2752650E+04  0.7816531E-02  0.8318121E-01
          2   -1    0    0  501    0  0.00000000000E+00  0.00000000000E+00  0.19571281547E+04  0.19571281547E+04  0.00000000000E+00 0.  1.
         -2   -1    0    0    0  501 -0.00000000000E+00 -0.00000000000E+00 -0.96788240772E+03  0.96788240772E+03  0.00000000000E+00 0. -1.
    2000013    1    1    2    0    0  0.57393812203E+03  0.80941346789E+03  0.58488136697E+03  0.14930309251E+04  0.95000000000E+03 0.  0.
   -2000013    1    1    2    0    0 -0.57393812203E+03 -0.80941346789E+03  0.40436438005E+03  0.14319796373E+04  0.95000000000E+03 0.  0.
<mgrwt>
<rscale>  0 0.27526496E+04</rscale>
<asrwt>0</asrwt>
<pdfrwt beam="1">  1        2 0.30109664E+00 0.27526496E+04</pdfrwt>
<pdfrwt beam="2">  1       -2 0.14890499E+00 0.27526496E+04</pdfrwt>
<totfact> 0.18837431E+00</totfact>
</mgrwt>
</event>
<event>
 4    1  0.1295381E-008  0.3235441E+04  0.7816531E-02  0.8179519E-01
          2   -1    0    0  501    0  0.00000000000E+00  0.00000000000E+00  0.15994456959E+04  0.15994456959E+04  0.00000000000E+00 0. -1.
         -2   -1    0    0    0  501 -0.00000000000E+00 -0.00000000000E+00 -0.16362043376E+04  0.16362043376E+04  0.00000000000E+00 0.  1.
    2000013    1    1    2    0    0  0.66635230996E+03 -0.20270895614E+03 -0.11272356472E+04  0.16304221926E+04  0.95000000000E+03 0.  0.
   -2000013    1    1    2    0    0 -0.66635230996E+03  0.20270895614E+03  0.10904770054E+04  0.16052278409E+04  0.95000000000E+03 0.  0.
<mgrwt>
<rscale>  0 0.32354412E+04</rscale>
<asrwt>0</asrwt>
<pdfrwt beam="1">  1        2 0.24606857E+00 0.32354412E+04</pdfrwt>
<pdfrwt beam="2">  1       -2 0.25172374E+00 0.32354412E+04</pdfrwt>
<totfact> 0.58761926E-01</totfact>
</mgrwt>
</event>
<event>
 4    1  0.1295381E-008  0.2212468E+04  0.7816531E-02  0.8513256E-01
         -2   -1    0    0    0  501 -0.00000000000E+00  0.00000000000E+00  0.15061204756E+04  0.15061204756E+04  0.00000000000E+00 0. -1.
          2   -1    0    0  501    0  0.00000000000E+00 -0.00000000000E+00 -0.81252070073E+03  0.81252070073E+03  0.00000000000E+00 0.  1.
    2000013    1    1    2    0    0  0.13642185638E+03 -0.54332650338E+03  0.25640852143E+03  0.11322808583E+04  0.95000000000E+03 0.  0.
   -2000013    1    1    2    0    0 -0.13642185638E+03  0.54332650338E+03  0.43719125345E+03  0.11863603181E+04  0.95000000000E+03 0.  0.
<mgrwt>
<rscale>  0 0.22124684E+04</rscale>
<asrwt>0</asrwt>
<pdfrwt beam="2">  1        2 0.12500318E+00 0.22124684E+04</pdfrwt>
<pdfrwt beam="1">  1       -2 0.23171084E+00 0.22124684E+04</pdfrwt>
<totfact> 0.25689516E+00</totfact>
</mgrwt>
</event>
<event>
 4    1  0.1295381E-008  0.2202407E+04  0.7816531E-02  0.8517427E-01
         -2   -1    0    0    0  501 -0.00000000000E+00  0.00000000000E+00  0.88164804004E+03  0.88164804004E+03  0.00000000000E+00 0. -1.
          2   -1    0    0  501    0  0.00000000000E+00 -0.00000000000E+00 -0.13754347028E+04  0.13754347028E+04  0.00000000000E+00 0.  1.
    2000013    1    1    2    0    0  0.55166565963E+03  0.65212179776E+02 -0.20639416268E+03  0.11196812845E+04  0.95000000000E+03 0.  0.
   -2000013    1    1    2    0    0 -0.55166565963E+03 -0.65212179776E+02 -0.28739250008E+03  0.11374014584E+04  0.95000000000E+03 0.  0.
<mgrwt>
<rscale>  0 0.22024071E+04</rscale>
<asrwt>0</asrwt>
<pdfrwt beam="2">  1        2 0.21160534E+00 0.22024071E+04</pdfrwt>
<pdfrwt beam="1">  1       -2 0.13563816E+00 0.22024071E+04</pdfrwt>
<totfact> 0.53256329E+00</totfact>
</mgrwt>
</event>
<event>
 4    1  0.1295381E-008  0.2123626E+04  0.7816531E-02  0.8550907E-01
         -2   -1    0    0    0  501 -0.00000000000E+00  0.00000000000E+00  0.65244769959E+03  0.65244769959E+03  0.00000000000E+00 0. -1.
          2   -1    0    0  501    0  0.00000000000E+00 -0.00000000000E+00 -0.17280265758E+04  0.17280265758E+04  0.00000000000E+00 0.  1.
    2000013    1    1    2    0    0 -0.32814368777E+03 -0.35610348835E+02 -0.91957151000E+03  0.13627392042E+04  0.95000000000E+03 0.  0.
   -2000013    1    1    2    0    0  0.32814368777E+03  0.35610348835E+02 -0.15600736622E+03  0.10177350712E+04  0.95000000000E+03 0.  0.
<mgrwt>
<rscale>  0 0.21236261E+04</rscale>
<asrwt>0</asrwt>
<pdfrwt beam="2">  1        2 0.26585024E+00 0.21236261E+04</pdfrwt>
<pdfrwt beam="1">  1       -2 0.10037657E+00 0.21236261E+04</pdfrwt>
<totfact> 0.71242829E+00</totfact>
</mgrwt>
</event>
<event>
 4    1  0.1295381E-008  0.2445870E+04  0.7816531E-02  0.8422528E-01
         -2   -1    0    0    0  501 -0.00000000000E+00  0.00000000000E+00  0.11076378453E+04  0.11076378453E+04  0.00000000000E+00 0.  1.
          2   -1    0    0  501    0  0.00000000000E+00 -0.00000000000E+00 -0.13502335243E+04  0.13502335243E+04  0.00000000000E+00 0. -1.
    2000013    1    1    2    0    0  0.69424706363E+03 -0.61112623451E+02 -0.45055786442E+03  0.12614341550E+04  0.95000000000E+03 0.  0.
   -2000013    1    1    2    0    0 -0.69424706363E+03  0.61112623451E+02  0.20796218542E+03  0.11964372147E+04  0.95000000000E+03 0.  0.
<mgrwt>
<rscale>  0 0.24458698E+04</rscale>
<asrwt>0</asrwt>
<pdfrwt beam="2">  1        2 0.20772823E+00 0.24458698E+04</pdfrwt>
<pdfrwt beam="1">  1       -2 0.17040582E+00 0.24458698E+04</pdfrwt>
<totfact> 0.29320825E+00</totfact>
</mgrwt>
</event>
<event>
 4    1  0.1295381E-008  0.2997869E+04  0.7816531E-02  0.8244340E-01
         -2   -1    0    0    0  501 -0.00000000000E+00  0.00000000000E+00  0.60075658914E+03  0.60075658914E+03  0.00000000000E+00 0.  1.
          2   -1    0    0  501    0  0.00000000000E+00 -0.00000000000E+00 -0.37399574906E+04  0.37399574906E+04  0.00000000000E+00 0. -1.
    2000013    1    1    2    0    0 -0.44097918272E+03 -0.74927973288E+03 -0.45891063359E+03  0.13671070651E+04  0.95000000000E+03 0.  0.
   -2000013    1    1    2    0    0  0.44097918272E+03  0.74927973288E+03 -0.26802902679E+04  0.29736070147E+04  0.95000000000E+03 0.  0.
<mgrwt>
<rscale>  0 0.29978686E+04</rscale>
<asrwt>0</asrwt>
<pdfrwt beam="2">  1        2 0.57537809E+00 0.29978686E+04</pdfrwt>
<pdfrwt beam="1">  1       -2 0.92424088E-01 0.29978686E+04</pdfrwt>
<totfact> 0.46341985E-01</totfact>
</mgrwt>
</event>
<event>
 4    1  0.1295381E-008  0.3071753E+04  0.7816531E-02  0.8223533E-01
         -2   -1    0    0    0  501 -0.00000000000E+00  0.00000000000E+00  0.12400755531E+04  0.12400755531E+04  0.00000000000E+00 0. -1.
          2   -1    0    0  501    0  0.00000000000E+00 -0.00000000000E+00 -0.19022365489E+04  0.19022365489E+04  0.00000000000E+00 0.  1.
    2000013    1    1    2    0    0 -0.52381703187E+03 -0.10489485451E+04 -0.38611708161E+02  0.15095258186E+04  0.95000000000E+03 0.  0.
   -2000013    1    1    2    0    0  0.52381703187E+03  0.10489485451E+04 -0.62354928762E+03  0.16327862834E+04  0.95000000000E+03 0.  0.
<mgrwt>
<rscale>  0 0.30717533E+04</rscale>
<asrwt>0</asrwt>
<pdfrwt beam="2">  1        2 0.29265178E+00 0.30717533E+04</pdfrwt>
<pdfrwt beam="1">  1       -2 0.19078086E+00 0.30717533E+04</pdfrwt>
<totfact> 0.98687312E-01</totfact>
</mgrwt>
</event>
<event>
 4    1  0.1295381E-008  0.3394275E+04  0.7816531E-02  0.8139313E-01
         -1   -1    0    0    0  501 -0.00000000000E+00  0.00000000000E+00  0.10198011007E+04  0.10198011007E+04  0.00000000000E+00 0. -1.
          1   -1    0    0  501    0  0.00000000000E+00 -0.00000000000E+00 -0.28243507359E+04  0.28243507359E+04  0.00000000000E+00 0.  1.
    2000013    1    1    2    0    0 -0.11759306999E+04 -0.43247434161E+03 -0.16256202350E+04  0.22616339703E+04  0.95000000000E+03 0.  0.
   -2000013    1    1    2    0    0  0.11759306999E+04  0.43247434161E+03 -0.17892940027E+03  0.15825178664E+04  0.95000000000E+03 0.  0.
<mgrwt>
<rscale>  0 0.33942752E+04</rscale>
<asrwt>0</asrwt>
<pdfrwt beam="2">  1        1 0.43451550E+00 0.33942752E+04</pdfrwt>
<pdfrwt beam="1">  1       -1 0.15689248E+00 0.33942752E+04</pdfrwt>
<totfact> 0.20327050E-01</totfact>
</mgrwt>
</event>
<event>
 4    1  0.1295381E-008  0.2347321E+04  0.7816531E-02  0.8459493E-01
          2   -1    0    0  501    0  0.00000000000E+00  0.00000000000E+00  0.14032620501E+04  0.14032620501E+04  0.00000000000E+00 0.  1.
         -2   -1    0    0    0  501 -0.00000000000E+00 -0.00000000000E+00 -0.98162628033E+03  0.98162628033E+03  0.00000000000E+00 0. -1.
    2000013    1    1    2    0    0 -0.38439181349E+03  0.56235659743E+03  0.31726536399E+03  0.12112635222E+04  0.95000000000E+03 0.  0.
   -2000013    1    1    2    0    0  0.38439181349E+03 -0.56235659743E+03  0.10437040578E+03  0.11736248083E+04  0.95000000000E+03 0.  0.
<mgrwt>
<rscale>  0 0.23473209E+04</rscale>
<asrwt>0</asrwt>
<pdfrwt beam="1">  1        2 0.21588647E+00 0.23473209E+04</pdfrwt>
<pdfrwt beam="2">  1       -2 0.15101943E+00 0.23473209E+04</pdfrwt>
<totfact> 0.38298732E+00</totfact>
</mgrwt>
</event>
<event>
 4    1  0.1295381E-008  0.1945796E+04  0.7816531E-02  0.8632391E-01
          2   -1    0    0  501    0  0.00000000000E+00  0.00000000000E+00  0.10081317368E+04  0.10081317368E+04  0.00000000000E+00 0.  1.
         -2   -1    0    0    0  501 -0.00000000000E+00 -0.00000000000E+00 -0.93889552246E+03  0.93889552246E+03  0.00000000000E+00 0. -1.
    2000013    1    1    2    0    0  0.16684390523E+03  0.58407494163E+02 -0.78511169025E+02  0.96949075692E+03  0.95000000000E+03 0.  0.
   -2000013    1    1    2    0    0 -0.16684390523E+03 -0.58407494163E+02  0.14774738335E+03  0.97753650232E+03  0.95000000000E+03 0.  0.
<mgrwt>
<rscale>  0 0.19457959E+04</rscale>
<asrwt>0</asrwt>
<pdfrwt beam="1">  1        2 0.15509719E+00 0.19457959E+04</pdfrwt>
<pdfrwt beam="2">  1       -2 0.14444547E+00 0.19457959E+04</pdfrwt>
<totfact> 0.76860928E+00</totfact>
</mgrwt>
</event>
<event>
 4    1  0.1295381E-008  0.2937763E+04  0.7816531E-02  0.8261730E-01
         -2   -1    0    0    0  501 -0.00000000000E+00  0.00000000000E+00  0.62820455187E+03  0.62820455187E+03  0.00000000000E+00 0. -1.
          2   -1    0    0  501    0  0.00000000000E+00 -0.00000000000E+00 -0.34345699658E+04  0.34345699658E+04  0.00000000000E+00 0.  1.
    2000013    1    1    2    0    0  0.86696818487E+03 -0.70440762374E+03 -0.15212491927E+04  0.21129417976E+04  0.95000000000E+03 0.  0.
   -2000013    1    1    2    0    0 -0.86696818487E+03  0.70440762374E+03 -0.12851162212E+04  0.19498327200E+04  0.95000000000E+03 0.  0.
<mgrwt>
<rscale>  0 0.29377627E+04</rscale>
<asrwt>0</asrwt>
<pdfrwt beam="2">  1        2 0.52839536E+00 0.29377627E+04</pdfrwt>
<pdfrwt beam="1">  1       -2 0.96646858E-01 0.29377627E+04</pdfrwt>
<totfact> 0.69485850E-01</totfact>
</mgrwt>
</event>
<event>
 4    1  0.1295381E-008  0.3163483E+04  0.7816531E-02  0.8198528E-01
          2   -1    0    0  501    0  0.00000000000E+00  0.00000000000E+00  0.39594158697E+04  0.39594158697E+04  0.00000000000E+00 0.  1.
         -2   -1    0    0    0  501 -0.00000000000E+00 -0.00000000000E+00 -0.63188764519E+03  0.63188764519E+03  0.00000000000E+00 0. -1.
    2000013    1    1    2    0    0 -0.13682990778E+03  0.98883866307E+03  0.53686108156E+03  0.14789334489E+04  0.95000000000E+03 0.  0.
   -2000013    1    1    2    0    0  0.13682990778E+03 -0.98883866307E+03  0.27906671430E+04  0.31123700661E+04  0.95000000000E+03 0.  0.
<mgrwt>
<rscale>  0 0.31634829E+04</rscale>
<asrwt>0</asrwt>
<pdfrwt beam="1">  1        2 0.60914089E+00 0.31634829E+04</pdfrwt>
<pdfrwt beam="2">  1       -2 0.97213487E-01 0.31634829E+04</pdfrwt>
<totfact> 0.27467437E-01</totfact>
</mgrwt>
</event>
<event>
 4    1  0.1295381E-008  0.2690856E+04  0.7816531E-02  0.8337978E-01
         -2   -1    0    0    0  501 -0.00000000000E+00  0.00000000000E+00  0.10951673280E+04  0.10951673280E+04  0.00000000000E+00 0. -1.
          2   -1    0    0  501    0  0.00000000000E+00 -0.00000000000E+00 -0.16528766508E+04  0.16528766508E+04  0.00000000000E+00 0.  1.
    2000013    1    1    2    0    0  0.88589157078E+03 -0.32974943443E+03 -0.15742457707E+03  0.13493780279E+04  0.95000000000E+03 0.  0.
   -2000013    1    1    2    0    0 -0.88589157078E+03  0.32974943443E+03 -0.40028474578E+03  0.13986659510E+04  0.95000000000E+03 0.  0.
<mgrwt>
<rscale>  0 0.26908560E+04</rscale>
<asrwt>0</asrwt>
<pdfrwt beam="2">  1        2 0.25428872E+00 0.26908560E+04</pdfrwt>
<pdfrwt beam="1">  1       -2 0.16848728E+00 0.26908560E+04</pdfrwt>
<totfact> 0.19988981E+00</totfact>
</mgrwt>
</event>
<event>
 4    1  0.1295381E-008  0.2205535E+04  0.7816531E-02  0.8516128E-01
          2   -1    0    0  501    0  0.00000000000E+00  0.00000000000E+00  0.33230514235E+04  0.33230514235E+04  0.00000000000E+00 0.  1.
         -2   -1    0    0    0  501 -0.00000000000E+00 -0.00000000000E+00 -0.36595750767E+03  0.36595750767E+03  0.00000000000E+00 0. -1.
    2000013    1    1    2    0    0  0.21729618964E+03  0.47668964508E+03  0.11476187373E+04  0.15792338072E+04  0.95000000000E+03 0.  0.
   -2000013    1    1    2    0    0 -0.21729618964E+03 -0.47668964508E+03  0.18094751785E+04  0.21097751239E+04  0.95000000000E+03 0.  0.
<mgrwt>
<rscale>  0 0.22055345E+04</rscale>
<asrwt>0</asrwt>
<pdfrwt beam="1">  1        2 0.51123866E+00 0.22055345E+04</pdfrwt>
<pdfrwt beam="2">  1       -2 0.56301157E-01 0.22055345E+04</pdfrwt>
<totfact> 0.29153406E+00</totfact>
</mgrwt>
</event>
<event>
 4    1  0.1295381E-008  0.2005283E+04  0.7816531E-02  0.8604155E-01
         -2   -1    0    0    0  501 -0.00000000000E+00  0.00000000000E+00  0.86728007668E+03  0.86728007668E+03  0.00000000000E+00 0. -1.
          2   -1    0    0  501    0  0.00000000000E+00 -0.00000000000E+00 -0.11591291881E+04  0.11591291881E+04  0.00000000000E+00 0.  1.
    2000013    1    1    2    0    0  0.16912305101E+03 -0.25159947683E+03 -0.25135371654E+03  0.10283888340E+04  0.95000000000E+03 0.  0.
   -2000013    1    1    2    0    0 -0.16912305101E+03  0.25159947683E+03 -0.40495394832E+02  0.99802043072E+03  0.95000000000E+03 0.  0.
<mgrwt>
<rscale>  0 0.20052827E+04</rscale>
<asrwt>0</asrwt>
<pdfrwt beam="2">  1        2 0.17832757E+00 0.20052827E+04</pdfrwt>
<pdfrwt beam="1">  1       -2 0.13342770E+00 0.20052827E+04</pdfrwt>
<totfact> 0.75678083E+00</totfact>
</mgrwt>
</event>
<event>
 4    1  0.1295381E-008  0.2392260E+04  0.7816531E-02  0.8442407E-01
          4   -1    0    0  501    0  0.00000000000E+00  0.00000000000E+00  0.15574381089E+04  0.15574381089E+04  0.00000000000E+00 0.  1.
         -4   -1    0    0    0  501 -0.00000000000E+00 -0.00000000000E+00 -0.91864109846E+03  0.91864109846E+03  0.00000000000E+00 0. -1.
    2000013    1    1    2    0    0  0.21813083853E+03  0.67318025997E+03  0.14783828414E+03  0.11937792440E+04  0.95000000000E+03 0.  0.
   -2000013    1    1    2    0    0 -0.21813083853E+03 -0.67318025997E+03  0.49095872632E+03  0.12822999634E+04  0.95000000000E+03 0.  0.
<mgrwt>
<rscale>  0 0.23922597E+04</rscale>
<asrwt>0</asrwt>
<pdfrwt beam="1">  1        4 0.23960586E+00 0.23922597E+04</pdfrwt>
<pdfrwt beam="2">  1       -4 0.14132940E+00 0.23922597E+04</pdfrwt>
<totfact> 0.45924478E-02</totfact>
</mgrwt>
</event>
<event>
 4    1  0.1295381E-008  0.2422967E+04  0.7816531E-02  0.8430955E-01
         -2   -1    0    0    0  501 -0.00000000000E+00  0.00000000000E+00  0.98391885169E+03  0.98391885169E+03  0.00000000000E+00 0. -1.
          2   -1    0    0  501    0  0.00000000000E+00 -0.00000000000E+00 -0.14916800303E+04  0.14916800303E+04  0.00000000000E+00 0.  1.
    2000013    1    1    2    0    0  0.16104316461E+03 -0.71416196712E+03 -0.42856186978E+03  0.12736276899E+04  0.95000000000E+03 0.  0.
   -2000013    1    1    2    0    0 -0.16104316461E+03  0.71416196712E+03 -0.79199308811E+02  0.12019711921E+04  0.95000000000E+03 0.  0.
<mgrwt>
<rscale>  0 0.24229669E+04</rscale>
<asrwt>0</asrwt>
<pdfrwt beam="2">  1        2 0.22948924E+00 0.24229669E+04</pdfrwt>
<pdfrwt beam="1">  1       -2 0.15137213E+00 0.24229669E+04</pdfrwt>
<totfact> 0.33688527E+00</totfact>
</mgrwt>
</event>
<event>
 4    1  0.1295381E-008  0.2274847E+04  0.7816531E-02  0.8487905E-01
          2   -1    0    0  501    0  0.00000000000E+00  0.00000000000E+00  0.27186474738E+04  0.27186474738E+04  0.00000000000E+00 0.  1.
         -2   -1    0    0    0  501 -0.00000000000E+00 -0.00000000000E+00 -0.47587340062E+03  0.47587340062E+03  0.00000000000E+00 0. -1.
    2000013    1    1    2    0    0  0.61967563338E+03 -0.46859025598E+02  0.12210647691E+04  0.16672410831E+04  0.95000000000E+03 0.  0.
   -2000013    1    1    2    0    0 -0.61967563338E+03  0.46859025598E+02  0.10217093041E+04  0.15272797913E+04  0.95000000000E+03 0.  0.
<mgrwt>
<rscale>  0 0.22748468E+04</rscale>
<asrwt>0</asrwt>
<pdfrwt beam="1">  1        2 0.41825345E+00 0.22748468E+04</pdfrwt>
<pdfrwt beam="2">  1       -2 0.73211294E-01 0.22748468E+04</pdfrwt>
<totfact> 0.39619460E+00</totfact>
</mgrwt>
</event>
<event>
 4    1  0.1295381E-008  0.2078396E+04  0.7816531E-02  0.8570820E-01
         -1   -1    0    0    0  501 -0.00000000000E+00  0.00000000000E+00  0.47641199260E+03  0.47641199260E+03  0.00000000000E+00 0. -1.
          1   -1    0    0  501    0  0.00000000000E+00 -0.00000000000E+00 -0.22668041851E+04  0.22668041851E+04  0.00000000000E+00 0.  1.
    2000013    1    1    2    0    0  0.39507228771E+03 -0.36613669817E+02 -0.70849128426E+03  0.12497530049E+04  0.95000000000E+03 0.  0.
   -2000013    1    1    2    0    0 -0.39507228771E+03  0.36613669817E+02 -0.10819009082E+04  0.14934631728E+04  0.95000000000E+03 0.  0.
<mgrwt>
<rscale>  0 0.20783962E+04</rscale>
<asrwt>0</asrwt>
<pdfrwt beam="2">  1        1 0.34873910E+00 0.20783962E+04</pdfrwt>
<pdfrwt beam="1">  1       -1 0.73294155E-01 0.20783962E+04</pdfrwt>
<totfact> 0.33899129E+00</totfact>
</mgrwt>
</event>
<event>
 4    1  0.1295381E-008  0.3437790E+04  0.7816531E-02  0.8128693E-01
         -1   -1    0    0    0  501 -0.00000000000E+00  0.00000000000E+00  0.12631133704E+04  0.12631133704E+04  0.00000000000E+00 0. -1.
          1   -1    0    0  501    0  0.00000000000E+00 -0.00000000000E+00 -0.23391403307E+04  0.23391403307E+04  0.00000000000E+00 0.  1.
    2000013    1    1    2    0    0  0.13502784801E+04  0.44526672041E+03 -0.35476126067E+03  0.17463876941E+04  0.95000000000E+03 0.  0.
   -2000013    1    1    2    0    0 -0.13502784801E+04 -0.44526672041E+03 -0.72126569971E+03  0.18558660070E+04  0.95000000000E+03 0.  0.
<mgrwt>
<rscale>  0 0.34377897E+04</rscale>
<asrwt>0</asrwt>
<pdfrwt beam="2">  1        1 0.35986774E+00 0.34377897E+04</pdfrwt>
<pdfrwt beam="1">  1       -1 0.19432514E+00 0.34377897E+04</pdfrwt>
<totfact> 0.23643218E-01</totfact>
</mgrwt>
</event>
<event>
 4    1  0.1295381E-008  0.2640610E+04  0.7816531E-02  0.8354536E-01
          2   -1    0    0  501    0  0.00000000000E+00  0.00000000000E+00  0.93889056582E+03  0.93889056582E+03  0.00000000000E+00 0. -1.
         -2   -1    0    0    0  501 -0.00000000000E+00 -0.00000000000E+00 -0.18566651462E+04  0.18566651462E+04  0.00000000000E+00 0.  1.
    2000013    1    1    2    0    0 -0.88209068753E+03  0.81510561713E+01 -0.19410143446E+03  0.13108492620E+04  0.95000000000E+03 0.  0.
   -2000013    1    1    2    0    0  0.88209068753E+03 -0.81510561713E+01 -0.72367314596E+03  0.14847064501E+04  0.95000000000E+03 0.  0.
<mgrwt>
<rscale>  0 0.26406101E+04</rscale>
<asrwt>0</asrwt>
<pdfrwt beam="1">  1        2 0.14444470E+00 0.26406101E+04</pdfrwt>
<pdfrwt beam="2">  1       -2 0.28564079E+00 0.26406101E+04</pdfrwt>
<totfact> 0.94706295E-01</totfact>
</mgrwt>
</event>
<event>
 4    1  0.1295381E-008  0.2140922E+04  0.7816531E-02  0.8543428E-01
         -2   -1    0    0    0  501 -0.00000000000E+00  0.00000000000E+00  0.52369731244E+03  0.52369731244E+03  0.00000000000E+00 0. -1.
          2   -1    0    0  501    0  0.00000000000E+00 -0.00000000000E+00 -0.21880707230E+04  0.21880707230E+04  0.00000000000E+00 0.  1.
    2000013    1    1    2    0    0 -0.61762255962E+02 -0.29874559939E+03 -0.13232808616E+04  0.16572977246E+04  0.95000000000E+03 0.  0.
   -2000013    1    1    2    0    0  0.61762255962E+02  0.29874559939E+03 -0.34109254898E+03  0.10544703108E+04  0.95000000000E+03 0.  0.
<mgrwt>
<rscale>  0 0.21409220E+04</rscale>
<asrwt>0</asrwt>
<pdfrwt beam="2">  1        2 0.33662626E+00 0.21409220E+04</pdfrwt>
<pdfrwt beam="1">  1       -2 0.80568818E-01 0.21409220E+04</pdfrwt>
<totfact> 0.65521325E+00</totfact>
</mgrwt>
</event>
<event>
 4    1  0.1295381E-008  0.2338834E+04  0.7816531E-02  0.8462765E-01
         -2   -1    0    0    0  501 -0.00000000000E+00  0.00000000000E+00  0.92892207107E+03  0.92892207107E+03  0.00000000000E+00 0. -1.
          2   -1    0    0  501    0  0.00000000000E+00 -0.00000000000E+00 -0.14721758555E+04  0.14721758555E+04  0.00000000000E+00 0.  1.
    2000013    1    1    2    0    0 -0.59299116559E+03 -0.24515890512E+03 -0.34623492797E+02  0.11469264133E+04  0.95000000000E+03 0.  0.
   -2000013    1    1    2    0    0  0.59299116559E+03  0.24515890512E+03 -0.50863029165E+03  0.12541715133E+04  0.95000000000E+03 0.  0.
<mgrwt>
<rscale>  0 0.23388344E+04</rscale>
<asrwt>0</asrwt>
<pdfrwt beam="2">  1        2 0.22648859E+00 0.23388344E+04</pdfrwt>
<pdfrwt beam="1">  1       -2 0.14291109E+00 0.23388344E+04</pdfrwt>
<totfact> 0.40498425E+00</totfact>
</mgrwt>
</event>
<event>
 4    1  0.1295381E-008  0.2073782E+04  0.7816531E-02  0.8572881E-01
         -2   -1    0    0    0  501 -0.00000000000E+00  0.00000000000E+00  0.81646896308E+03  0.81646896308E+03  0.00000000000E+00 0.  1.
          2   -1    0    0  501    0  0.00000000000E+00 -0.00000000000E+00 -0.13168207228E+04  0.13168207228E+04  0.00000000000E+00 0. -1.
    2000013    1    1    2    0    0 -0.14940768469E+03 -0.31023634167E+03 -0.48938676856E+03  0.11227504857E+04  0.95000000000E+03 0.  0.
   -2000013    1    1    2    0    0  0.14940768469E+03  0.31023634167E+03 -0.10964991123E+02  0.10105392001E+04  0.95000000000E+03 0.  0.
<mgrwt>
<rscale>  0 0.20737823E+04</rscale>
<asrwt>0</asrwt>
<pdfrwt beam="2">  1        2 0.20258780E+00 0.20737823E+04</pdfrwt>
<pdfrwt beam="1">  1       -2 0.12561061E+00 0.20737823E+04</pdfrwt>
<totfact> 0.70709921E+00</totfact>
</mgrwt>
</event>
<event>
 4    1  0.1295381E-008  0.2386946E+04  0.7816531E-02  0.8444407E-01
          1   -1    0    0  501    0  0.00000000000E+00  0.00000000000E+00  0.19777485477E+04  0.19777485477E+04  0.00000000000E+00 0. -1.
         -1   -1    0    0    0  501 -0.00000000000E+00 -0.00000000000E+00 -0.72020158523E+03  0.72020158523E+03  0.00000000000E+00 0.  1.
    2000013    1    1    2    0    0  0.53570975917E+03  0.48332351648E+03  0.58816034643E+03  0.13300447965E+04  0.95000000000E+03 0.  0.
   -2000013    1    1    2    0    0 -0.53570975917E+03 -0.48332351648E+03  0.66938661605E+03  0.13679053364E+04  0.95000000000E+03 0.  0.
<mgrwt>
<rscale>  0 0.23869459E+04</rscale>
<asrwt>0</asrwt>
<pdfrwt beam="1">  1        1 0.30426901E+00 0.23869459E+04</pdfrwt>
<pdfrwt beam="2">  1       -1 0.11080024E+00 0.23869459E+04</pdfrwt>
<totfact> 0.20761606E+00</totfact>
</mgrwt>
</event>
<event>
 4    1  0.1295381E-008  0.2362680E+04  0.7816531E-02  0.8453609E-01
          2   -1    0    0  501    0  0.00000000000E+00  0.00000000000E+00  0.22108118165E+04  0.22108118165E+04  0.00000000000E+00 0.  1.
         -2   -1    0    0    0  501 -0.00000000000E+00 -0.00000000000E+00 -0.63124522447E+03  0.63124522447E+03  0.00000000000E+00 0. -1.
    2000013    1    1    2    0    0 -0.51479593968E+03 -0.26160409612E+03  0.30920764391E+03  0.11539328099E+04  0.95000000000E+03 0.  0.
   -2000013    1    1    2    0    0  0.51479593968E+03  0.26160409612E+03  0.12703589481E+04  0.16881242311E+04  0.95000000000E+03 0.  0.
<mgrwt>
<rscale>  0 0.23626802E+04</rscale>
<asrwt>0</asrwt>
<pdfrwt beam="1">  1        2 0.34012489E+00 0.23626802E+04</pdfrwt>
<pdfrwt beam="2">  1       -2 0.97114651E-01 0.23626802E+04</pdfrwt>
<totfact> 0.40646073E+00</totfact>
</mgrwt>
</event>
<event>
 4    1  0.1295381E-008  0.2900586E+04  0.7816531E-02  0.8272703E-01
         -2   -1    0    0    0  501 -0.00000000000E+00  0.00000000000E+00  0.68289038816E+03  0.68289038816E+03  0.00000000000E+00 0. -1.
          2   -1    0    0  501    0  0.00000000000E+00 -0.00000000000E+00 -0.30800688191E+04  0.30800688191E+04  0.00000000000E+00 0.  1.
    2000013    1    1    2    0    0 -0.10280957845E+04 -0.62080822781E+02 -0.16840232126E+04  0.21907234310E+04  0.95000000000E+03 0.  0.
   -2000013    1    1    2    0    0  0.10280957845E+04  0.62080822781E+02 -0.71315521843E+03  0.15722357763E+04  0.95000000000E+03 0.  0.
<mgrwt>
<rscale>  0 0.29005857E+04</rscale>
<asrwt>0</asrwt>
<pdfrwt beam="2">  1        2 0.47385673E+00 0.29005857E+04</pdfrwt>
<pdfrwt beam="1">  1       -2 0.10506006E+00 0.29005857E+04</pdfrwt>
<totfact> 0.98116528E-01</totfact>
</mgrwt>
</event>
<event>
 4    1  0.1295381E-008  0.3252156E+04  0.7816531E-02  0.8175177E-01
          2   -1    0    0  501    0  0.00000000000E+00  0.00000000000E+00  0.33306638014E+04  0.33306638014E+04  0.00000000000E+00 0.  1.
         -2   -1    0    0    0  501 -0.00000000000E+00 -0.00000000000E+00 -0.79387458003E+03  0.79387458003E+03  0.00000000000E+00 0. -1.
    2000013    1    1    2    0    0  0.67154223613E+03 -0.12654010469E+03  0.27002499182E+04  0.29429289821E+04  0.95000000000E+03 0.  0.
   -2000013    1    1    2    0    0 -0.67154223613E+03  0.12654010469E+03 -0.16346069689E+03  0.11816093993E+04  0.95000000000E+03 0.  0.
<mgrwt>
<rscale>  0 0.32521558E+04</rscale>
<asrwt>0</asrwt>
<pdfrwt beam="1">  1        2 0.51240981E+00 0.32521558E+04</pdfrwt>
<pdfrwt beam="2">  1       -2 0.12213455E+00 0.32521558E+04</pdfrwt>
<totfact> 0.45213766E-01</totfact>
</mgrwt>
</event>
<event>
 4    1  0.1295381E-008  0.2192719E+04  0.7816531E-02  0.8521465E-01
          2   -1    0    0  501    0  0.00000000000E+00  0.00000000000E+00  0.68285027622E+03  0.68285027622E+03  0.00000000000E+00 0.  1.
         -2   -1    0    0    0  501 -0.00000000000E+00 -0.00000000000E+00 -0.17602754875E+04  0.17602754875E+04  0.00000000000E+00 0. -1.
    2000013    1    1    2    0    0  0.24843418583E+03  0.48649538579E+03 -0.50163642558E+03  0.12052121840E+04  0.95000000000E+03 0.  0.
   -2000013    1    1    2    0    0 -0.24843418583E+03 -0.48649538579E+03 -0.57578878574E+03  0.12379135797E+04  0.95000000000E+03 0.  0.
<mgrwt>
<rscale>  0 0.21927194E+04</rscale>
<asrwt>0</asrwt>
<pdfrwt beam="1">  1        2 0.10505389E+00 0.21927194E+04</pdfrwt>
<pdfrwt beam="2">  1       -2 0.27081162E+00 0.21927194E+04</pdfrwt>
<totfact> 0.18528886E+00</totfact>
</mgrwt>
</event>
<event>
 4    1  0.1295381E-008  0.2332739E+04  0.7816531E-02  0.8465123E-01
          2   -1    0    0  501    0  0.00000000000E+00  0.00000000000E+00  0.14077418895E+04  0.14077418895E+04  0.00000000000E+00 0.  1.
         -2   -1    0    0    0  501 -0.00000000000E+00 -0.00000000000E+00 -0.96638276712E+03  0.96638276712E+03  0.00000000000E+00 0. -1.
    2000013    1    1    2    0    0 -0.31617449195E+03 -0.59068786909E+03  0.31744013591E+03  0.12050505002E+04  0.95000000000E+03 0.  0.
   -2000013    1    1    2    0    0  0.31617449195E+03  0.59068786909E+03  0.12391898645E+03  0.11690741564E+04  0.95000000000E+03 0.  0.
<mgrwt>
<rscale>  0 0.23327387E+04</rscale>
<asrwt>0</asrwt>
<pdfrwt beam="1">  1        2 0.21657568E+00 0.23327387E+04</pdfrwt>
<pdfrwt beam="2">  1       -2 0.14867427E+00 0.23327387E+04</pdfrwt>
<totfact> 0.39734861E+00</totfact>
</mgrwt>
</event>
<event>
 4    1  0.1295381E-008  0.2479298E+04  0.7816531E-02  0.8410398E-01
         -1   -1    0    0    0  501 -0.00000000000E+00  0.00000000000E+00  0.11251417163E+04  0.11251417163E+04  0.00000000000E+00 0. -1.
          1   -1    0    0  501    0  0.00000000000E+00 -0.00000000000E+00 -0.13658097287E+04  0.13658097287E+04  0.00000000000E+00 0.  1.
    2000013    1    1    2    0    0 -0.33971724114E+03  0.50854652556E+03 -0.63283177080E+03  0.12949916690E+04  0.95000000000E+03 0.  0.
   -2000013    1    1    2    0    0  0.33971724114E+03 -0.50854652556E+03  0.39216375840E+03  0.11959597761E+04  0.95000000000E+03 0.  0.
<mgrwt>
<rscale>  0 0.24792979E+04</rscale>
<asrwt>0</asrwt>
<pdfrwt beam="2">  1        1 0.21012457E+00 0.24792979E+04</pdfrwt>
<pdfrwt beam="1">  1       -1 0.17309872E+00 0.24792979E+04</pdfrwt>
<totfact> 0.16880523E+00</totfact>
</mgrwt>
</event>
<event>
 4    1  0.1295381E-008  0.2375442E+04  0.7816531E-02  0.8448755E-01
          2   -1    0    0  501    0  0.00000000000E+00  0.00000000000E+00  0.31222696954E+04  0.31222696954E+04  0.00000000000E+00 0.  1.
         -2   -1    0    0    0  501 -0.00000000000E+00 -0.00000000000E+00 -0.45181267665E+03  0.45181267665E+03  0.00000000000E+00 0. -1.
    2000013    1    1    2    0    0  0.25064758886E+03 -0.66715702330E+03  0.13594109322E+04  0.18051096338E+04  0.95000000000E+03 0.  0.
   -2000013    1    1    2    0    0 -0.25064758886E+03  0.66715702330E+03  0.13110460866E+04  0.17689727383E+04  0.95000000000E+03 0.  0.
<mgrwt>
<rscale>  0 0.23754419E+04</rscale>
<asrwt>0</asrwt>
<pdfrwt beam="1">  1        2 0.48034917E+00 0.23754419E+04</pdfrwt>
<pdfrwt beam="2">  1       -2 0.69509644E-01 0.23754419E+04</pdfrwt>
<totfact> 0.24788774E+00</totfact>
</mgrwt>
</event>
<event>
 4    1  0.1295381E-008  0.2979107E+04  0.7816531E-02  0.8249722E-01
         -2   -1    0    0    0  501 -0.00000000000E+00  0.00000000000E+00  0.65265465067E+03  0.65265465067E+03  0.00000000000E+00 0. -1.
          2   -1    0    0  501    0  0.00000000000E+00 -0.00000000000E+00 -0.33996074077E+04  0.33996074077E+04  0.00000000000E+00 0.  1.
    2000013    1    1    2    0    0  0.30013443547E+03  0.10365989982E+04 -0.84377064944E+03  0.16670534098E+04  0.95000000000E+03 0.  0.
   -2000013    1    1    2    0    0 -0.30013443547E+03 -0.10365989982E+04 -0.19031821076E+04  0.23852086485E+04  0.95000000000E+03 0.  0.
<mgrwt>
<rscale>  0 0.29791070E+04</rscale>
<asrwt>0</asrwt>
<pdfrwt beam="2">  1        2 0.52301654E+00 0.29791070E+04</pdfrwt>
<pdfrwt beam="1">  1       -2 0.10040841E+00 0.29791070E+04</pdfrwt>
<totfact> 0.66870014E-01</totfact>
</mgrwt>
</event>
<event>
 4    1  0.1295381E-008  0.2079577E+04  0.7816531E-02  0.8570294E-01
         -2   -1    0    0    0  501 -0.00000000000E+00  0.00000000000E+00  0.47206325536E+03  0.47206325536E+03  0.00000000000E+00 0. -1.
          2   -1    0    0  501    0  0.00000000000E+00 -0.00000000000E+00 -0.22902865418E+04  0.22902865418E+04  0.00000000000E+00 0.  1.
    2000013    1    1    2    0    0  0.29838702444E+03 -0.29392076285E+03 -0.98467313193E+03  0.14309106918E+04  0.95000000000E+03 0.  0.
   -2000013    1    1    2    0    0 -0.29838702444E+03  0.29392076285E+03 -0.83355015453E+03  0.13314391054E+04  0.95000000000E+03 0.  0.
<mgrwt>
<rscale>  0 0.20795770E+04</rscale>
<asrwt>0</asrwt>
<pdfrwt beam="2">  1        2 0.35235178E+00 0.20795770E+04</pdfrwt>
<pdfrwt beam="1">  1       -2 0.72625115E-01 0.20795770E+04</pdfrwt>
<totfact> 0.72672939E+00</totfact>
</mgrwt>
</event>
<event>
 4    1  0.1295381E-008  0.3308393E+04  0.7816531E-02  0.8160763E-01
          1   -1    0    0  501    0  0.00000000000E+00  0.00000000000E+00  0.32794293407E+04  0.32794293407E+04  0.00000000000E+00 0.  1.
         -1   -1    0    0    0  501 -0.00000000000E+00 -0.00000000000E+00 -0.83440330010E+03  0.83440330010E+03  0.00000000000E+00 0. -1.
    2000013    1    1    2    0    0 -0.97498198415E+03 -0.14585070285E+03  0.68038873902E+02  0.13707631398E+04  0.95000000000E+03 0.  0.
   -2000013    1    1    2    0    0  0.97498198415E+03  0.14585070285E+03  0.23769871667E+04  0.27430695011E+04  0.95000000000E+03 0.  0.
<mgrwt>
<rscale>  0 0.33083934E+04</rscale>
<asrwt>0</asrwt>
<pdfrwt beam="1">  1        1 0.50452759E+00 0.33083934E+04</pdfrwt>
<pdfrwt beam="2">  1       -1 0.12836974E+00 0.33083934E+04</pdfrwt>
<totfact> 0.16051467E-01</totfact>
</mgrwt>
</event>
<event>
 4    1  0.1295381E-008  0.2204232E+04  0.7816531E-02  0.8516669E-01
          2   -1    0    0  501    0  0.00000000000E+00  0.00000000000E+00  0.50637729266E+03  0.50637729266E+03  0.00000000000E+00 0.  1.
         -2   -1    0    0    0  501 -0.00000000000E+00 -0.00000000000E+00 -0.23987237014E+04  0.23987237014E+04  0.00000000000E+00 0. -1.
    2000013    1    1    2    0    0 -0.23774332183E+03  0.45461883567E+03 -0.12377953263E+04  0.16425094955E+04  0.95000000000E+03 0.  0.
   -2000013    1    1    2    0    0  0.23774332183E+03 -0.45461883567E+03 -0.65455108240E+03  0.12625914986E+04  0.95000000000E+03 0.  0.
<mgrwt>
<rscale>  0 0.22042316E+04</rscale>
<asrwt>0</asrwt>
<pdfrwt beam="1">  1        2 0.77904198E-01 0.22042316E+04</pdfrwt>
<pdfrwt beam="2">  1       -2 0.36903442E+00 0.22042316E+04</pdfrwt>
<totfact> 0.65392892E-01</totfact>
</mgrwt>
</event>
<event>
 4    1  0.1295381E-008  0.2602100E+04  0.7816531E-02  0.8367488E-01
         -2   -1    0    0    0  501 -0.00000000000E+00  0.00000000000E+00  0.12621615189E+04  0.12621615189E+04  0.00000000000E+00 0. -1.
          2   -1    0    0  501    0  0.00000000000E+00 -0.00000000000E+00 -0.13411363545E+04  0.13411363545E+04  0.00000000000E+00 0.  1.
    2000013    1    1    2    0    0  0.40306153874E+03 -0.26213684616E+03  0.70855759557E+03  0.12789559009E+04  0.95000000000E+03 0.  0.
   -2000013    1    1    2    0    0 -0.40306153874E+03  0.26213684616E+03 -0.78753243121E+03  0.13243419726E+04  0.95000000000E+03 0.  0.
<mgrwt>
<rscale>  0 0.26020997E+04</rscale>
<asrwt>0</asrwt>
<pdfrwt beam="2">  1        2 0.20632867E+00 0.26020997E+04</pdfrwt>
<pdfrwt beam="1">  1       -2 0.19417870E+00 0.26020997E+04</pdfrwt>
<totfact> 0.20111658E+00</totfact>
</mgrwt>
</event>
<event>
 4    1  0.1295381E-008  0.2952301E+04  0.7816531E-02  0.8257484E-01
         -2   -1    0    0    0  501 -0.00000000000E+00  0.00000000000E+00  0.23777756685E+04  0.23777756685E+04  0.00000000000E+00 0. -1.
          2   -1    0    0  501    0  0.00000000000E+00 -0.00000000000E+00 -0.91641096630E+03  0.91641096630E+03  0.00000000000E+00 0.  1.
    2000013    1    1    2    0    0  0.63464717033E+03 -0.46293732507E+03 -0.17541015267E+03  0.12451332135E+04  0.95000000000E+03 0.  0.
   -2000013    1    1    2    0    0 -0.63464717033E+03  0.46293732507E+03  0.16367748549E+04  0.20490534213E+04  0.95000000000E+03 0.  0.
<mgrwt>
<rscale>  0 0.29523006E+04</rscale>
<asrwt>0</asrwt>
<pdfrwt beam="2">  1        2 0.14098630E+00 0.29523006E+04</pdfrwt>
<pdfrwt beam="1">  1       -2 0.36581164E+00 0.29523006E+04</pdfrwt>
<totfact> 0.30323173E-01</totfact>
</mgrwt>
</event>
<event>
 4    1  0.1295381E-008  0.2080508E+04  0.7816531E-02  0.8569879E-01
         -2   -1    0    0    0  501 -0.00000000000E+00  0.00000000000E+00  0.75556643503E+03  0.75556643503E+03  0.00000000000E+00 0. -1.
          2   -1    0    0  501    0  0.00000000000E+00 -0.00000000000E+00 -0.14322085202E+04  0.14322085202E+04  0.00000000000E+00 0.  1.
    2000013    1    1    2    0    0 -0.38736651326E+03  0.17071207693E+03 -0.36020903932E+03  0.11006570678E+04  0.95000000000E+03 0.  0.
   -2000013    1    1    2    0    0  0.38736651326E+03 -0.17071207693E+03 -0.31643304588E+03  0.10871178875E+04  0.95000000000E+03 0.  0.
<mgrwt>
<rscale>  0 0.20805083E+04</rscale>
<asrwt>0</asrwt>
<pdfrwt beam="2">  1        2 0.22033977E+00 0.20805083E+04</pdfrwt>
<pdfrwt beam="1">  1       -2 0.11624099E+00 0.20805083E+04</pdfrwt>
<totfact> 0.73544045E+00</totfact>
</mgrwt>
</event>
<event>
 4    1  0.1295381E-008  0.2119852E+04  0.7816531E-02  0.8552548E-01
          2   -1    0    0  501    0  0.00000000000E+00  0.00000000000E+00  0.18034142261E+04  0.18034142261E+04  0.00000000000E+00 0.  1.
         -2   -1    0    0    0  501 -0.00000000000E+00 -0.00000000000E+00 -0.62295360029E+03  0.62295360029E+03  0.00000000000E+00 0. -1.
    2000013    1    1    2    0    0 -0.27140059157E+01  0.45209063413E+03  0.73747887592E+03  0.12848223222E+04  0.95000000000E+03 0.  0.
   -2000013    1    1    2    0    0  0.27140059157E+01 -0.45209063413E+03  0.44298174988E+03  0.11415455041E+04  0.95000000000E+03 0.  0.
<mgrwt>
<rscale>  0 0.21198522E+04</rscale>
<asrwt>0</asrwt>
<pdfrwt beam="1">  1        2 0.27744834E+00 0.21198522E+04</pdfrwt>
<pdfrwt beam="2">  1       -2 0.95839016E-01 0.21198522E+04</pdfrwt>
<totfact> 0.72167646E+00</totfact>
</mgrwt>
</event>
<event>
 4    1  0.1295381E-008  0.2430385E+04  0.7816531E-02  0.8428215E-01
         -2   -1    0    0    0  501 -0.00000000000E+00  0.00000000000E+00  0.91385809380E+03  0.91385809380E+03  0.00000000000E+00 0. -1.
          2   -1    0    0  501    0  0.00000000000E+00 -0.00000000000E+00 -0.16158883154E+04  0.16158883154E+04  0.00000000000E+00 0.  1.
    2000013    1    1    2    0    0  0.41452955386E+03 -0.55651842741E+03 -0.34194680911E+02  0.11769523301E+04  0.95000000000E+03 0.  0.
   -2000013    1    1    2    0    0 -0.41452955386E+03  0.55651842741E+03 -0.66783554068E+03  0.13527940791E+04  0.95000000000E+03 0.  0.
<mgrwt>
<rscale>  0 0.24303848E+04</rscale>
<asrwt>0</asrwt>
<pdfrwt beam="2">  1        2 0.24859820E+00 0.24303848E+04</pdfrwt>
<pdfrwt beam="1">  1       -2 0.14059355E+00 0.24303848E+04</pdfrwt>
<totfact> 0.34819743E+00</totfact>
</mgrwt>
</event>
<event>
 4    1  0.1295381E-008  0.2728210E+04  0.7816531E-02  0.8325910E-01
         -2   -1    0    0    0  501 -0.00000000000E+00  0.00000000000E+00  0.57159787549E+03  0.57159787549E+03  0.00000000000E+00 0. -1.
          2   -1    0    0  501    0  0.00000000000E+00 -0.00000000000E+00 -0.32554039099E+04  0.32554039099E+04  0.00000000000E+00 0.  1.
    2000013    1    1    2    0    0 -0.62039772862E+03 -0.66583929191E+03 -0.18477632247E+04  0.22682513615E+04  0.95000000000E+03 0.  0.
   -2000013    1    1    2    0    0  0.62039772862E+03  0.66583929191E+03 -0.83604280967E+03  0.15587504239E+04  0.95000000000E+03 0.  0.
<mgrwt>
<rscale>  0 0.27282096E+04</rscale>
<asrwt>0</asrwt>
<pdfrwt beam="2">  1        2 0.50083137E+00 0.27282096E+04</pdfrwt>
<pdfrwt beam="1">  1       -2 0.87938134E-01 0.27282096E+04</pdfrwt>
<totfact> 0.11633310E+00</totfact>
</mgrwt>
</event>
<event>
 4    1  0.1295381E-008  0.3468343E+04  0.7816531E-02  0.8121333E-01
          1   -1    0    0  501    0  0.00000000000E+00  0.00000000000E+00  0.17363957372E+04  0.17363957372E+04  0.00000000000E+00 0.  1.
         -1   -1    0    0    0  501 -0.00000000000E+00 -0.00000000000E+00 -0.17319505905E+04  0.17319505905E+04  0.00000000000E+00 0. -1.
    2000013    1    1    2    0    0  0.22228456777E+03 -0.14061249956E+04 -0.27751626633E+03  0.17338146413E+04  0.95000000000E+03 0.  0.
   -2000013    1    1    2    0    0 -0.22228456777E+03  0.14061249956E+04  0.28196141300E+03  0.17345316863E+04  0.95000000000E+03 0.  0.
<mgrwt>
<rscale>  0 0.34683435E+04</rscale>
<asrwt>0</asrwt>
<pdfrwt beam="1">  1        1 0.26713781E+00 0.34683435E+04</pdfrwt>
<pdfrwt beam="2">  1       -1 0.26645394E+00 0.34683435E+04</pdfrwt>
<totfact> 0.20059888E-01</totfact>
</mgrwt>
</event>
<event>
 4    1  0.1295381E-008  0.3241907E+04  0.7816531E-02  0.8177837E-01
          2   -1    0    0  501    0  0.00000000000E+00  0.00000000000E+00  0.18291944691E+04  0.18291944691E+04  0.00000000000E+00 0.  1.
         -2   -1    0    0    0  501 -0.00000000000E+00 -0.00000000000E+00 -0.14364188794E+04  0.14364188794E+04  0.00000000000E+00 0. -1.
    2000013    1    1    2    0    0  0.60659413408E+03  0.11161521362E+04 -0.13957389560E+03  0.15923984762E+04  0.95000000000E+03 0.  0.
   -2000013    1    1    2    0    0 -0.60659413408E+03 -0.11161521362E+04  0.53234948524E+03  0.16732148724E+04  0.95000000000E+03 0.  0.
<mgrwt>
<rscale>  0 0.32419065E+04</rscale>
<asrwt>0</asrwt>
<pdfrwt beam="1">  1        2 0.28141453E+00 0.32419065E+04</pdfrwt>
<pdfrwt beam="2">  1       -2 0.22098752E+00 0.32419065E+04</pdfrwt>
<totfact> 0.67964420E-01</totfact>
</mgrwt>
</event>
<event>
 4    1  0.1295381E-008  0.2249233E+04  0.7816531E-02  0.8498211E-01
          2   -1    0    0  501    0  0.00000000000E+00  0.00000000000E+00  0.19030258677E+04  0.19030258677E+04  0.00000000000E+00 0.  1.
         -2   -1    0    0    0  501 -0.00000000000E+00 -0.00000000000E+00 -0.66460572334E+03  0.66460572334E+03  0.00000000000E+00 0. -1.
    2000013    1    1    2    0    0  0.24767441310E+03  0.54824427755E+03  0.59793046629E+03  0.12735522154E+04  0.95000000000E+03 0.  0.
   -2000013    1    1    2    0    0 -0.24767441310E+03 -0.54824427755E+03  0.64048967807E+03  0.12940793757E+04  0.95000000000E+03 0.  0.
<mgrwt>
<rscale>  0 0.22492327E+04</rscale>
<asrwt>0</asrwt>
<pdfrwt beam="1">  1        2 0.29277321E+00 0.22492327E+04</pdfrwt>
<pdfrwt beam="2">  1       -2 0.10224703E+00 0.22492327E+04</pdfrwt>
<totfact> 0.53945096E+00</totfact>
</mgrwt>
</event>
<event>
 4    1  0.1295381E-008  0.2177606E+04  0.7816531E-02  0.8527807E-01
          1   -1    0    0  501    0  0.00000000000E+00  0.00000000000E+00  0.25603345267E+04  0.25603345267E+04  0.00000000000E+00 0.  1.
         -1   -1    0    0    0  501 -0.00000000000E+00 -0.00000000000E+00 -0.46302247918E+03  0.46302247918E+03  0.00000000000E+00 0. -1.
    2000013    1    1    2    0    0 -0.15977009702E+03  0.45659896405E+03  0.74137605500E+03  0.12985174442E+04  0.95000000000E+03 0.  0.
   -2000013    1    1    2    0    0  0.15977009702E+03 -0.45659896405E+03  0.13559359925E+04  0.17248395617E+04  0.95000000000E+03 0.  0.
<mgrwt>
<rscale>  0 0.21776064E+04</rscale>
<asrwt>0</asrwt>
<pdfrwt beam="1">  1        1 0.39389761E+00 0.21776064E+04</pdfrwt>
<pdfrwt beam="2">  1       -1 0.71234229E-01 0.21776064E+04</pdfrwt>
<totfact> 0.22363265E+00</totfact>
</mgrwt>
</event>
<event>
 4    1  0.1295381E-008  0.2879585E+04  0.7816531E-02  0.8278977E-01
          2   -1    0    0  501    0  0.00000000000E+00  0.00000000000E+00  0.15786512463E+04  0.15786512463E+04  0.00000000000E+00 0. -1.
         -2   -1    0    0    0  501 -0.00000000000E+00 -0.00000000000E+00 -0.13131480287E+04  0.13131480287E+04  0.00000000000E+00 0.  1.
    2000013    1    1    2    0    0  0.25288372560E+03 -0.76816210465E+03 -0.58896181430E+03  0.13796373496E+04  0.95000000000E+03 0.  0.
   -2000013    1    1    2    0    0 -0.25288372560E+03  0.76816210465E+03  0.85446503196E+03  0.15121619254E+04  0.95000000000E+03 0.  0.
<mgrwt>
<rscale>  0 0.28795852E+04</rscale>
<asrwt>0</asrwt>
<pdfrwt beam="1">  1        2 0.24286942E+00 0.28795852E+04</pdfrwt>
<pdfrwt beam="2">  1       -2 0.20202277E+00 0.28795852E+04</pdfrwt>
<totfact> 0.12785514E+00</totfact>
</mgrwt>
</event>
<event>
 4    1  0.1295381E-008  0.2270590E+04  0.7816531E-02  0.8489608E-01
         -2   -1    0    0    0  501 -0.00000000000E+00  0.00000000000E+00  0.64467292414E+03  0.64467292414E+03  0.00000000000E+00 0. -1.
          2   -1    0    0  501    0  0.00000000000E+00 -0.00000000000E+00 -0.19993005751E+04  0.19993005751E+04  0.00000000000E+00 0.  1.
    2000013    1    1    2    0    0  0.12905703963E+03 -0.56705131893E+03 -0.42168727903E+03  0.11910176653E+04  0.95000000000E+03 0.  0.
   -2000013    1    1    2    0    0 -0.12905703963E+03  0.56705131893E+03 -0.93294037194E+03  0.14529558339E+04  0.95000000000E+03 0.  0.
<mgrwt>
<rscale>  0 0.22705902E+04</rscale>
<asrwt>0</asrwt>
<pdfrwt beam="2">  1        2 0.30758470E+00 0.22705902E+04</pdfrwt>
<pdfrwt beam="1">  1       -2 0.99180450E-01 0.22705902E+04</pdfrwt>
<totfact> 0.51182812E+00</totfact>
</mgrwt>
</event>
<event>
 4    1  0.1295381E-008  0.2449701E+04  0.7816531E-02  0.8421127E-01
          2   -1    0    0  501    0  0.00000000000E+00  0.00000000000E+00  0.51230120333E+03  0.51230120333E+03  0.00000000000E+00 0.  1.
         -2   -1    0    0    0  501 -0.00000000000E+00 -0.00000000000E+00 -0.29284704341E+04  0.29284704341E+04  0.00000000000E+00 0. -1.
    2000013    1    1    2    0    0  0.39758290769E+03 -0.65549920442E+03 -0.13485944323E+04  0.18190542373E+04  0.95000000000E+03 0.  0.
   -2000013    1    1    2    0    0 -0.39758290769E+03  0.65549920442E+03 -0.10675747985E+04  0.16217174001E+04  0.95000000000E+03 0.  0.
<mgrwt>
<rscale>  0 0.24497011E+04</rscale>
<asrwt>0</asrwt>
<pdfrwt beam="1">  1        2 0.78815571E-01 0.24497011E+04</pdfrwt>
<pdfrwt beam="2">  1       -2 0.45053391E+00 0.24497011E+04</pdfrwt>
<totfact> 0.18441811E-01</totfact>
</mgrwt>
</event>
<event>
 4    1  0.1295381E-008  0.3051840E+04  0.7816531E-02  0.8229081E-01
         -1   -1    0    0    0  501 -0.00000000000E+00  0.00000000000E+00  0.11613987157E+04  0.11613987157E+04  0.00000000000E+00 0. -1.
          1   -1    0    0  501    0  0.00000000000E+00 -0.00000000000E+00 -0.20048515254E+04  0.20048515254E+04  0.00000000000E+00 0.  1.
    2000013    1    1    2    0    0 -0.72073532465E+03  0.94435633245E+03 -0.29609298402E+03  0.15496578158E+04  0.95000000000E+03 0.  0.
   -2000013    1    1    2    0    0  0.72073532465E+03 -0.94435633245E+03 -0.54735982566E+03  0.16165924253E+04  0.95000000000E+03 0.  0.
<mgrwt>
<rscale>  0 0.30518401E+04</rscale>
<asrwt>0</asrwt>
<pdfrwt beam="2">  1        1 0.30843869E+00 0.30518401E+04</pdfrwt>
<pdfrwt beam="1">  1       -1 0.17867673E+00 0.30518401E+04</pdfrwt>
<totfact> 0.53306523E-01</totfact>
</mgrwt>
</event>
<event>
 4    1  0.1295381E-008  0.2050565E+04  0.7816531E-02  0.8583338E-01
          1   -1    0    0  501    0  0.00000000000E+00  0.00000000000E+00  0.13122033758E+04  0.13122033758E+04  0.00000000000E+00 0. -1.
         -1   -1    0    0    0  501 -0.00000000000E+00 -0.00000000000E+00 -0.80109887050E+03  0.80109887050E+03  0.00000000000E+00 0.  1.
    2000013    1    1    2    0    0 -0.28807692437E+03 -0.60573712812E+02 -0.11613691567E+01  0.99456464738E+03  0.95000000000E+03 0.  0.
   -2000013    1    1    2    0    0  0.28807692437E+03  0.60573712812E+02  0.51226587441E+03  0.11187375989E+04  0.95000000000E+03 0.  0.
<mgrwt>
<rscale>  0 0.20505654E+04</rscale>
<asrwt>0</asrwt>
<pdfrwt beam="1">  1        1 0.20187744E+00 0.20505654E+04</pdfrwt>
<pdfrwt beam="2">  1       -1 0.12324598E+00 0.20505654E+04</pdfrwt>
<totfact> 0.47466749E+00</totfact>
</mgrwt>
</event>
<event>
 4    1  0.1295381E-008  0.2606973E+04  0.7816531E-02  0.8365837E-01
         -2   -1    0    0    0  501 -0.00000000000E+00  0.00000000000E+00  0.75757980640E+03  0.75757980640E+03  0.00000000000E+00 0. -1.
          2   -1    0    0  501    0  0.00000000000E+00 -0.00000000000E+00 -0.22427689621E+04  0.22427689621E+04  0.00000000000E+00 0.  1.
    2000013    1    1    2    0    0  0.53075474574E+03 -0.71694203607E+03 -0.77654093200E+03  0.15169780164E+04  0.95000000000E+03 0.  0.
   -2000013    1    1    2    0    0 -0.53075474574E+03  0.71694203607E+03 -0.70864822371E+03  0.14833707521E+04  0.95000000000E+03 0.  0.
<mgrwt>
<rscale>  0 0.26069726E+04</rscale>
<asrwt>0</asrwt>
<pdfrwt beam="2">  1        2 0.34504138E+00 0.26069726E+04</pdfrwt>
<pdfrwt beam="1">  1       -2 0.11655074E+00 0.26069726E+04</pdfrwt>
<totfact> 0.24639842E+00</totfact>
</mgrwt>
</event>
<event>
 4    1  0.1295381E-008  0.2322053E+04  0.7816531E-02  0.8469276E-01
         -1   -1    0    0    0  501 -0.00000000000E+00  0.00000000000E+00  0.96119966228E+03  0.96119966228E+03  0.00000000000E+00 0. -1.
          1   -1    0    0  501    0  0.00000000000E+00 -0.00000000000E+00 -0.14023958494E+04  0.14023958494E+04  0.00000000000E+00 0.  1.
    2000013    1    1    2    0    0  0.36567230869E+03  0.53768563126E+03 -0.67371455923E+02  0.11531959888E+04  0.95000000000E+03 0.  0.
   -2000013    1    1    2    0    0 -0.36567230869E+03 -0.53768563126E+03 -0.37382473118E+03  0.12103995229E+04  0.95000000000E+03 0.  0.
<mgrwt>
<rscale>  0 0.23220529E+04</rscale>
<asrwt>0</asrwt>
<pdfrwt beam="2">  1        1 0.21575321E+00 0.23220529E+04</pdfrwt>
<pdfrwt beam="1">  1       -1 0.14787687E+00 0.23220529E+04</pdfrwt>
<totfact> 0.25033112E+00</totfact>
</mgrwt>
</event>
<event>
 4    1  0.1295381E-008  0.2075322E+04  0.7816531E-02  0.8572193E-01
         -2   -1    0    0    0  501 -0.00000000000E+00  0.00000000000E+00  0.51729622372E+03  0.51729622372E+03  0.00000000000E+00 0. -1.
          2   -1    0    0  501    0  0.00000000000E+00 -0.00000000000E+00 -0.20814778899E+04  0.20814778899E+04  0.00000000000E+00 0.  1.
    2000013    1    1    2    0    0 -0.41666217902E+03  0.13549282620E+02 -0.75553601543E+03  0.12834039213E+04  0.95000000000E+03 0.  0.
   -2000013    1    1    2    0    0  0.41666217902E+03 -0.13549282620E+02 -0.80864565074E+03  0.13153701924E+04  0.95000000000E+03 0.  0.
<mgrwt>
<rscale>  0 0.20753223E+04</rscale>
<asrwt>0</asrwt>
<pdfrwt beam="2">  1        2 0.32022737E+00 0.20753223E+04</pdfrwt>
<pdfrwt beam="1">  1       -2 0.79584034E-01 0.20753223E+04</pdfrwt>
<totfact> 0.77709383E+00</totfact>
</mgrwt>
</event>
<event>
 4    1  0.1295381E-008  0.2828099E+04  0.7816531E-02  0.8294597E-01
         -2   -1    0    0    0  501 -0.00000000000E+00  0.00000000000E+00  0.69520905505E+03  0.69520905505E+03  0.00000000000E+00 0. -1.
          2   -1    0    0  501    0  0.00000000000E+00 -0.00000000000E+00 -0.28761653048E+04  0.28761653048E+04  0.00000000000E+00 0.  1.
    2000013    1    1    2    0    0  0.25889653467E+03  0.99680170683E+03 -0.13313922362E+04  0.19328078914E+04  0.95000000000E+03 0.  0.
   -2000013    1    1    2    0    0 -0.25889653467E+03 -0.99680170683E+03 -0.84956401356E+03  0.16385664685E+04  0.95000000000E+03 0.  0.
<mgrwt>
<rscale>  0 0.28280991E+04</rscale>
<asrwt>0</asrwt>
<pdfrwt beam="2">  1        2 0.44248697E+00 0.28280991E+04</pdfrwt>
<pdfrwt beam="1">  1       -2 0.10695524E+00 0.28280991E+04</pdfrwt>
<totfact> 0.12679754E+00</totfact>
</mgrwt>
</event>
<event>
 4    1  0.1295381E-008  0.3439105E+04  0.7816531E-02  0.8128375E-01
         -2   -1    0    0    0  501 -0.00000000000E+00  0.00000000000E+00  0.15257144795E+04  0.15257144795E+04  0.00000000000E+00 0. -1.
          2   -1    0    0  501    0  0.00000000000E+00 -0.00000000000E+00 -0.19380173700E+04  0.19380173700E+04  0.00000000000E+00 0.  1.
    2000013    1    1    2    0    0  0.32475095111E+03  0.13196405700E+04 -0.66487613651E+03  0.17864698965E+04  0.95000000000E+03 0.  0.
   -2000013    1    1    2    0    0 -0.32475095111E+03 -0.13196405700E+04  0.25257324600E+03  0.16772619530E+04  0.95000000000E+03 0.  0.
<mgrwt>
<rscale>  0 0.34391052E+04</rscale>
<asrwt>0</asrwt>
<pdfrwt beam="2">  1        2 0.29815652E+00 0.34391052E+04</pdfrwt>
<pdfrwt beam="1">  1       -2 0.23472530E+00 0.34391052E+04</pdfrwt>
<totfact> 0.47716882E-01</totfact>
</mgrwt>
</event>
<event>
 4    1  0.1295381E-008  0.2862513E+04  0.7816531E-02  0.8284119E-01
         -2   -1    0    0    0  501 -0.00000000000E+00  0.00000000000E+00  0.30819640683E+04  0.30819640683E+04  0.00000000000E+00 0. -1.
          2   -1    0    0  501    0  0.00000000000E+00 -0.00000000000E+00 -0.66467202944E+03  0.66467202944E+03  0.00000000000E+00 0.  1.
    2000013    1    1    2    0    0  0.12357801495E+03  0.10252943716E+04  0.83961354395E+03  0.16352219964E+04  0.95000000000E+03 0.  0.
   -2000013    1    1    2    0    0 -0.12357801495E+03 -0.10252943716E+04  0.15776784949E+04  0.21114141013E+04  0.95000000000E+03 0.  0.
<mgrwt>
<rscale>  0 0.28625131E+04</rscale>
<asrwt>0</asrwt>
<pdfrwt beam="2">  1        2 0.10225724E+00 0.28625131E+04</pdfrwt>
<pdfrwt beam="1">  1       -2 0.47414831E+00 0.28625131E+04</pdfrwt>
<totfact> 0.91013226E-02</totfact>
</mgrwt>
</event>
<event>
 4    1  0.1295381E-008  0.3102662E+04  0.7816531E-02  0.8215008E-01
          2   -1    0    0  501    0  0.00000000000E+00  0.00000000000E+00  0.13844172000E+04  0.13844172000E+04  0.00000000000E+00 0.  1.
         -2   -1    0    0    0  501 -0.00000000000E+00 -0.00000000000E+00 -0.17383692914E+04  0.17383692914E+04  0.00000000000E+00 0. -1.
    2000013    1    1    2    0    0 -0.98944715502E+02 -0.48347983786E+03  0.95306428202E+03  0.14333088767E+04  0.95000000000E+03 0.  0.
   -2000013    1    1    2    0    0  0.98944715502E+02  0.48347983786E+03 -0.13070163734E+04  0.16894776148E+04  0.95000000000E+03 0.  0.
<mgrwt>
<rscale>  0 0.31026623E+04</rscale>
<asrwt>0</asrwt>
<pdfrwt beam="1">  1        2 0.21298726E+00 0.31026623E+04</pdfrwt>
<pdfrwt beam="2">  1       -2 0.26744143E+00 0.31026623E+04</pdfrwt>
<totfact> 0.62997577E-01</totfact>
</mgrwt>
</event>
<event>
 4    1  0.1295381E-008  0.1958037E+04  0.7816531E-02  0.8626495E-01
         -2   -1    0    0    0  501 -0.00000000000E+00  0.00000000000E+00  0.27301743155E+03  0.27301743155E+03  0.00000000000E+00 0. -1.
          2   -1    0    0  501    0  0.00000000000E+00 -0.00000000000E+00 -0.35106813045E+04  0.35106813045E+04  0.00000000000E+00 0.  1.
    2000013    1    1    2    0    0 -0.16313746826E+03 -0.86226686366E+02 -0.13326789251E+04  0.16469918010E+04  0.95000000000E+03 0.  0.
   -2000013    1    1    2    0    0  0.16313746826E+03  0.86226686366E+02 -0.19049849479E+04  0.21367069351E+04  0.95000000000E+03 0.  0.
<mgrwt>
<rscale>  0 0.19580370E+04</rscale>
<asrwt>0</asrwt>
<pdfrwt beam="2">  1        2 0.54010481E+00 0.19580370E+04</pdfrwt>
<pdfrwt beam="1">  1       -2 0.42002682E-01 0.19580370E+04</pdfrwt>
<totfact> 0.40264637E+00</totfact>
</mgrwt>
</event>
<event>
 4    1  0.1295381E-008  0.2424187E+04  0.7816531E-02  0.8430503E-01
         -2   -1    0    0    0  501 -0.00000000000E+00  0.00000000000E+00  0.15351700260E+04  0.15351700260E+04  0.00000000000E+00 0. -1.
          2   -1    0    0  501    0  0.00000000000E+00 -0.00000000000E+00 -0.95700875754E+03  0.95700875754E+03  0.00000000000E+00 0.  1.
    2000013    1    1    2    0    0  0.53059921480E+03 -0.11613167068E+02  0.83790832577E+03  0.13734120848E+04  0.95000000000E+03 0.  0.
   -2000013    1    1    2    0    0 -0.53059921480E+03  0.11613167068E+02 -0.25974705729E+03  0.11187666987E+04  0.95000000000E+03 0.  0.
<mgrwt>
<rscale>  0 0.24241874E+04</rscale>
<asrwt>0</asrwt>
<pdfrwt beam="2">  1        2 0.14723212E+00 0.24241874E+04</pdfrwt>
<pdfrwt beam="1">  1       -2 0.23618000E+00 0.24241874E+04</pdfrwt>
<totfact> 0.18857032E+00</totfact>
</mgrwt>
</event>
<event>
 4    1  0.1295381E-008  0.2390509E+04  0.7816531E-02  0.8443065E-01
          2   -1    0    0  501    0  0.00000000000E+00  0.00000000000E+00  0.19705088316E+04  0.19705088316E+04  0.00000000000E+00 0.  1.
         -2   -1    0    0    0  501 -0.00000000000E+00 -0.00000000000E+00 -0.72500733563E+03  0.72500733563E+03  0.00000000000E+00 0. -1.
    2000013    1    1    2    0    0 -0.26541559346E+03  0.66577287734E+03  0.49701351313E+03  0.12896594100E+04  0.95000000000E+03 0.  0.
   -2000013    1    1    2    0    0  0.26541559346E+03 -0.66577287734E+03  0.74848798279E+03  0.14058567572E+04  0.95000000000E+03 0.  0.
<mgrwt>
<rscale>  0 0.23905090E+04</rscale>
<asrwt>0</asrwt>
<pdfrwt beam="1">  1        2 0.30315520E+00 0.23905090E+04</pdfrwt>
<pdfrwt beam="2">  1       -2 0.11153959E+00 0.23905090E+04</pdfrwt>
<totfact> 0.39663561E+00</totfact>
</mgrwt>
</event>
<event>
 4    1  0.1295381E-008  0.2567850E+04  0.7816531E-02  0.8379205E-01
          2   -1    0    0  501    0  0.00000000000E+00  0.00000000000E+00  0.25950241364E+04  0.25950241364E+04  0.00000000000E+00 0.  1.
         -2   -1    0    0    0  501 -0.00000000000E+00 -0.00000000000E+00 -0.63523992956E+03  0.63523992956E+03  0.00000000000E+00 0. -1.
    2000013    1    1    2    0    0 -0.57338150826E+03  0.64190810898E+03  0.10701730915E+04  0.16699050333E+04  0.95000000000E+03 0.  0.
   -2000013    1    1    2    0    0  0.57338150826E+03 -0.64190810898E+03  0.88961111533E+03  0.15603590327E+04  0.95000000000E+03 0.  0.
<mgrwt>
<rscale>  0 0.25678496E+04</rscale>
<asrwt>0</asrwt>
<pdfrwt beam="1">  1        2 0.39923448E+00 0.25678496E+04</pdfrwt>
<pdfrwt beam="2">  1       -2 0.97729221E-01 0.25678496E+04</pdfrwt>
<totfact> 0.23691744E+00</totfact>
</mgrwt>
</event>
<event>
 4    1  0.1295381E-008  0.4905205E+04  0.7816531E-02  0.7843299E-01
          2   -1    0    0  501    0  0.00000000000E+00  0.00000000000E+00  0.46520062341E+04  0.46520062341E+04  0.00000000000E+00 0.  1.
         -2   -1    0    0    0  501 -0.00000000000E+00 -0.00000000000E+00 -0.12930461807E+04  0.12930461807E+04  0.00000000000E+00 0. -1.
    2000013    1    1    2    0    0  0.41835780809E+03  0.19381071518E+04  0.29968599441E+04  0.37168470660E+04  0.95000000000E+03 0.  0.
   -2000013    1    1    2    0    0 -0.41835780809E+03 -0.19381071518E+04  0.36210010928E+03  0.22282053488E+04  0.95000000000E+03 0.  0.
<mgrwt>
<rscale>  0 0.49052049E+04</rscale>
<asrwt>0</asrwt>
<pdfrwt beam="1">  1        2 0.71569326E+00 0.49052049E+04</pdfrwt>
<pdfrwt beam="2">  1       -2 0.19893018E+00 0.49052049E+04</pdfrwt>
<totfact> 0.84589889E-03</totfact>
</mgrwt>
</event>
<event>
 4    1  0.1295381E-008  0.2430289E+04  0.7816531E-02  0.8428250E-01
          2   -1    0    0  501    0  0.00000000000E+00  0.00000000000E+00  0.35199095213E+04  0.35199095213E+04  0.00000000000E+00 0.  1.
         -2   -1    0    0    0  501 -0.00000000000E+00 -0.00000000000E+00 -0.41949279527E+03  0.41949279527E+03  0.00000000000E+00 0. -1.
    2000013    1    1    2    0    0 -0.33698260043E+03  0.47959998387E+03  0.23284435792E+04  0.25821934318E+04  0.95000000000E+03 0.  0.
   -2000013    1    1    2    0    0  0.33698260043E+03 -0.47959998387E+03  0.77197314680E+03  0.13572088848E+04  0.95000000000E+03 0.  0.
<mgrwt>
<rscale>  0 0.24302894E+04</rscale>
<asrwt>0</asrwt>
<pdfrwt beam="1">  1        2 0.54152452E+00 0.24302894E+04</pdfrwt>
<pdfrwt beam="2">  1       -2 0.64537355E-01 0.24302894E+04</pdfrwt>
<totfact> 0.15683325E+00</totfact>
</mgrwt>
</event>
<event>
 4    1  0.1295381E-008  0.2327289E+04  0.7816531E-02  0.8467239E-01
          2   -1    0    0  501    0  0.00000000000E+00  0.00000000000E+00  0.22681440361E+04  0.22681440361E+04  0.00000000000E+00 0.  1.
         -2   -1    0    0    0  501 -0.00000000000E+00 -0.00000000000E+00 -0.59699402963E+03  0.59699402963E+03  0.00000000000E+00 0. -1.
    2000013    1    1    2    0    0 -0.29100156745E+03 -0.52877684911E+03  0.11992860972E+04  0.16447109203E+04  0.95000000000E+03 0.  0.
   -2000013    1    1    2    0    0  0.29100156745E+03  0.52877684911E+03  0.47186390925E+03  0.12204271454E+04  0.95000000000E+03 0.  0.
<mgrwt>
<rscale>  0 0.23272889E+04</rscale>
<asrwt>0</asrwt>
<pdfrwt beam="1">  1        2 0.34894523E+00 0.23272889E+04</pdfrwt>
<pdfrwt beam="2">  1       -2 0.91845236E-01 0.23272889E+04</pdfrwt>
<totfact> 0.43101359E+00</totfact>
</mgrwt>
</event>
<event>
 4    1  0.1295381E-008  0.2603544E+04  0.7816531E-02  0.8366999E-01
         -2   -1    0    0    0  501 -0.00000000000E+00  0.00000000000E+00  0.56781925675E+03  0.56781925675E+03  0.00000000000E+00 0. -1.
          2   -1    0    0  501    0  0.00000000000E+00 -0.00000000000E+00 -0.29844177836E+04  0.29844177836E+04  0.00000000000E+00 0.  1.
    2000013    1    1    2    0    0  0.79701335480E+03 -0.40654256408E+02 -0.17458512498E+04  0.21418169022E+04  0.95000000000E+03 0.  0.
   -2000013    1    1    2    0    0 -0.79701335480E+03  0.40654256408E+02 -0.67074727704E+03  0.14104201381E+04  0.95000000000E+03 0.  0.
<mgrwt>
<rscale>  0 0.26035437E+04</rscale>
<asrwt>0</asrwt>
<pdfrwt beam="2">  1        2 0.45914119E+00 0.26035437E+04</pdfrwt>
<pdfrwt beam="1">  1       -2 0.87356810E-01 0.26035437E+04</pdfrwt>
<totfact> 0.17821616E+00</totfact>
</mgrwt>
</event>
<event>
 4    1  0.1295381E-008  0.2430746E+04  0.7816531E-02  0.8428082E-01
         -2   -1    0    0    0  501 -0.00000000000E+00  0.00000000000E+00  0.12481437213E+04  0.12481437213E+04  0.00000000000E+00 0.  1.
          2   -1    0    0  501    0  0.00000000000E+00 -0.00000000000E+00 -0.11834624525E+04  0.11834624525E+04  0.00000000000E+00 0. -1.
    2000013    1    1    2    0    0  0.33305175056E+03 -0.64863976997E+03 -0.17503496336E+03  0.12102868495E+04  0.95000000000E+03 0.  0.
   -2000013    1    1    2    0    0 -0.33305175056E+03  0.64863976997E+03  0.23971623218E+03  0.12213193242E+04  0.95000000000E+03 0.  0.
<mgrwt>
<rscale>  0 0.24307458E+04</rscale>
<asrwt>0</asrwt>
<pdfrwt beam="2">  1        2 0.18207115E+00 0.24307458E+04</pdfrwt>
<pdfrwt beam="1">  1       -2 0.19202211E+00 0.24307458E+04</pdfrwt>
<totfact> 0.26113677E+00</totfact>
</mgrwt>
</event>
<event>
 4    1  0.1295381E-008  0.4553634E+04  0.7816531E-02  0.7901314E-01
          2   -1    0    0  501    0  0.00000000000E+00  0.00000000000E+00  0.23024502578E+04  0.23024502578E+04  0.00000000000E+00 0.  1.
         -2   -1    0    0    0  501 -0.00000000000E+00 -0.00000000000E+00 -0.22514688186E+04  0.22514688186E+04  0.00000000000E+00 0. -1.
    2000013    1    1    2    0    0  0.20252399543E+03  0.14074674101E+04 -0.14777383679E+04  0.22601307845E+04  0.95000000000E+03 0.  0.
   -2000013    1    1    2    0    0 -0.20252399543E+03 -0.14074674101E+04  0.15287198071E+04  0.22937882919E+04  0.95000000000E+03 0.  0.
<mgrwt>
<rscale>  0 0.45536337E+04</rscale>
<asrwt>0</asrwt>
<pdfrwt beam="1">  1        2 0.35422312E+00 0.45536337E+04</pdfrwt>
<pdfrwt beam="2">  1       -2 0.34637982E+00 0.45536337E+04</pdfrwt>
<totfact> 0.55903670E-02</totfact>
</mgrwt>
</event>
<event>
 4    1  0.1295381E-008  0.2520187E+04  0.7816531E-02  0.8395829E-01
          2   -1    0    0  501    0  0.00000000000E+00  0.00000000000E+00  0.80051673234E+03  0.80051673234E+03  0.00000000000E+00 0.  1.
         -2   -1    0    0    0  501 -0.00000000000E+00 -0.00000000000E+00 -0.19835133387E+04  0.19835133387E+04  0.00000000000E+00 0. -1.
    2000013    1    1    2    0    0  0.77862332886E+03  0.15105282099E+03 -0.85353245633E+03  0.15033592042E+04  0.95000000000E+03 0.  0.
   -2000013    1    1    2    0    0 -0.77862332886E+03 -0.15105282099E+03 -0.32946415007E+03  0.12806708668E+04  0.95000000000E+03 0.  0.
<mgrwt>
<rscale>  0 0.25201870E+04</rscale>
<asrwt>0</asrwt>
<pdfrwt beam="1">  1        2 0.12315642E+00 0.25201870E+04</pdfrwt>
<pdfrwt beam="2">  1       -2 0.30515589E+00 0.25201870E+04</pdfrwt>
<totfact> 0.90579903E-01</totfact>
</mgrwt>
</event>
<event>
 4    1  0.1295381E-008  0.2151266E+04  0.7816531E-02  0.8538991E-01
         -2   -1    0    0    0  501 -0.00000000000E+00  0.00000000000E+00  0.35778890793E+03  0.35778890793E+03  0.00000000000E+00 0. -1.
          2   -1    0    0  501    0  0.00000000000E+00 -0.00000000000E+00 -0.32337123320E+04  0.32337123320E+04  0.00000000000E+00 0.  1.
    2000013    1    1    2    0    0  0.15406315489E+03  0.37348027893E+03 -0.93361372783E+03  0.13918899264E+04  0.95000000000E+03 0.  0.
   -2000013    1    1    2    0    0 -0.15406315489E+03 -0.37348027893E+03 -0.19423096962E+04  0.21996113135E+04  0.95000000000E+03 0.  0.
<mgrwt>
<rscale>  0 0.21512660E+04</rscale>
<asrwt>0</asrwt>
<pdfrwt beam="2">  1        2 0.49749418E+00 0.21512660E+04</pdfrwt>
<pdfrwt beam="1">  1       -2 0.55044450E-01 0.21512660E+04</pdfrwt>
<totfact> 0.35191538E+00</totfact>
</mgrwt>
</event>
<event>
 4    1  0.1295381E-008  0.2873602E+04  0.7816531E-02  0.8280775E-01
          2   -1    0    0  501    0  0.00000000000E+00  0.00000000000E+00  0.28008981955E+04  0.28008981955E+04  0.00000000000E+00 0.  1.
         -2   -1    0    0    0  501 -0.00000000000E+00 -0.00000000000E+00 -0.73704833308E+03  0.73704833308E+03  0.00000000000E+00 0. -1.
    2000013    1    1    2    0    0 -0.10013157563E+04 -0.20459651131E+03  0.14537833825E+04  0.20150630510E+04  0.95000000000E+03 0.  0.
   -2000013    1    1    2    0    0  0.10013157563E+04  0.20459651131E+03  0.61006647992E+03  0.15228834776E+04  0.95000000000E+03 0.  0.
<mgrwt>
<rscale>  0 0.28736022E+04</rscale>
<asrwt>0</asrwt>
<pdfrwt beam="1">  1        2 0.43090741E+00 0.28736022E+04</pdfrwt>
<pdfrwt beam="2">  1       -2 0.11339205E+00 0.28736022E+04</pdfrwt>
<totfact> 0.12185469E+00</totfact>
</mgrwt>
</event>
<event>
 4    1  0.1295381E-008  0.2529823E+04  0.7816531E-02  0.8392437E-01
          1   -1    0    0  501    0  0.00000000000E+00  0.00000000000E+00  0.24829477634E+04  0.24829477634E+04  0.00000000000E+00 0.  1.
         -1   -1    0    0    0  501 -0.00000000000E+00 -0.00000000000E+00 -0.64439587637E+03  0.64439587637E+03  0.00000000000E+00 0. -1.
    2000013    1    1    2    0    0 -0.99352987312E+02  0.68566361452E+03  0.34276073175E+03  0.12247410043E+04  0.95000000000E+03 0.  0.
   -2000013    1    1    2    0    0  0.99352987312E+02 -0.68566361452E+03  0.14957911553E+04  0.19026026355E+04  0.95000000000E+03 0.  0.
<mgrwt>
<rscale>  0 0.25298232E+04</rscale>
<asrwt>0</asrwt>
<pdfrwt beam="1">  1        1 0.38199196E+00 0.25298232E+04</pdfrwt>
<pdfrwt beam="2">  1       -1 0.99137828E-01 0.25298232E+04</pdfrwt>
<totfact> 0.11988818E+00</totfact>
</mgrwt>
</event>
<event>
 4    1  0.1295381E-008  0.2470681E+04  0.7816531E-02  0.8413506E-01
          2   -1    0    0  501    0  0.00000000000E+00  0.00000000000E+00  0.27456338121E+04  0.27456338121E+04  0.00000000000E+00 0.  1.
         -2   -1    0    0    0  501 -0.00000000000E+00 -0.00000000000E+00 -0.55581568034E+03  0.55581568034E+03  0.00000000000E+00 0. -1.
    2000013    1    1    2    0    0  0.58821822239E+03 -0.49189803095E+03  0.84277878699E+03  0.14834892766E+04  0.95000000000E+03 0.  0.
   -2000013    1    1    2    0    0 -0.58821822239E+03  0.49189803095E+03  0.13470393448E+04  0.18179602158E+04  0.95000000000E+03 0.  0.
<mgrwt>
<rscale>  0 0.24706811E+04</rscale>
<asrwt>0</asrwt>
<pdfrwt beam="1">  1        2 0.42240519E+00 0.24706811E+04</pdfrwt>
<pdfrwt beam="2">  1       -2 0.85510106E-01 0.24706811E+04</pdfrwt>
<totfact> 0.26497668E+00</totfact>
</mgrwt>
</event>
<event>
 4    1  0.1295381E-008  0.2432623E+04  0.7816531E-02  0.8427390E-01
         -2   -1    0    0    0  501 -0.00000000000E+00  0.00000000000E+00  0.51123166323E+03  0.51123166323E+03  0.00000000000E+00 0. -1.
          2   -1    0    0  501    0  0.00000000000E+00 -0.00000000000E+00 -0.28938230682E+04  0.28938230682E+04  0.00000000000E+00 0.  1.
    2000013    1    1    2    0    0 -0.34083304415E+03 -0.67830285474E+03 -0.11555527139E+04  0.16775172134E+04  0.95000000000E+03 0.  0.
   -2000013    1    1    2    0    0  0.34083304415E+03  0.67830285474E+03 -0.12270386910E+04  0.17275375180E+04  0.95000000000E+03 0.  0.
<mgrwt>
<rscale>  0 0.24326233E+04</rscale>
<asrwt>0</asrwt>
<pdfrwt beam="2">  1        2 0.44520354E+00 0.24326233E+04</pdfrwt>
<pdfrwt beam="1">  1       -2 0.78651026E-01 0.24326233E+04</pdfrwt>
<totfact> 0.26108761E+00</totfact>
</mgrwt>
</event>
<event>
 4    1  0.1295381E-008  0.2632771E+04  0.7816531E-02  0.8357154E-01
         -2   -1    0    0    0  501 -0.00000000000E+00  0.00000000000E+00  0.80248947468E+03  0.80248947468E+03  0.00000000000E+00 0. -1.
          2   -1    0    0  501    0  0.00000000000E+00 -0.00000000000E+00 -0.21593692620E+04  0.21593692620E+04  0.00000000000E+00 0.  1.
    2000013    1    1    2    0    0  0.16187706367E+03 -0.63054747009E+03 -0.13957757126E+04  0.18095535736E+04  0.95000000000E+03 0.  0.
   -2000013    1    1    2    0    0 -0.16187706367E+03  0.63054747009E+03  0.38895925344E+02  0.11523051630E+04  0.95000000000E+03 0.  0.
<mgrwt>
<rscale>  0 0.26327712E+04</rscale>
<asrwt>0</asrwt>
<pdfrwt beam="2">  1        2 0.33221065E+00 0.26327712E+04</pdfrwt>
<pdfrwt beam="1">  1       -2 0.12345992E+00 0.26327712E+04</pdfrwt>
<totfact> 0.23747247E+00</totfact>
</mgrwt>
</event>
<event>
 4    1  0.1295381E-008  0.2514060E+04  0.7816531E-02  0.8397994E-01
         -2   -1    0    0    0  501 -0.00000000000E+00  0.00000000000E+00  0.19506836812E+04  0.19506836812E+04  0.00000000000E+00 0. -1.
          2   -1    0    0  501    0  0.00000000000E+00 -0.00000000000E+00 -0.81003643970E+03  0.81003643970E+03  0.00000000000E+00 0.  1.
    2000013    1    1    2    0    0 -0.38991092092E+03 -0.64401508580E+03  0.20473489113E+03  0.12293096976E+04  0.95000000000E+03 0.  0.
   -2000013    1    1    2    0    0  0.38991092092E+03  0.64401508580E+03  0.93591235036E+03  0.15314104233E+04  0.95000000000E+03 0.  0.
<mgrwt>
<rscale>  0 0.25140604E+04</rscale>
<asrwt>0</asrwt>
<pdfrwt beam="2">  1        2 0.12462099E+00 0.25140604E+04</pdfrwt>
<pdfrwt beam="1">  1       -2 0.30010518E+00 0.25140604E+04</pdfrwt>
<totfact> 0.95794153E-01</totfact>
</mgrwt>
</event>
<event>
 4    1  0.1295381E-008  0.3137536E+04  0.7816531E-02  0.8205511E-01
         -2   -1    0    0    0  501 -0.00000000000E+00  0.00000000000E+00  0.13451354429E+04  0.13451354429E+04  0.00000000000E+00 0. -1.
          2   -1    0    0  501    0  0.00000000000E+00 -0.00000000000E+00 -0.18295800144E+04  0.18295800144E+04  0.00000000000E+00 0.  1.
    2000013    1    1    2    0    0 -0.11185138621E+04 -0.45017312688E+03  0.85348115964E+02  0.15373722401E+04  0.95000000000E+03 0.  0.
   -2000013    1    1    2    0    0  0.11185138621E+04  0.45017312688E+03 -0.56979268747E+03  0.16373432171E+04  0.95000000000E+03 0.  0.
<mgrwt>
<rscale>  0 0.31375359E+04</rscale>
<asrwt>0</asrwt>
<pdfrwt beam="2">  1        2 0.28147385E+00 0.31375359E+04</pdfrwt>
<pdfrwt beam="1">  1       -2 0.20694391E+00 0.31375359E+04</pdfrwt>
<totfact> 0.84277679E-01</totfact>
</mgrwt>
</event>
<event>
 4    1  0.1295381E-008  0.2642886E+04  0.7816531E-02  0.8353778E-01
          2   -1    0    0  501    0  0.00000000000E+00  0.00000000000E+00  0.28192079637E+04  0.28192079637E+04  0.00000000000E+00 0.  1.
         -2   -1    0    0    0  501 -0.00000000000E+00 -0.00000000000E+00 -0.61939800836E+03  0.61939800836E+03  0.00000000000E+00 0. -1.
    2000013    1    1    2    0    0 -0.64273108140E+03 -0.59763849382E+03  0.74732244927E+03  0.14937422319E+04  0.95000000000E+03 0.  0.
   -2000013    1    1    2    0    0  0.64273108140E+03  0.59763849382E+03  0.14524875060E+04  0.19448637401E+04  0.95000000000E+03 0.  0.
<mgrwt>
<rscale>  0 0.26428861E+04</rscale>
<asrwt>0</asrwt>
<pdfrwt beam="1">  1        2 0.43372429E+00 0.26428861E+04</pdfrwt>
<pdfrwt beam="2">  1       -2 0.95292003E-01 0.26428861E+04</pdfrwt>
<totfact> 0.18356752E+00</totfact>
</mgrwt>
</event>
<event>
 4    1  0.1295381E-008  0.2150763E+04  0.7816531E-02  0.8539206E-01
         -1   -1    0    0    0  501 -0.00000000000E+00  0.00000000000E+00  0.35334956822E+03  0.35334956822E+03  0.00000000000E+00 0. -1.
          1   -1    0    0  501    0  0.00000000000E+00 -0.00000000000E+00 -0.32728074955E+04  0.32728074955E+04  0.00000000000E+00 0.  1.
    2000013    1    1    2    0    0  0.97225512511E+02  0.48592222460E+03 -0.16139935697E+04  0.19372786200E+04  0.95000000000E+03 0.  0.
   -2000013    1    1    2    0    0 -0.97225512511E+02 -0.48592222460E+03 -0.13054643577E+04  0.16888784438E+04  0.95000000000E+03 0.  0.
<mgrwt>
<rscale>  0 0.21507628E+04</rscale>
<asrwt>0</asrwt>
<pdfrwt beam="2">  1        1 0.50350886E+00 0.21507628E+04</pdfrwt>
<pdfrwt beam="1">  1       -1 0.54361471E-01 0.21507628E+04</pdfrwt>
<totfact> 0.11745449E+00</totfact>
</mgrwt>
</event>
<event>
 4    1  0.1295381E-008  0.2818889E+04  0.7816531E-02  0.8297428E-01
         -2   -1    0    0    0  501 -0.00000000000E+00  0.00000000000E+00  0.74354157768E+03  0.74354157768E+03  0.00000000000E+00 0. -1.
          2   -1    0    0  501    0  0.00000000000E+00 -0.00000000000E+00 -0.26717183267E+04  0.26717183267E+04  0.00000000000E+00 0.  1.
    2000013    1    1    2    0    0  0.52357435313E+03 -0.83879973390E+03 -0.13591368122E+04  0.19306651628E+04  0.95000000000E+03 0.  0.
   -2000013    1    1    2    0    0 -0.52357435313E+03  0.83879973390E+03 -0.56903993686E+03  0.14845947415E+04  0.95000000000E+03 0.  0.
<mgrwt>
<rscale>  0 0.28188889E+04</rscale>
<asrwt>0</asrwt>
<pdfrwt beam="2">  1        2 0.41103359E+00 0.28188889E+04</pdfrwt>
<pdfrwt beam="1">  1       -2 0.11439101E+00 0.28188889E+04</pdfrwt>
<totfact> 0.14321348E+00</totfact>
</mgrwt>
</event>
<event>
 4    1  0.1295381E-008  0.2361610E+04  0.7816531E-02  0.8454018E-01
          2   -1    0    0  501    0  0.00000000000E+00  0.00000000000E+00  0.14726671230E+04  0.14726671230E+04  0.00000000000E+00 0.  1.
         -2   -1    0    0    0  501 -0.00000000000E+00 -0.00000000000E+00 -0.94678585435E+03  0.94678585435E+03  0.00000000000E+00 0. -1.
    2000013    1    1    2    0    0  0.30206047983E+03  0.42533173699E+03 -0.21720984483E+03  0.11053631696E+04  0.95000000000E+03 0.  0.
   -2000013    1    1    2    0    0 -0.30206047983E+03 -0.42533173699E+03  0.74309111345E+03  0.13140898078E+04  0.95000000000E+03 0.  0.
<mgrwt>
<rscale>  0 0.23616100E+04</rscale>
<asrwt>0</asrwt>
<pdfrwt beam="1">  1        2 0.22656417E+00 0.23616100E+04</pdfrwt>
<pdfrwt beam="2">  1       -2 0.14565936E+00 0.23616100E+04</pdfrwt>
<totfact> 0.38427679E+00</totfact>
</mgrwt>
</event>
<event>
 4    1  0.1295381E-008  0.2288051E+04  0.7816531E-02  0.8482647E-01
         -2   -1    0    0    0  501 -0.00000000000E+00  0.00000000000E+00  0.15591861190E+04  0.15591861190E+04  0.00000000000E+00 0. -1.
          2   -1    0    0  501    0  0.00000000000E+00 -0.00000000000E+00 -0.83940899344E+03  0.83940899344E+03  0.00000000000E+00 0.  1.
    2000013    1    1    2    0    0 -0.37992546184E+03 -0.47018929235E+03  0.57182820600E+03  0.12628969967E+04  0.95000000000E+03 0.  0.
   -2000013    1    1    2    0    0  0.37992546184E+03  0.47018929235E+03  0.14794891956E+03  0.11356981157E+04  0.95000000000E+03 0.  0.
<mgrwt>
<rscale>  0 0.22880514E+04</rscale>
<asrwt>0</asrwt>
<pdfrwt beam="2">  1        2 0.12913985E+00 0.22880514E+04</pdfrwt>
<pdfrwt beam="1">  1       -2 0.23987479E+00 0.22880514E+04</pdfrwt>
<totfact> 0.21737397E+00</totfact>
</mgrwt>
</event>
<event>
 4    1  0.1295381E-008  0.2109758E+04  0.7816531E-02  0.8556957E-01
         -2   -1    0    0    0  501 -0.00000000000E+00  0.00000000000E+00  0.22260123937E+03  0.22260123937E+03  0.00000000000E+00 0. -1.
          2   -1    0    0  501    0  0.00000000000E+00 -0.00000000000E+00 -0.49989354477E+04  0.49989354477E+04  0.00000000000E+00 0.  1.
    2000013    1    1    2    0    0 -0.28666005183E+03  0.17854912070E+03 -0.16204730133E+04  0.19085299475E+04  0.95000000000E+03 0.  0.
   -2000013    1    1    2    0    0  0.28666005183E+03 -0.17854912070E+03 -0.31558611950E+04  0.33130067395E+04  0.95000000000E+03 0.  0.
<mgrwt>
<rscale>  0 0.21097575E+04</rscale>
<asrwt>0</asrwt>
<pdfrwt beam="2">  1        2 0.76906698E+00 0.21097575E+04</pdfrwt>
<pdfrwt beam="1">  1       -2 0.34246345E-01 0.21097575E+04</pdfrwt>
<totfact> 0.25868302E-01</totfact>
</mgrwt>
</event>
<event>
 4    1  0.1295381E-008  0.2950408E+04  0.7816531E-02  0.8258036E-01
          2   -1    0    0  501    0  0.00000000000E+00  0.00000000000E+00  0.24277315525E+04  0.24277315525E+04  0.00000000000E+00 0.  1.
         -2   -1    0    0    0  501 -0.00000000000E+00 -0.00000000000E+00 -0.89640362273E+03  0.89640362273E+03  0.00000000000E+00 0. -1.
    2000013    1    1    2    0    0  0.38701201842E+03 -0.69553240236E+03 -0.13580102532E+03  0.12467900961E+04  0.95000000000E+03 0.  0.
   -2000013    1    1    2    0    0 -0.38701201842E+03  0.69553240236E+03  0.16671289551E+04  0.20773450792E+04  0.95000000000E+03 0.  0.
<mgrwt>
<rscale>  0 0.29504084E+04</rscale>
<asrwt>0</asrwt>
<pdfrwt beam="1">  1        2 0.37349716E+00 0.29504084E+04</pdfrwt>
<pdfrwt beam="2">  1       -2 0.13790825E+00 0.29504084E+04</pdfrwt>
<totfact> 0.12299773E+00</totfact>
</mgrwt>
</event>
<event>
 4    1  0.1295381E-008  0.2567210E+04  0.7816531E-02  0.8379425E-01
         -1   -1    0    0    0  501 -0.00000000000E+00  0.00000000000E+00  0.17570276596E+04  0.17570276596E+04  0.00000000000E+00 0. -1.
          1   -1    0    0  501    0  0.00000000000E+00 -0.00000000000E+00 -0.93774411689E+03  0.93774411689E+03  0.00000000000E+00 0.  1.
    2000013    1    1    2    0    0  0.81461072775E+03 -0.67517860713E+02  0.70090542162E+03  0.14359379197E+04  0.95000000000E+03 0.  0.
   -2000013    1    1    2    0    0 -0.81461072775E+03  0.67517860713E+02  0.11837812105E+03  0.12588338567E+04  0.95000000000E+03 0.  0.
<mgrwt>
<rscale>  0 0.25672104E+04</rscale>
<asrwt>0</asrwt>
<pdfrwt beam="2">  1        1 0.14426833E+00 0.25672104E+04</pdfrwt>
<pdfrwt beam="1">  1       -1 0.27031195E+00 0.25672104E+04</pdfrwt>
<totfact> 0.77012980E-01</totfact>
</mgrwt>
</event>
<event>
 4    1  0.1295381E-008  0.1955017E+04  0.7816531E-02  0.8627945E-01
         -2   -1    0    0    0  501 -0.00000000000E+00  0.00000000000E+00  0.52712734494E+03  0.52712734494E+03  0.00000000000E+00 0. -1.
          2   -1    0    0  501    0  0.00000000000E+00 -0.00000000000E+00 -0.18126977320E+04  0.18126977320E+04  0.00000000000E+00 0.  1.
    2000013    1    1    2    0    0 -0.16711748748E+03 -0.10948221058E+03 -0.77981026681E+03  0.12451982418E+04  0.95000000000E+03 0.  0.
   -2000013    1    1    2    0    0  0.16711748748E+03  0.10948221058E+03 -0.50576012023E+03  0.10946268352E+04  0.95000000000E+03 0.  0.
<mgrwt>
<rscale>  0 0.19550167E+04</rscale>
<asrwt>0</asrwt>
<pdfrwt beam="2">  1        2 0.27887657E+00 0.19550167E+04</pdfrwt>
<pdfrwt beam="1">  1       -2 0.81096515E-01 0.19550167E+04</pdfrwt>
<totfact> 0.10611099E+01</totfact>
</mgrwt>
</event>
<event>
 4    1  0.1295381E-008  0.2526322E+04  0.7816531E-02  0.8393668E-01
         -2   -1    0    0    0  501 -0.00000000000E+00  0.00000000000E+00  0.77240601986E+03  0.77240601986E+03  0.00000000000E+00 0. -1.
          2   -1    0    0  501    0  0.00000000000E+00 -0.00000000000E+00 -0.20657214119E+04  0.20657214119E+04  0.00000000000E+00 0.  1.
    2000013    1    1    2    0    0 -0.77265210827E+03  0.26839652501E+03 -0.82087038221E+03  0.14984512536E+04  0.95000000000E+03 0.  0.
   -2000013    1    1    2    0    0  0.77265210827E+03 -0.26839652501E+03 -0.47244500986E+03  0.13396761782E+04  0.95000000000E+03 0.  0.
<mgrwt>
<rscale>  0 0.25263220E+04</rscale>
<asrwt>0</asrwt>
<pdfrwt beam="2">  1        2 0.31780329E+00 0.25263220E+04</pdfrwt>
<pdfrwt beam="1">  1       -2 0.11883170E+00 0.25263220E+04</pdfrwt>
<totfact> 0.29732482E+00</totfact>
</mgrwt>
</event>
<event>
 4    1  0.1295381E-008  0.2587744E+04  0.7816531E-02  0.8372376E-01
         -2   -1    0    0    0  501 -0.00000000000E+00  0.00000000000E+00  0.68192799306E+03  0.68192799306E+03  0.00000000000E+00 0. -1.
          2   -1    0    0  501    0  0.00000000000E+00 -0.00000000000E+00 -0.24549579462E+04  0.24549579462E+04  0.00000000000E+00 0.  1.
    2000013    1    1    2    0    0  0.46562019346E+03  0.74422062428E+03 -0.92364188980E+03  0.15894278350E+04  0.95000000000E+03 0.  0.
   -2000013    1    1    2    0    0 -0.46562019346E+03 -0.74422062428E+03 -0.84938806332E+03  0.15474581042E+04  0.95000000000E+03 0.  0.
<mgrwt>
<rscale>  0 0.25877438E+04</rscale>
<asrwt>0</asrwt>
<pdfrwt beam="2">  1        2 0.37768584E+00 0.25877438E+04</pdfrwt>
<pdfrwt beam="1">  1       -2 0.10491200E+00 0.25877438E+04</pdfrwt>
<totfact> 0.24102762E+00</totfact>
</mgrwt>
</event>
<event>
 4    1  0.1295381E-008  0.2167678E+04  0.7816531E-02  0.8532003E-01
          2   -1    0    0  501    0  0.00000000000E+00  0.00000000000E+00  0.15042424875E+04  0.15042424875E+04  0.00000000000E+00 0.  1.
         -2   -1    0    0    0  501 -0.00000000000E+00 -0.00000000000E+00 -0.78092915615E+03  0.78092915615E+03  0.00000000000E+00 0. -1.
    2000013    1    1    2    0    0 -0.18861384601E+03 -0.42031306116E+03  0.10349847336E+03  0.10608723704E+04  0.95000000000E+03 0.  0.
   -2000013    1    1    2    0    0  0.18861384601E+03  0.42031306116E+03  0.61981485800E+03  0.12242992733E+04  0.95000000000E+03 0.  0.
<mgrwt>
<rscale>  0 0.21676779E+04</rscale>
<asrwt>0</asrwt>
<pdfrwt beam="1">  1        2 0.23142192E+00 0.21676779E+04</pdfrwt>
<pdfrwt beam="2">  1       -2 0.12014295E+00 0.21676779E+04</pdfrwt>
<totfact> 0.61262280E+00</totfact>
</mgrwt>
</event>
<event>
 4    1  0.1295381E-008  0.2884444E+04  0.7816531E-02  0.8277521E-01
          1   -1    0    0  501    0  0.00000000000E+00  0.00000000000E+00  0.18832977696E+04  0.18832977696E+04  0.00000000000E+00 0.  1.
         -1   -1    0    0    0  501 -0.00000000000E+00 -0.00000000000E+00 -0.11044481221E+04  0.11044481221E+04  0.00000000000E+00 0. -1.
    2000013    1    1    2    0    0 -0.92063476867E+03 -0.20492722921E+03 -0.16639414521E+03  0.13489813038E+04  0.95000000000E+03 0.  0.
   -2000013    1    1    2    0    0  0.92063476867E+03  0.20492722921E+03  0.94524379276E+03  0.16387645878E+04  0.95000000000E+03 0.  0.
<mgrwt>
<rscale>  0 0.28844443E+04</rscale>
<asrwt>0</asrwt>
<pdfrwt beam="1">  1        1 0.28973812E+00 0.28844443E+04</pdfrwt>
<pdfrwt beam="2">  1       -1 0.16991510E+00 0.28844443E+04</pdfrwt>
<totfact> 0.75743698E-01</totfact>
</mgrwt>
</event>
<event>
 4    1  0.1295381E-008  0.2083971E+04  0.7816531E-02  0.8568337E-01
          2   -1    0    0  501    0  0.00000000000E+00  0.00000000000E+00  0.59959095007E+03  0.59959095007E+03  0.00000000000E+00 0.  1.
         -2   -1    0    0    0  501 -0.00000000000E+00 -0.00000000000E+00 -0.18107907783E+04  0.18107907783E+04  0.00000000000E+00 0. -1.
    2000013    1    1    2    0    0 -0.59528505212E+02  0.40183442342E+03 -0.44947974768E+03  0.11267415810E+04  0.95000000000E+03 0.  0.
   -2000013    1    1    2    0    0  0.59528505212E+02 -0.40183442342E+03 -0.76172008051E+03  0.12836401473E+04  0.95000000000E+03 0.  0.
<mgrwt>
<rscale>  0 0.20839710E+04</rscale>
<asrwt>0</asrwt>
<pdfrwt beam="1">  1        2 0.92244763E-01 0.20839710E+04</pdfrwt>
<pdfrwt beam="2">  1       -2 0.27858319E+00 0.20839710E+04</pdfrwt>
<totfact> 0.19682752E+00</totfact>
</mgrwt>
</event>
<event>
 4    1  0.1295381E-008  0.2117446E+04  0.7816531E-02  0.8553597E-01
         -2   -1    0    0    0  501 -0.00000000000E+00  0.00000000000E+00  0.61801802038E+03  0.61801802038E+03  0.00000000000E+00 0. -1.
          2   -1    0    0  501    0  0.00000000000E+00 -0.00000000000E+00 -0.18136916725E+04  0.18136916725E+04  0.00000000000E+00 0.  1.
    2000013    1    1    2    0    0 -0.12365244893E+03  0.43347600987E+03 -0.73943596712E+03  0.12854792603E+04  0.95000000000E+03 0.  0.
   -2000013    1    1    2    0    0  0.12365244893E+03 -0.43347600987E+03 -0.45623768498E+03  0.11462304325E+04  0.95000000000E+03 0.  0.
<mgrwt>
<rscale>  0 0.21174458E+04</rscale>
<asrwt>0</asrwt>
<pdfrwt beam="2">  1        2 0.27902948E+00 0.21174458E+04</pdfrwt>
<pdfrwt beam="1">  1       -2 0.95079697E-01 0.21174458E+04</pdfrwt>
<totfact> 0.72578719E+00</totfact>
</mgrwt>
</event>
<event>
 4    1  0.1295381E-008  0.2239946E+04  0.7816531E-02  0.8501983E-01
          2   -1    0    0  501    0  0.00000000000E+00  0.00000000000E+00  0.86358144359E+03  0.86358144359E+03  0.00000000000E+00 0.  1.
         -2   -1    0    0    0  501 -0.00000000000E+00 -0.00000000000E+00 -0.14524855212E+04  0.14524855212E+04  0.00000000000E+00 0. -1.
    2000013    1    1    2    0    0  0.53061529524E+03  0.14096367556E+03 -0.52661802193E+03  0.12170660994E+04  0.95000000000E+03 0.  0.
   -2000013    1    1    2    0    0 -0.53061529524E+03 -0.14096367556E+03 -0.62286055707E+02  0.10990008654E+04  0.95000000000E+03 0.  0.
<mgrwt>
<rscale>  0 0.22399460E+04</rscale>
<asrwt>0</asrwt>
<pdfrwt beam="1">  1        2 0.13285869E+00 0.22399460E+04</pdfrwt>
<pdfrwt beam="2">  1       -2 0.22345931E+00 0.22399460E+04</pdfrwt>
<totfact> 0.26581776E+00</totfact>
</mgrwt>
</event>
<event>
 4    1  0.1295381E-008  0.2262046E+04  0.7816531E-02  0.8493038E-01
         -2   -1    0    0    0  501 -0.00000000000E+00  0.00000000000E+00  0.99586602110E+03  0.99586602110E+03  0.00000000000E+00 0. -1.
          2   -1    0    0  501    0  0.00000000000E+00 -0.00000000000E+00 -0.12845234276E+04  0.12845234276E+04  0.00000000000E+00 0.  1.
    2000013    1    1    2    0    0 -0.18615247695E+03 -0.47143272921E+03 -0.49327381573E+03  0.11843650705E+04  0.95000000000E+03 0.  0.
   -2000013    1    1    2    0    0  0.18615247695E+03  0.47143272921E+03  0.20461640921E+03  0.10960243783E+04  0.95000000000E+03 0.  0.
<mgrwt>
<rscale>  0 0.22620462E+04</rscale>
<asrwt>0</asrwt>
<pdfrwt beam="2">  1        2 0.19761899E+00 0.22620462E+04</pdfrwt>
<pdfrwt beam="1">  1       -2 0.15321016E+00 0.22620462E+04</pdfrwt>
<totfact> 0.43477278E+00</totfact>
</mgrwt>
</event>
<event>
 4    1  0.1295381E-008  0.2452970E+04  0.7816531E-02  0.8419934E-01
         -1   -1    0    0    0  501 -0.00000000000E+00  0.00000000000E+00  0.11914335635E+04  0.11914335635E+04  0.00000000000E+00 0. -1.
          1   -1    0    0  501    0  0.00000000000E+00 -0.00000000000E+00 -0.12625677392E+04  0.12625677392E+04  0.00000000000E+00 0.  1.
    2000013    1    1    2    0    0 -0.10049128800E+03  0.76655331925E+03 -0.99336260379E+02  0.12288491294E+04  0.95000000000E+03 0.  0.
   -2000013    1    1    2    0    0  0.10049128800E+03 -0.76655331925E+03  0.28202084714E+02  0.12251521733E+04  0.95000000000E+03 0.  0.
<mgrwt>
<rscale>  0 0.24529701E+04</rscale>
<asrwt>0</asrwt>
<pdfrwt beam="2">  1        1 0.19424119E+00 0.24529701E+04</pdfrwt>
<pdfrwt beam="1">  1       -1 0.18329747E+00 0.24529701E+04</pdfrwt>
<totfact> 0.16920512E+00</totfact>
</mgrwt>
</event>
<event>
 4    1  0.1295381E-008  0.2497644E+04  0.7816531E-02  0.8403825E-01
          2   -1    0    0  501    0  0.00000000000E+00  0.00000000000E+00  0.23778268710E+04  0.23778268710E+04  0.00000000000E+00 0.  1.
         -2   -1    0    0    0  501 -0.00000000000E+00 -0.00000000000E+00 -0.65587481659E+03  0.65587481659E+03  0.00000000000E+00 0. -1.
    2000013    1    1    2    0    0  0.43279986867E+03  0.66575529459E+03  0.66320862030E+03  0.14045965658E+04  0.95000000000E+03 0.  0.
   -2000013    1    1    2    0    0 -0.43279986867E+03 -0.66575529459E+03  0.10587434341E+04  0.16291051218E+04  0.95000000000E+03 0.  0.
<mgrwt>
<rscale>  0 0.24976443E+04</rscale>
<asrwt>0</asrwt>
<pdfrwt beam="1">  1        2 0.36581951E+00 0.24976443E+04</pdfrwt>
<pdfrwt beam="2">  1       -2 0.10090382E+00 0.24976443E+04</pdfrwt>
<totfact> 0.29518733E+00</totfact>
</mgrwt>
</event>
<event>
 4    1  0.1295381E-008  0.3219558E+04  0.7816531E-02  0.8183671E-01
         -1   -1    0    0    0  501 -0.00000000000E+00  0.00000000000E+00  0.10515566118E+04  0.10515566118E+04  0.00000000000E+00 0.  1.
          1   -1    0    0  501    0  0.00000000000E+00 -0.00000000000E+00 -0.24643362777E+04  0.24643362777E+04  0.00000000000E+00 0. -1.
    2000013    1    1    2    0    0  0.11247516293E+04  0.53261162008E+03 -0.11152100619E+04  0.19222213316E+04  0.95000000000E+03 0.  0.
   -2000013    1    1    2    0    0 -0.11247516293E+04 -0.53261162008E+03 -0.29756960403E+03  0.15936715580E+04  0.95000000000E+03 0.  0.
<mgrwt>
<rscale>  0 0.32195584E+04</rscale>
<asrwt>0</asrwt>
<pdfrwt beam="2">  1        1 0.37912865E+00 0.32195584E+04</pdfrwt>
<pdfrwt beam="1">  1       -1 0.16177794E+00 0.32195584E+04</pdfrwt>
<totfact> 0.33929455E-01</totfact>
</mgrwt>
</event>
<event>
 4    1  0.1295381E-008  0.2984920E+04  0.7816531E-02  0.8248050E-01
         -2   -1    0    0    0  501 -0.00000000000E+00  0.00000000000E+00  0.65409526146E+03  0.65409526146E+03  0.00000000000E+00 0. -1.
          2   -1    0    0  501    0  0.00000000000E+00 -0.00000000000E+00 -0.34053717639E+04  0.34053717639E+04  0.00000000000E+00 0.  1.
    2000013    1    1    2    0    0  0.49414736462E+03  0.16527552584E+03  0.20219430225E+02  0.10837003473E+04  0.95000000000E+03 0.  0.
   -2000013    1    1    2    0    0 -0.49414736462E+03 -0.16527552584E+03 -0.27714959327E+04  0.29757666781E+04  0.95000000000E+03 0.  0.
<mgrwt>
<rscale>  0 0.29849205E+04</rscale>
<asrwt>0</asrwt>
<pdfrwt beam="2">  1        2 0.52390334E+00 0.29849205E+04</pdfrwt>
<pdfrwt beam="1">  1       -2 0.10063004E+00 0.29849205E+04</pdfrwt>
<totfact> 0.65886439E-01</totfact>
</mgrwt>
</event>
<event>
 4    1  0.1295381E-008  0.2708475E+04  0.7816531E-02  0.8332260E-01
         -2   -1    0    0    0  501 -0.00000000000E+00  0.00000000000E+00  0.14389174676E+04  0.14389174676E+04  0.00000000000E+00 0. -1.
          2   -1    0    0  501    0  0.00000000000E+00 -0.00000000000E+00 -0.12745408880E+04  0.12745408880E+04  0.00000000000E+00 0.  1.
    2000013    1    1    2    0    0 -0.81755486328E+03  0.49930860115E+03  0.19968200451E+03  0.13638467423E+04  0.95000000000E+03 0.  0.
   -2000013    1    1    2    0    0  0.81755486328E+03 -0.49930860115E+03 -0.35305424950E+02  0.13496116133E+04  0.95000000000E+03 0.  0.
<mgrwt>
<rscale>  0 0.27084750E+04</rscale>
<asrwt>0</asrwt>
<pdfrwt beam="2">  1        2 0.19608322E+00 0.27084750E+04</pdfrwt>
<pdfrwt beam="1">  1       -2 0.22137192E+00 0.27084750E+04</pdfrwt>
<totfact> 0.14530906E+00</totfact>
</mgrwt>
</event>
<event>
 4    1  0.1295381E-008  0.3236047E+04  0.7816531E-02  0.8179362E-01
         -2   -1    0    0    0  501 -0.00000000000E+00  0.00000000000E+00  0.87147579138E+03  0.87147579138E+03  0.00000000000E+00 0. -1.
          2   -1    0    0  501    0  0.00000000000E+00 -0.00000000000E+00 -0.30040986834E+04  0.30040986834E+04  0.00000000000E+00 0.  1.
    2000013    1    1    2    0    0 -0.10821385345E+04 -0.55833363639E+03 -0.48854019155E+03  0.16198554800E+04  0.95000000000E+03 0.  0.
   -2000013    1    1    2    0    0  0.10821385345E+04  0.55833363639E+03 -0.16440827004E+04  0.22557189947E+04  0.95000000000E+03 0.  0.
<mgrwt>
<rscale>  0 0.32360465E+04</rscale>
<asrwt>0</asrwt>
<pdfrwt beam="2">  1        2 0.46216902E+00 0.32360465E+04</pdfrwt>
<pdfrwt beam="1">  1       -2 0.13407320E+00 0.32360465E+04</pdfrwt>
<totfact> 0.58305431E-01</totfact>
</mgrwt>
</event>
<event>
 4    1  0.1295381E-008  0.2126897E+04  0.7816531E-02  0.8549487E-01
          2   -1    0    0  501    0  0.00000000000E+00  0.00000000000E+00  0.13450959843E+04  0.13450959843E+04  0.00000000000E+00 0.  1.
         -2   -1    0    0    0  501 -0.00000000000E+00 -0.00000000000E+00 -0.84077505051E+03  0.84077505051E+03  0.00000000000E+00 0. -1.
    2000013    1    1    2    0    0  0.26358580702E+02  0.24473849969E+03 -0.16887109098E+03  0.99579573878E+03  0.95000000000E+03 0.  0.
   -2000013    1    1    2    0    0 -0.26358580702E+02 -0.24473849969E+03  0.67319202475E+03  0.11900752960E+04  0.95000000000E+03 0.  0.
<mgrwt>
<rscale>  0 0.21268974E+04</rscale>
<asrwt>0</asrwt>
<pdfrwt beam="1">  1        2 0.20693784E+00 0.21268974E+04</pdfrwt>
<pdfrwt beam="2">  1       -2 0.12935001E+00 0.21268974E+04</pdfrwt>
<totfact> 0.62957537E+00</totfact>
</mgrwt>
</event>
<event>
 4    1  0.1295381E-008  0.2478343E+04  0.7816531E-02  0.8410742E-01
          1   -1    0    0  501    0  0.00000000000E+00  0.00000000000E+00  0.97652292120E+03  0.97652292120E+03  0.00000000000E+00 0.  1.
         -1   -1    0    0    0  501 -0.00000000000E+00 -0.00000000000E+00 -0.15724629036E+04  0.15724629036E+04  0.00000000000E+00 0. -1.
    2000013    1    1    2    0    0  0.16426289115E+03 -0.56430953675E+03  0.25361751574E+03  0.11455345455E+04  0.95000000000E+03 0.  0.
   -2000013    1    1    2    0    0 -0.16426289115E+03  0.56430953675E+03 -0.84955749811E+03  0.14034512793E+04  0.95000000000E+03 0.  0.
<mgrwt>
<rscale>  0 0.24783430E+04</rscale>
<asrwt>0</asrwt>
<pdfrwt beam="1">  1        1 0.15023430E+00 0.24783430E+04</pdfrwt>
<pdfrwt beam="2">  1       -1 0.24191737E+00 0.24783430E+04</pdfrwt>
<totfact> 0.11066928E+00</totfact>
</mgrwt>
</event>
<event>
 4    1  0.1295381E-008  0.2725716E+04  0.7816531E-02  0.8326709E-01
         -2   -1    0    0    0  501 -0.00000000000E+00  0.00000000000E+00  0.24393326581E+04  0.24393326581E+04  0.00000000000E+00 0. -1.
          2   -1    0    0  501    0  0.00000000000E+00 -0.00000000000E+00 -0.76143044872E+03  0.76143044872E+03  0.00000000000E+00 0.  1.
    2000013    1    1    2    0    0  0.81562715564E+03 -0.53540280124E+03  0.90303668474E+03  0.16339764596E+04  0.95000000000E+03 0.  0.
   -2000013    1    1    2    0    0 -0.81562715564E+03  0.53540280124E+03  0.77486552463E+03  0.15667866472E+04  0.95000000000E+03 0.  0.
<mgrwt>
<rscale>  0 0.27257162E+04</rscale>
<asrwt>0</asrwt>
<pdfrwt beam="2">  1        2 0.11714315E+00 0.27257162E+04</pdfrwt>
<pdfrwt beam="1">  1       -2 0.37528194E+00 0.27257162E+04</pdfrwt>
<totfact> 0.34563029E-01</totfact>
</mgrwt>
</event>
<event>
 4    1  0.1295381E-008  0.4026249E+04  0.7816531E-02  0.7999272E-01
          2   -1    0    0  501    0  0.00000000000E+00  0.00000000000E+00  0.22622683601E+04  0.22622683601E+04  0.00000000000E+00 0.  1.
         -2   -1    0    0    0  501 -0.00000000000E+00 -0.00000000000E+00 -0.17914191043E+04  0.17914191043E+04  0.00000000000E+00 0. -1.
    2000013    1    1    2    0    0  0.57868024584E+03  0.60353426842E+03 -0.13408263321E+04  0.18437569506E+04  0.95000000000E+03 0.  0.
   -2000013    1    1    2    0    0 -0.57868024584E+03 -0.60353426842E+03  0.18116755879E+04  0.22099305138E+04  0.95000000000E+03 0.  0.
<mgrwt>
<rscale>  0 0.40262493E+04</rscale>
<asrwt>0</asrwt>
<pdfrwt beam="1">  1        2 0.34804129E+00 0.40262493E+04</pdfrwt>
<pdfrwt beam="2">  1       -2 0.27560294E+00 0.40262493E+04</pdfrwt>
<totfact> 0.16795320E-01</totfact>
</mgrwt>
</event>
<event>
 4    1  0.1295381E-008  0.2269215E+04  0.7816531E-02  0.8490159E-01
          2   -1    0    0  501    0  0.00000000000E+00  0.00000000000E+00  0.22806163046E+04  0.22806163046E+04  0.00000000000E+00 0.  1.
         -2   -1    0    0    0  501 -0.00000000000E+00 -0.00000000000E+00 -0.56446789810E+03  0.56446789810E+03  0.00000000000E+00 0. -1.
    2000013    1    1    2    0    0 -0.35758360988E+03 -0.74263972307E+02  0.14867811349E+04  0.18017767117E+04  0.95000000000E+03 0.  0.
   -2000013    1    1    2    0    0  0.35758360988E+03  0.74263972307E+02  0.22936727168E+03  0.10433074911E+04  0.95000000000E+03 0.  0.
<mgrwt>
<rscale>  0 0.22692155E+04</rscale>
<asrwt>0</asrwt>
<pdfrwt beam="1">  1        2 0.35086404E+00 0.22692155E+04</pdfrwt>
<pdfrwt beam="2">  1       -2 0.86841216E-01 0.22692155E+04</pdfrwt>
<totfact> 0.48482491E+00</totfact>
</mgrwt>
</event>
<event>
 4    1  0.1295381E-008  0.3089951E+04  0.7816531E-02  0.8218501E-01
          1   -1    0    0  501    0  0.00000000000E+00  0.00000000000E+00  0.13984721406E+04  0.13984721406E+04  0.00000000000E+00 0.  1.
         -1   -1    0    0    0  501 -0.00000000000E+00 -0.00000000000E+00 -0.17068268827E+04  0.17068268827E+04  0.00000000000E+00 0. -1.
    2000013    1    1    2    0    0  0.64087882703E+03 -0.15402506725E+02 -0.11954157469E+04  0.16560439958E+04  0.95000000000E+03 0.  0.
   -2000013    1    1    2    0    0 -0.64087882703E+03  0.15402506725E+02  0.88706100481E+03  0.14492550274E+04  0.95000000000E+03 0.  0.
<mgrwt>
<rscale>  0 0.30899514E+04</rscale>
<asrwt>0</asrwt>
<pdfrwt beam="1">  1        1 0.21514956E+00 0.30899514E+04</pdfrwt>
<pdfrwt beam="2">  1       -1 0.26258875E+00 0.30899514E+04</pdfrwt>
<totfact> 0.37544389E-01</totfact>
</mgrwt>
</event>
<event>
 4    1  0.1295381E-008  0.2647872E+04  0.7816531E-02  0.8352120E-01
          2   -1    0    0  501    0  0.00000000000E+00  0.00000000000E+00  0.27307002404E+04  0.27307002404E+04  0.00000000000E+00 0.  1.
         -2   -1    0    0    0  501 -0.00000000000E+00 -0.00000000000E+00 -0.64188906917E+03  0.64188906917E+03  0.00000000000E+00 0. -1.
    2000013    1    1    2    0    0  0.21987225938E+03 -0.89439517270E+03  0.11016526079E+04  0.17217505638E+04  0.95000000000E+03 0.  0.
   -2000013    1    1    2    0    0 -0.21987225938E+03  0.89439517270E+03  0.98715856328E+03  0.16508387457E+04  0.95000000000E+03 0.  0.
<mgrwt>
<rscale>  0 0.26478721E+04</rscale>
<asrwt>0</asrwt>
<pdfrwt beam="1">  1        2 0.42010772E+00 0.26478721E+04</pdfrwt>
<pdfrwt beam="2">  1       -2 0.98752166E-01 0.26478721E+04</pdfrwt>
<totfact> 0.19080192E+00</totfact>
</mgrwt>
</event>
<event>
 4    1  0.1295381E-008  0.2447732E+04  0.7816531E-02  0.8421846E-01
         -2   -1    0    0    0  501 -0.00000000000E+00  0.00000000000E+00  0.64086450199E+03  0.64086450199E+03  0.00000000000E+00 0. -1.
          2   -1    0    0  501    0  0.00000000000E+00 -0.00000000000E+00 -0.23372310641E+04  0.23372310641E+04  0.00000000000E+00 0.  1.
    2000013    1    1    2    0    0  0.15996150580E+03 -0.74001540957E+03 -0.66715633396E+03  0.13859322002E+04  0.95000000000E+03 0.  0.
   -2000013    1    1    2    0    0 -0.15996150580E+03  0.74001540957E+03 -0.10292102281E+04  0.15921633658E+04  0.95000000000E+03 0.  0.
<mgrwt>
<rscale>  0 0.24477324E+04</rscale>
<asrwt>0</asrwt>
<pdfrwt beam="2">  1        2 0.35957401E+00 0.24477324E+04</pdfrwt>
<pdfrwt beam="1">  1       -2 0.98594538E-01 0.24477324E+04</pdfrwt>
<totfact> 0.33028985E+00</totfact>
</mgrwt>
</event>
<event>
 4    1  0.1295381E-008  0.3193831E+04  0.7816531E-02  0.8190448E-01
         -2   -1    0    0    0  501 -0.00000000000E+00  0.00000000000E+00  0.11676165156E+04  0.11676165156E+04  0.00000000000E+00 0. -1.
          2   -1    0    0  501    0  0.00000000000E+00 -0.00000000000E+00 -0.21840554859E+04  0.21840554859E+04  0.00000000000E+00 0.  1.
    2000013    1    1    2    0    0  0.38936181874E+02 -0.12208004304E+04 -0.94037852872E+02  0.15502299297E+04  0.95000000000E+03 0.  0.
   -2000013    1    1    2    0    0 -0.38936181874E+02  0.12208004304E+04 -0.92240111743E+03  0.18014420719E+04  0.95000000000E+03 0.  0.
<mgrwt>
<rscale>  0 0.31938311E+04</rscale>
<asrwt>0</asrwt>
<pdfrwt beam="2">  1        2 0.33600854E+00 0.31938311E+04</pdfrwt>
<pdfrwt beam="1">  1       -2 0.17963331E+00 0.31938311E+04</pdfrwt>
<totfact> 0.81004988E-01</totfact>
</mgrwt>
</event>
<event>
 4    1  0.1295381E-008  0.2739067E+04  0.7816531E-02  0.8322439E-01
         -2   -1    0    0    0  501 -0.00000000000E+00  0.00000000000E+00  0.14740674455E+04  0.14740674455E+04  0.00000000000E+00 0. -1.
          2   -1    0    0  501    0  0.00000000000E+00 -0.00000000000E+00 -0.12724129368E+04  0.12724129368E+04  0.00000000000E+00 0.  1.
    2000013    1    1    2    0    0 -0.76227591705E+03  0.14266468190E+02 -0.52684964249E+03  0.13271543436E+04  0.95000000000E+03 0.  0.
   -2000013    1    1    2    0    0  0.76227591705E+03 -0.14266468190E+02  0.72850415119E+03  0.14193260387E+04  0.95000000000E+03 0.  0.
<mgrwt>
<rscale>  0 0.27390674E+04</rscale>
<asrwt>0</asrwt>
<pdfrwt beam="2">  1        2 0.19575584E+00 0.27390674E+04</pdfrwt>
<pdfrwt beam="1">  1       -2 0.22677961E+00 0.27390674E+04</pdfrwt>
<totfact> 0.13439462E+00</totfact>
</mgrwt>
</event>
<event>
 4    1  0.1295381E-008  0.2538740E+04  0.7816531E-02  0.8389313E-01
         -1   -1    0    0    0  501 -0.00000000000E+00  0.00000000000E+00  0.34800596905E+04  0.34800596905E+04  0.00000000000E+00 0. -1.
          1   -1    0    0  501    0  0.00000000000E+00 -0.00000000000E+00 -0.46300926778E+03  0.46300926778E+03  0.00000000000E+00 0.  1.
    2000013    1    1    2    0    0 -0.83822239321E+03 -0.46736416156E+02  0.14103092884E+04  0.18963842865E+04  0.95000000000E+03 0.  0.
   -2000013    1    1    2    0    0  0.83822239321E+03  0.46736416156E+02  0.16067411343E+04  0.20466846718E+04  0.95000000000E+03 0.  0.
<mgrwt>
<rscale>  0 0.25387398E+04</rscale>
<asrwt>0</asrwt>
<pdfrwt beam="2">  1        1 0.71232197E-01 0.25387398E+04</pdfrwt>
<pdfrwt beam="1">  1       -1 0.53539378E+00 0.25387398E+04</pdfrwt>
<totfact> 0.39126032E-02</totfact>
</mgrwt>
</event>
<event>
 4    1  0.1295381E-008  0.5218231E+04  0.7816531E-02  0.7795697E-01
         -2   -1    0    0    0  501 -0.00000000000E+00  0.00000000000E+00  0.19306415899E+04  0.19306415899E+04  0.00000000000E+00 0. -1.
          2   -1    0    0  501    0  0.00000000000E+00 -0.00000000000E+00 -0.35260214718E+04  0.35260214718E+04  0.00000000000E+00 0.  1.
    2000013    1    1    2    0    0 -0.14506516435E+04  0.81582304430E+03 -0.26491929799E+04  0.32696606666E+04  0.95000000000E+03 0.  0.
   -2000013    1    1    2    0    0  0.14506516435E+04 -0.81582304430E+03  0.10538130979E+04  0.21870023950E+04  0.95000000000E+03 0.  0.
<mgrwt>
<rscale>  0 0.52182310E+04</rscale>
<asrwt>0</asrwt>
<pdfrwt beam="2">  1        2 0.54246484E+00 0.52182310E+04</pdfrwt>
<pdfrwt beam="1">  1       -2 0.29702179E+00 0.52182310E+04</pdfrwt>
<totfact> 0.18447234E-02</totfact>
</mgrwt>
</event>
<event>
 4    1  0.1295381E-008  0.3199594E+04  0.7816531E-02  0.8188924E-01
          2   -1    0    0  501    0  0.00000000000E+00  0.00000000000E+00  0.27759574692E+04  0.27759574692E+04  0.00000000000E+00 0.  1.
         -2   -1    0    0    0  501 -0.00000000000E+00 -0.00000000000E+00 -0.92197039854E+03  0.92197039854E+03  0.00000000000E+00 0. -1.
    2000013    1    1    2    0    0  0.12483819119E+04  0.43987391412E+02  0.56804399082E+03  0.16690015770E+04  0.95000000000E+03 0.  0.
   -2000013    1    1    2    0    0 -0.12483819119E+04 -0.43987391412E+02  0.12859430798E+04  0.20289262907E+04  0.95000000000E+03 0.  0.
<mgrwt>
<rscale>  0 0.31995941E+04</rscale>
<asrwt>0</asrwt>
<pdfrwt beam="1">  1        2 0.42707038E+00 0.31995941E+04</pdfrwt>
<pdfrwt beam="2">  1       -2 0.14184160E+00 0.31995941E+04</pdfrwt>
<totfact> 0.69864207E-01</totfact>
</mgrwt>
</event>
<event>
 4    1  0.1295381E-008  0.2540727E+04  0.7816531E-02  0.8388618E-01
         -2   -1    0    0    0  501 -0.00000000000E+00  0.00000000000E+00  0.14583554320E+04  0.14583554320E+04  0.00000000000E+00 0. -1.
          2   -1    0    0  501    0  0.00000000000E+00 -0.00000000000E+00 -0.11066046071E+04  0.11066046071E+04  0.00000000000E+00 0.  1.
    2000013    1    1    2    0    0 -0.93785659800E+02  0.77997736487E+03  0.48566116414E+03  0.13249630961E+04  0.95000000000E+03 0.  0.
   -2000013    1    1    2    0    0  0.93785659800E+02 -0.77997736487E+03 -0.13391033928E+03  0.12399969430E+04  0.95000000000E+03 0.  0.
<mgrwt>
<rscale>  0 0.25407265E+04</rscale>
<asrwt>0</asrwt>
<pdfrwt beam="2">  1        2 0.17024686E+00 0.25407265E+04</pdfrwt>
<pdfrwt beam="1">  1       -2 0.22436238E+00 0.25407265E+04</pdfrwt>
<totfact> 0.17793429E+00</totfact>
</mgrwt>
</event>
<event>
 4    1  0.1295381E-008  0.2439765E+04  0.7816531E-02  0.8424764E-01
          2   -1    0    0  501    0  0.00000000000E+00  0.00000000000E+00  0.21438543505E+04  0.21438543505E+04  0.00000000000E+00 0.  1.
         -2   -1    0    0    0  501 -0.00000000000E+00 -0.00000000000E+00 -0.69412975468E+03  0.69412975468E+03  0.00000000000E+00 0. -1.
    2000013    1    1    2    0    0  0.29779312747E+01 -0.74991052806E+03  0.90218541215E+03  0.15095738425E+04  0.95000000000E+03 0.  0.
   -2000013    1    1    2    0    0 -0.29779312747E+01  0.74991052806E+03  0.54753918363E+03  0.13284102626E+04  0.95000000000E+03 0.  0.
<mgrwt>
<rscale>  0 0.24397648E+04</rscale>
<asrwt>0</asrwt>
<pdfrwt beam="1">  1        2 0.32982374E+00 0.24397648E+04</pdfrwt>
<pdfrwt beam="2">  1       -2 0.10678919E+00 0.24397648E+04</pdfrwt>
<totfact> 0.35123896E+00</totfact>
</mgrwt>
</event>
<event>
 4    1  0.1295381E-008  0.3308171E+04  0.7816531E-02  0.8160819E-01
         -2   -1    0    0    0  501 -0.00000000000E+00  0.00000000000E+00  0.16922745987E+04  0.16922745987E+04  0.00000000000E+00 0. -1.
          2   -1    0    0  501    0  0.00000000000E+00 -0.00000000000E+00 -0.16167582382E+04  0.16167582382E+04  0.00000000000E+00 0.  1.
    2000013    1    1    2    0    0 -0.12254950039E+04  0.56751504191E+03 -0.60183472200E+02  0.16522812647E+04  0.95000000000E+03 0.  0.
   -2000013    1    1    2    0    0  0.12254950039E+04 -0.56751504191E+03  0.13569983263E+03  0.16567515722E+04  0.95000000000E+03 0.  0.
<mgrwt>
<rscale>  0 0.33081710E+04</rscale>
<asrwt>0</asrwt>
<pdfrwt beam="2">  1        2 0.24873204E+00 0.33081710E+04</pdfrwt>
<pdfrwt beam="1">  1       -2 0.26034994E+00 0.33081710E+04</pdfrwt>
<totfact> 0.50573290E-01</totfact>
</mgrwt>
</event>
<event>
 4    1  0.1295381E-008  0.2154134E+04  0.7816531E-02  0.8537765E-01
         -2   -1    0    0    0  501 -0.00000000000E+00  0.00000000000E+00  0.50469039073E+03  0.50469039073E+03  0.00000000000E+00 0. -1.
          2   -1    0    0  501    0  0.00000000000E+00 -0.00000000000E+00 -0.22985840700E+04  0.22985840700E+04  0.00000000000E+00 0.  1.
    2000013    1    1    2    0    0  0.44410898060E+03 -0.19745497110E+02 -0.57831457228E+03  0.11977355367E+04  0.95000000000E+03 0.  0.
   -2000013    1    1    2    0    0 -0.44410898060E+03  0.19745497110E+02 -0.12155791070E+04  0.16055389241E+04  0.95000000000E+03 0.  0.
<mgrwt>
<rscale>  0 0.21541340E+04</rscale>
<asrwt>0</asrwt>
<pdfrwt beam="2">  1        2 0.35362832E+00 0.21541340E+04</pdfrwt>
<pdfrwt beam="1">  1       -2 0.77644675E-01 0.21541340E+04</pdfrwt>
<totfact> 0.61595726E+00</totfact>
</mgrwt>
</event>
<event>
 4    1  0.1295381E-008  0.2521970E+04  0.7816531E-02  0.8395200E-01
         -2   -1    0    0    0  501 -0.00000000000E+00  0.00000000000E+00  0.86051837980E+03  0.86051837980E+03  0.00000000000E+00 0. -1.
          2   -1    0    0  501    0  0.00000000000E+00 -0.00000000000E+00 -0.18478198097E+04  0.18478198097E+04  0.00000000000E+00 0.  1.
    2000013    1    1    2    0    0 -0.46641933057E+02  0.69726367535E+03 -0.14313377601E+02  0.11794307846E+04  0.95000000000E+03 0.  0.
   -2000013    1    1    2    0    0  0.46641933057E+02 -0.69726367535E+03 -0.97298805235E+03  0.15289074049E+04  0.95000000000E+03 0.  0.
<mgrwt>
<rscale>  0 0.25219698E+04</rscale>
<asrwt>0</asrwt>
<pdfrwt beam="2">  1        2 0.28427997E+00 0.25219698E+04</pdfrwt>
<pdfrwt beam="1">  1       -2 0.13238744E+00 0.25219698E+04</pdfrwt>
<totfact> 0.29969820E+00</totfact>
</mgrwt>
</event>
<event>
 4    1  0.1295381E-008  0.2636643E+04  0.7816531E-02  0.8355860E-01
          2   -1    0    0  501    0  0.00000000000E+00  0.00000000000E+00  0.25431162390E+04  0.25431162390E+04  0.00000000000E+00 0.  1.
         -2   -1    0    0    0  501 -0.00000000000E+00 -0.00000000000E+00 -0.68340217849E+03  0.68340217849E+03  0.00000000000E+00 0. -1.
    2000013    1    1    2    0    0 -0.27897304219E+03 -0.80380444337E+03  0.13385576227E+04  0.18488277505E+04  0.95000000000E+03 0.  0.
   -2000013    1    1    2    0    0  0.27897304219E+03  0.80380444337E+03  0.52115643779E+03  0.13776906671E+04  0.95000000000E+03 0.  0.
<mgrwt>
<rscale>  0 0.26366427E+04</rscale>
<asrwt>0</asrwt>
<pdfrwt beam="1">  1        2 0.39124865E+00 0.26366427E+04</pdfrwt>
<pdfrwt beam="2">  1       -2 0.10513880E+00 0.26366427E+04</pdfrwt>
<totfact> 0.21227802E+00</totfact>
</mgrwt>
</event>
<event>
 4    1  0.1295381E-008  0.2289278E+04  0.7816531E-02  0.8482161E-01
         -1   -1    0    0    0  501 -0.00000000000E+00  0.00000000000E+00  0.13931038589E+04  0.13931038589E+04  0.00000000000E+00 0. -1.
          1   -1    0    0  501    0  0.00000000000E+00 -0.00000000000E+00 -0.94048875330E+03  0.94048875330E+03  0.00000000000E+00 0.  1.
    2000013    1    1    2    0    0 -0.30354929416E+03  0.54304700112E+03  0.79802474974E+02  0.11383807159E+04  0.95000000000E+03 0.  0.
   -2000013    1    1    2    0    0  0.30354929416E+03 -0.54304700112E+03  0.37281263064E+03  0.11952118963E+04  0.95000000000E+03 0.  0.
<mgrwt>
<rscale>  0 0.22892781E+04</rscale>
<asrwt>0</asrwt>
<pdfrwt beam="2">  1        1 0.14469058E+00 0.22892781E+04</pdfrwt>
<pdfrwt beam="1">  1       -1 0.21432367E+00 0.22892781E+04</pdfrwt>
<totfact> 0.18338749E+00</totfact>
</mgrwt>
</event>
<event>
 4    1  0.1295381E-008  0.2321514E+04  0.7816531E-02  0.8469486E-01
          2   -1    0    0  501    0  0.00000000000E+00  0.00000000000E+00  0.29283758015E+04  0.29283758015E+04  0.00000000000E+00 0.  1.
         -2   -1    0    0    0  501 -0.00000000000E+00 -0.00000000000E+00 -0.46010380578E+03  0.46010380578E+03  0.00000000000E+00 0. -1.
    2000013    1    1    2    0    0 -0.34901103048E+03 -0.76935139002E+02  0.41217419638E+03  0.10954977331E+04  0.95000000000E+03 0.  0.
   -2000013    1    1    2    0    0  0.34901103048E+03  0.76935139002E+02  0.20560977993E+04  0.22929818742E+04  0.95000000000E+03 0.  0.
<mgrwt>
<rscale>  0 0.23215140E+04</rscale>
<asrwt>0</asrwt>
<pdfrwt beam="1">  1        2 0.45051934E+00 0.23215140E+04</pdfrwt>
<pdfrwt beam="2">  1       -2 0.70785203E-01 0.23215140E+04</pdfrwt>
<totfact> 0.31697865E+00</totfact>
</mgrwt>
</event>
<event>
 4    1  0.1295381E-008  0.2463092E+04  0.7816531E-02  0.8416253E-01
          1   -1    0    0  501    0  0.00000000000E+00  0.00000000000E+00  0.31555255213E+04  0.31555255213E+04  0.00000000000E+00 0.  1.
         -1   -1    0    0    0  501 -0.00000000000E+00 -0.00000000000E+00 -0.48065062524E+03  0.48065062524E+03  0.00000000000E+00 0. -1.
    2000013    1    1    2    0    0  0.56280442273E+03  0.20467960047E+02  0.53285603177E+03  0.12262150326E+04  0.95000000000E+03 0.  0.
   -2000013    1    1    2    0    0 -0.56280442273E+03 -0.20467960047E+02  0.21420188643E+04  0.24099611139E+04  0.95000000000E+03 0.  0.
<mgrwt>
<rscale>  0 0.24630918E+04</rscale>
<asrwt>0</asrwt>
<pdfrwt beam="1">  1        1 0.48546545E+00 0.24630918E+04</pdfrwt>
<pdfrwt beam="2">  1       -1 0.73946252E-01 0.24630918E+04</pdfrwt>
<totfact> 0.75349306E-01</totfact>
</mgrwt>
</event>
<event>
 4    1  0.1295381E-008  0.2437756E+04  0.7816531E-02  0.8425502E-01
          2   -1    0    0  501    0  0.00000000000E+00  0.00000000000E+00  0.34290713814E+04  0.34290713814E+04  0.00000000000E+00 0.  1.
         -2   -1    0    0    0  501 -0.00000000000E+00 -0.00000000000E+00 -0.43325540397E+03  0.43325540397E+03  0.00000000000E+00 0. -1.
    2000013    1    1    2    0    0 -0.19883813473E+03  0.73430958989E+03  0.16032009412E+04  0.20128339314E+04  0.95000000000E+03 0.  0.
   -2000013    1    1    2    0    0  0.19883813473E+03 -0.73430958989E+03  0.13926150362E+04  0.18494928539E+04  0.95000000000E+03 0.  0.
<mgrwt>
<rscale>  0 0.24377561E+04</rscale>
<asrwt>0</asrwt>
<pdfrwt beam="1">  1        2 0.52754943E+00 0.24377561E+04</pdfrwt>
<pdfrwt beam="2">  1       -2 0.66654680E-01 0.24377561E+04</pdfrwt>
<totfact> 0.16904949E+00</totfact>
</mgrwt>
</event>
<event>
 4    1  0.1295381E-008  0.2876537E+04  0.7816531E-02  0.8279893E-01
         -2   -1    0    0    0  501 -0.00000000000E+00  0.00000000000E+00  0.78561779037E+03  0.78561779037E+03  0.00000000000E+00 0. -1.
          2   -1    0    0  501    0  0.00000000000E+00 -0.00000000000E+00 -0.26331073041E+04  0.26331073041E+04  0.00000000000E+00 0.  1.
    2000013    1    1    2    0    0 -0.13147242930E+03 -0.10315311139E+04 -0.12697852148E+04  0.18963638708E+04  0.95000000000E+03 0.  0.
   -2000013    1    1    2    0    0  0.13147242930E+03  0.10315311139E+04 -0.57770429896E+03  0.15223612238E+04  0.95000000000E+03 0.  0.
<mgrwt>
<rscale>  0 0.28765368E+04</rscale>
<asrwt>0</asrwt>
<pdfrwt beam="2">  1        2 0.40509343E+00 0.28765368E+04</pdfrwt>
<pdfrwt beam="1">  1       -2 0.12086427E+00 0.28765368E+04</pdfrwt>
<totfact> 0.13119351E+00</totfact>
</mgrwt>
</event>
<event>
 4    1  0.1295381E-008  0.3358035E+04  0.7816531E-02  0.8148283E-01
          2   -1    0    0  501    0  0.00000000000E+00  0.00000000000E+00  0.22381790912E+04  0.22381790912E+04  0.00000000000E+00 0.  1.
         -2   -1    0    0    0  501 -0.00000000000E+00 -0.00000000000E+00 -0.12595507701E+04  0.12595507701E+04  0.00000000000E+00 0. -1.
    2000013    1    1    2    0    0  0.66835480064E+03  0.78463872138E+03  0.14520164752E+04  0.20182189938E+04  0.95000000000E+03 0.  0.
   -2000013    1    1    2    0    0 -0.66835480064E+03 -0.78463872138E+03 -0.47338815405E+03  0.14795108675E+04  0.95000000000E+03 0.  0.
<mgrwt>
<rscale>  0 0.33580353E+04</rscale>
<asrwt>0</asrwt>
<pdfrwt beam="1">  1        2 0.34433524E+00 0.33580353E+04</pdfrwt>
<pdfrwt beam="2">  1       -2 0.19377704E+00 0.33580353E+04</pdfrwt>
<totfact> 0.59736963E-01</totfact>
</mgrwt>
</event>
<event>
 4    1  0.1295381E-008  0.2251968E+04  0.7816531E-02  0.8497104E-01
         -2   -1    0    0    0  501 -0.00000000000E+00  0.00000000000E+00  0.54515757771E+03  0.54515757771E+03  0.00000000000E+00 0. -1.
          2   -1    0    0  501    0  0.00000000000E+00 -0.00000000000E+00 -0.23256388035E+04  0.23256388035E+04  0.00000000000E+00 0.  1.
    2000013    1    1    2    0    0 -0.30660173380E+03  0.26509577181E+03 -0.14618537979E+04  0.17899153382E+04  0.95000000000E+03 0.  0.
   -2000013    1    1    2    0    0  0.30660173380E+03 -0.26509577181E+03 -0.31862742788E+03  0.10808810430E+04  0.95000000000E+03 0.  0.
<mgrwt>
<rscale>  0 0.22519677E+04</rscale>
<asrwt>0</asrwt>
<pdfrwt beam="2">  1        2 0.35779059E+00 0.22519677E+04</pdfrwt>
<pdfrwt beam="1">  1       -2 0.83870396E-01 0.22519677E+04</pdfrwt>
<totfact> 0.49559473E+00</totfact>
</mgrwt>
</event>
<event>
 4    1  0.1295381E-008  0.2712440E+04  0.7816531E-02  0.8330980E-01
          2   -1    0    0  501    0  0.00000000000E+00  0.00000000000E+00  0.11786098471E+04  0.11786098471E+04  0.00000000000E+00 0. -1.
         -2   -1    0    0    0  501 -0.00000000000E+00 -0.00000000000E+00 -0.15605951071E+04  0.15605951071E+04  0.00000000000E+00 0.  1.
    2000013    1    1    2    0    0 -0.37376275026E+03 -0.72936659084E+03  0.32902395137E+03  0.12970855708E+04  0.95000000000E+03 0.  0.
   -2000013    1    1    2    0    0  0.37376275026E+03  0.72936659084E+03 -0.71100921143E+03  0.14421193834E+04  0.95000000000E+03 0.  0.
<mgrwt>
<rscale>  0 0.27124401E+04</rscale>
<asrwt>0</asrwt>
<pdfrwt beam="1">  1        2 0.18132459E+00 0.27124401E+04</pdfrwt>
<pdfrwt beam="2">  1       -2 0.24009155E+00 0.27124401E+04</pdfrwt>
<totfact> 0.12648542E+00</totfact>
</mgrwt>
</event>
<event>
 4    1  0.1295381E-008  0.2341051E+04  0.7816531E-02  0.8461909E-01
          2   -1    0    0  501    0  0.00000000000E+00  0.00000000000E+00  0.83106814644E+03  0.83106814644E+03  0.00000000000E+00 0.  1.
         -2   -1    0    0    0  501 -0.00000000000E+00 -0.00000000000E+00 -0.16486367793E+04  0.16486367793E+04  0.00000000000E+00 0. -1.
    2000013    1    1    2    0    0 -0.25467960403E+03 -0.61417461127E+03 -0.57811949128E+03  0.12956829473E+04  0.95000000000E+03 0.  0.
   -2000013    1    1    2    0    0  0.25467960403E+03  0.61417461127E+03 -0.23944914153E+03  0.11840219783E+04  0.95000000000E+03 0.  0.
<mgrwt>
<rscale>  0 0.23410506E+04</rscale>
<asrwt>0</asrwt>
<pdfrwt beam="1">  1        2 0.12785664E+00 0.23410506E+04</pdfrwt>
<pdfrwt beam="2">  1       -2 0.25363643E+00 0.23410506E+04</pdfrwt>
<totfact> 0.18046861E+00</totfact>
</mgrwt>
</event>
<event>
 4    1  0.1295381E-008  0.3316153E+04  0.7816531E-02  0.8158797E-01
          2   -1    0    0  501    0  0.00000000000E+00  0.00000000000E+00  0.16838506654E+04  0.16838506654E+04  0.00000000000E+00 0.  1.
         -2   -1    0    0    0  501 -0.00000000000E+00 -0.00000000000E+00 -0.16326972159E+04  0.16326972159E+04  0.00000000000E+00 0. -1.
    2000013    1    1    2    0    0  0.13495050965E+04  0.85496938446E+02  0.16066522447E+03  0.16603575056E+04  0.95000000000E+03 0.  0.
   -2000013    1    1    2    0    0 -0.13495050965E+04 -0.85496938446E+02 -0.10951177499E+03  0.16561903758E+04  0.95000000000E+03 0.  0.
<mgrwt>
<rscale>  0 0.33161534E+04</rscale>
<asrwt>0</asrwt>
<pdfrwt beam="1">  1        2 0.25905395E+00 0.33161534E+04</pdfrwt>
<pdfrwt beam="2">  1       -2 0.25118419E+00 0.33161534E+04</pdfrwt>
<totfact> 0.52775517E-01</totfact>
</mgrwt>
</event>
<event>
 4    1  0.1295381E-008  0.2137441E+04  0.7816531E-02  0.8544927E-01
          2   -1    0    0  501    0  0.00000000000E+00  0.00000000000E+00  0.18498956619E+04  0.18498956619E+04  0.00000000000E+00 0.  1.
         -2   -1    0    0    0  501 -0.00000000000E+00 -0.00000000000E+00 -0.61742048618E+03  0.61742048618E+03  0.00000000000E+00 0. -1.
    2000013    1    1    2    0    0  0.66341843650E+02 -0.48252837003E+03  0.67312414273E+03  0.12620740785E+04  0.95000000000E+03 0.  0.
   -2000013    1    1    2    0    0 -0.66341843650E+02  0.48252837003E+03  0.55935103295E+03  0.12052420695E+04  0.95000000000E+03 0.  0.
<mgrwt>
<rscale>  0 0.21374410E+04</rscale>
<asrwt>0</asrwt>
<pdfrwt beam="1">  1        2 0.28459933E+00 0.21374410E+04</pdfrwt>
<pdfrwt beam="2">  1       -2 0.94987768E-01 0.21374410E+04</pdfrwt>
<totfact> 0.69339527E+00</totfact>
</mgrwt>
</event>
<event>
 4    1  0.1295381E-008  0.2340045E+04  0.7816531E-02  0.8462297E-01
          2   -1    0    0  501    0  0.00000000000E+00  0.00000000000E+00  0.30484725688E+04  0.30484725688E+04  0.00000000000E+00 0. -1.
         -2   -1    0    0    0  501 -0.00000000000E+00 -0.00000000000E+00 -0.44906176711E+03  0.44906176711E+03  0.00000000000E+00 0.  1.
    2000013    1    1    2    0    0 -0.61542501476E+03 -0.14159190984E+02  0.85757347587E+03  0.14201692498E+04  0.95000000000E+03 0.  0.
   -2000013    1    1    2    0    0  0.61542501476E+03  0.14159190984E+02  0.17418373258E+04  0.20773650861E+04  0.95000000000E+03 0.  0.
<mgrwt>
<rscale>  0 0.23400449E+04</rscale>
<asrwt>0</asrwt>
<pdfrwt beam="1">  1        2 0.46899577E+00 0.23400449E+04</pdfrwt>
<pdfrwt beam="2">  1       -2 0.69086428E-01 0.23400449E+04</pdfrwt>
<totfact> 0.28076860E+00</totfact>
</mgrwt>
</event>
<event>
 4    1  0.1295381E-008  0.2927273E+04  0.7816531E-02  0.8264809E-01
         -2   -1    0    0    0  501 -0.00000000000E+00  0.00000000000E+00  0.87016379275E+03  0.87016379275E+03  0.00000000000E+00 0. -1.
          2   -1    0    0  501    0  0.00000000000E+00 -0.00000000000E+00 -0.24618710992E+04  0.24618710992E+04  0.00000000000E+00 0.  1.
    2000013    1    1    2    0    0  0.97267125940E+03  0.52576699116E+03 -0.94518353681E+03  0.17373520732E+04  0.95000000000E+03 0.  0.
   -2000013    1    1    2    0    0 -0.97267125940E+03 -0.52576699116E+03 -0.64652376966E+03  0.15946828188E+04  0.95000000000E+03 0.  0.
<mgrwt>
<rscale>  0 0.29272725E+04</rscale>
<asrwt>0</asrwt>
<pdfrwt beam="2">  1        2 0.37874940E+00 0.29272725E+04</pdfrwt>
<pdfrwt beam="1">  1       -2 0.13387135E+00 0.29272725E+04</pdfrwt>
<totfact> 0.12710249E+00</totfact>
</mgrwt>
</event>
<event>
 4    1  0.1295381E-008  0.2483596E+04  0.7816531E-02  0.8408853E-01
         -2   -1    0    0    0  501 -0.00000000000E+00  0.00000000000E+00  0.91733076457E+03  0.91733076457E+03  0.00000000000E+00 0.  1.
          2   -1    0    0  501    0  0.00000000000E+00 -0.00000000000E+00 -0.16810321053E+04  0.16810321053E+04  0.00000000000E+00 0. -1.
    2000013    1    1    2    0    0 -0.77941216234E+03 -0.16961145814E+03 -0.32164948673E+03  0.12814873225E+04  0.95000000000E+03 0.  0.
   -2000013    1    1    2    0    0  0.77941216234E+03  0.16961145814E+03 -0.44205185403E+03  0.13168755473E+04  0.95000000000E+03 0.  0.
<mgrwt>
<rscale>  0 0.24835962E+04</rscale>
<asrwt>0</asrwt>
<pdfrwt beam="2">  1        2 0.25862032E+00 0.24835962E+04</pdfrwt>
<pdfrwt beam="1">  1       -2 0.14112781E+00 0.24835962E+04</pdfrwt>
<totfact> 0.31569671E+00</totfact>
</mgrwt>
</event>
<event>
 4    1  0.1295381E-008  0.3065456E+04  0.7816531E-02  0.8225283E-01
          2   -1    0    0  501    0  0.00000000000E+00  0.00000000000E+00  0.34762329753E+04  0.34762329753E+04  0.00000000000E+00 0.  1.
         -2   -1    0    0    0  501 -0.00000000000E+00 -0.00000000000E+00 -0.67580475500E+03  0.67580475500E+03  0.00000000000E+00 0. -1.
    2000013    1    1    2    0    0 -0.89339599055E+03 -0.79156572201E+03  0.11992143848E+04  0.19404504191E+04  0.95000000000E+03 0.  0.
   -2000013    1    1    2    0    0  0.89339599055E+03  0.79156572201E+03  0.16012138355E+04  0.22115873113E+04  0.95000000000E+03 0.  0.
<mgrwt>
<rscale>  0 0.30654558E+04</rscale>
<asrwt>0</asrwt>
<pdfrwt beam="1">  1        2 0.53480506E+00 0.30654558E+04</pdfrwt>
<pdfrwt beam="2">  1       -2 0.10396996E+00 0.30654558E+04</pdfrwt>
<totfact> 0.54078488E-01</totfact>
</mgrwt>
</event>
<event>
 4    1  0.1295381E-008  0.2509475E+04  0.7816531E-02  0.8399618E-01
         -2   -1    0    0    0  501 -0.00000000000E+00  0.00000000000E+00  0.23745812589E+04  0.23745812589E+04  0.00000000000E+00 0.  1.
          2   -1    0    0  501    0  0.00000000000E+00 -0.00000000000E+00 -0.66300796435E+03  0.66300796435E+03  0.00000000000E+00 0. -1.
    2000013    1    1    2    0    0 -0.78920208831E+03 -0.83041759563E+02  0.11042395265E+04  0.16587889564E+04  0.95000000000E+03 0.  0.
   -2000013    1    1    2    0    0  0.78920208831E+03  0.83041759563E+02  0.60733376802E+03  0.13788002668E+04  0.95000000000E+03 0.  0.
<mgrwt>
<rscale>  0 0.25094751E+04</rscale>
<asrwt>0</asrwt>
<pdfrwt beam="2">  1        2 0.10200123E+00 0.25094751E+04</pdfrwt>
<pdfrwt beam="1">  1       -2 0.36532019E+00 0.25094751E+04</pdfrwt>
<totfact> 0.48650320E-01</totfact>
</mgrwt>
</event>
<event>
 4    1  0.1295381E-008  0.2284416E+04  0.7816531E-02  0.8484091E-01
         -2   -1    0    0    0  501 -0.00000000000E+00  0.00000000000E+00  0.12873414539E+04  0.12873414539E+04  0.00000000000E+00 0. -1.
          2   -1    0    0  501    0  0.00000000000E+00 -0.00000000000E+00 -0.10134369396E+04  0.10134369396E+04  0.00000000000E+00 0.  1.
    2000013    1    1    2    0    0  0.74166035819E+02 -0.62445190833E+03  0.54521086804E+02  0.11405758789E+04  0.95000000000E+03 0.  0.
   -2000013    1    1    2    0    0 -0.74166035819E+02  0.62445190833E+03  0.21938342748E+03  0.11602025146E+04  0.95000000000E+03 0.  0.
<mgrwt>
<rscale>  0 0.22844162E+04</rscale>
<asrwt>0</asrwt>
<pdfrwt beam="2">  1        2 0.15591338E+00 0.22844162E+04</pdfrwt>
<pdfrwt beam="1">  1       -2 0.19805253E+00 0.22844162E+04</pdfrwt>
<totfact> 0.30700202E+00</totfact>
</mgrwt>
</event>
<event>
 4    1  0.1295381E-008  0.2284112E+04  0.7816531E-02  0.8484212E-01
         -2   -1    0    0    0  501 -0.00000000000E+00  0.00000000000E+00  0.42196959797E+03  0.42196959797E+03  0.00000000000E+00 0.  1.
          2   -1    0    0  501    0  0.00000000000E+00 -0.00000000000E+00 -0.30909607693E+04  0.30909607693E+04  0.00000000000E+00 0. -1.
    2000013    1    1    2    0    0 -0.21304417121E+03 -0.56569187823E+03 -0.10410813684E+04  0.15335401969E+04  0.95000000000E+03 0.  0.
   -2000013    1    1    2    0    0  0.21304417121E+03  0.56569187823E+03 -0.16279098029E+04  0.19793901703E+04  0.95000000000E+03 0.  0.
<mgrwt>
<rscale>  0 0.22841116E+04</rscale>
<asrwt>0</asrwt>
<pdfrwt beam="2">  1        2 0.47553243E+00 0.22841116E+04</pdfrwt>
<pdfrwt beam="1">  1       -2 0.64918399E-01 0.22841116E+04</pdfrwt>
<totfact> 0.30339489E+00</totfact>
</mgrwt>
</event>
<event>
 4    1  0.1295381E-008  0.2361330E+04  0.7816531E-02  0.8454124E-01
          2   -1    0    0  501    0  0.00000000000E+00  0.00000000000E+00  0.11466970933E+04  0.11466970933E+04  0.00000000000E+00 0.  1.
         -2   -1    0    0    0  501 -0.00000000000E+00 -0.00000000000E+00 -0.12156395559E+04  0.12156395559E+04  0.00000000000E+00 0. -1.
    2000013    1    1    2    0    0  0.33789379222E+03 -0.71554557312E+02 -0.64479518830E+03  0.11989800267E+04  0.95000000000E+03 0.  0.
   -2000013    1    1    2    0    0 -0.33789379222E+03  0.71554557312E+02  0.57585272566E+03  0.11633566225E+04  0.95000000000E+03 0.  0.
<mgrwt>
<rscale>  0 0.23613304E+04</rscale>
<asrwt>0</asrwt>
<pdfrwt beam="1">  1        2 0.17641494E+00 0.23613304E+04</pdfrwt>
<pdfrwt beam="2">  1       -2 0.18702147E+00 0.23613304E+04</pdfrwt>
<totfact> 0.29867351E+00</totfact>
</mgrwt>
</event>
<event>
 4    1  0.1295381E-008  0.2650578E+04  0.7816531E-02  0.8351221E-01
         -4   -1    0    0    0  501 -0.00000000000E+00  0.00000000000E+00  0.36098785388E+04  0.36098785388E+04  0.00000000000E+00 0. -1.
          4   -1    0    0  501    0  0.00000000000E+00 -0.00000000000E+00 -0.48655107947E+03  0.48655107947E+03  0.00000000000E+00 0.  1.
    2000013    1    1    2    0    0 -0.44500055464E+03  0.52198343528E+03  0.25186153118E+04  0.27778436401E+04  0.95000000000E+03 0.  0.
   -2000013    1    1    2    0    0  0.44500055464E+03 -0.52198343528E+03  0.60471214756E+03  0.13185859781E+04  0.95000000000E+03 0.  0.
<mgrwt>
<rscale>  0 0.26505775E+04</rscale>
<asrwt>0</asrwt>
<pdfrwt beam="2">  1        4 0.74854015E-01 0.26505775E+04</pdfrwt>
<pdfrwt beam="1">  1       -4 0.55536591E+00 0.26505775E+04</pdfrwt>
<totfact> 0.11793833E-03</totfact>
</mgrwt>
</event>
<event>
 4    1  0.1295381E-008  0.2890502E+04  0.7816531E-02  0.8275709E-01
          2   -1    0    0  501    0  0.00000000000E+00  0.00000000000E+00  0.26104792078E+04  0.26104792078E+04  0.00000000000E+00 0.  1.
         -2   -1    0    0    0  501 -0.00000000000E+00 -0.00000000000E+00 -0.80014075758E+03  0.80014075758E+03  0.00000000000E+00 0. -1.
    2000013    1    1    2    0    0  0.10597756084E+04  0.19214093337E+03  0.10961896094E+04  0.18067025594E+04  0.95000000000E+03 0.  0.
   -2000013    1    1    2    0    0 -0.10597756084E+04 -0.19214093337E+03  0.71414884079E+03  0.16039174060E+04  0.95000000000E+03 0.  0.
<mgrwt>
<rscale>  0 0.28905022E+04</rscale>
<asrwt>0</asrwt>
<pdfrwt beam="1">  1        2 0.40161218E+00 0.28905022E+04</pdfrwt>
<pdfrwt beam="2">  1       -2 0.12309858E+00 0.28905022E+04</pdfrwt>
<totfact> 0.12908900E+00</totfact>
</mgrwt>
</event>
<event>
 4    1  0.1295381E-008  0.2628653E+04  0.7816531E-02  0.8358533E-01
          2   -1    0    0  501    0  0.00000000000E+00  0.00000000000E+00  0.25469806737E+04  0.25469806737E+04  0.00000000000E+00 0.  1.
         -2   -1    0    0    0  501 -0.00000000000E+00 -0.00000000000E+00 -0.67823611492E+03  0.67823611492E+03  0.00000000000E+00 0. -1.
    2000013    1    1    2    0    0  0.82151522536E+03  0.21558239802E+03  0.53947226122E+03  0.13837967179E+04  0.95000000000E+03 0.  0.
   -2000013    1    1    2    0    0 -0.82151522536E+03 -0.21558239802E+03  0.13292722976E+04  0.18414200708E+04  0.95000000000E+03 0.  0.
<mgrwt>
<rscale>  0 0.26286531E+04</rscale>
<asrwt>0</asrwt>
<pdfrwt beam="1">  1        2 0.39184318E+00 0.26286531E+04</pdfrwt>
<pdfrwt beam="2">  1       -2 0.10434402E+00 0.26286531E+04</pdfrwt>
<totfact> 0.21520498E+00</totfact>
</mgrwt>
</event>
<event>
 4    1  0.1295381E-008  0.2907169E+04  0.7816531E-02  0.8270748E-01
         -2   -1    0    0    0  501 -0.00000000000E+00  0.00000000000E+00  0.13270345235E+04  0.13270345235E+04  0.00000000000E+00 0. -1.
          2   -1    0    0  501    0  0.00000000000E+00 -0.00000000000E+00 -0.15922024529E+04  0.15922024529E+04  0.00000000000E+00 0.  1.
    2000013    1    1    2    0    0 -0.10653981807E+04 -0.26032465848E+03 -0.45243520041E+02  0.14516849477E+04  0.95000000000E+03 0.  0.
   -2000013    1    1    2    0    0  0.10653981807E+04  0.26032465848E+03 -0.21992440929E+03  0.14675520287E+04  0.95000000000E+03 0.  0.
<mgrwt>
<rscale>  0 0.29071688E+04</rscale>
<asrwt>0</asrwt>
<pdfrwt beam="2">  1        2 0.24495422E+00 0.29071688E+04</pdfrwt>
<pdfrwt beam="1">  1       -2 0.20415916E+00 0.29071688E+04</pdfrwt>
<totfact> 0.12139345E+00</totfact>
</mgrwt>
</event>
<event>
 4    1  0.1295381E-008  0.2404156E+04  0.7816531E-02  0.8437949E-01
         -2   -1    0    0    0  501 -0.00000000000E+00  0.00000000000E+00  0.58816260215E+03  0.58816260215E+03  0.00000000000E+00 0. -1.
          2   -1    0    0  501    0  0.00000000000E+00 -0.00000000000E+00 -0.24567887548E+04  0.24567887548E+04  0.00000000000E+00 0.  1.
    2000013    1    1    2    0    0  0.72769986204E+03  0.10473846345E+03 -0.99058540014E+03  0.15570088856E+04  0.95000000000E+03 0.  0.
   -2000013    1    1    2    0    0 -0.72769986204E+03 -0.10473846345E+03 -0.87804075253E+03  0.14879424714E+04  0.95000000000E+03 0.  0.
<mgrwt>
<rscale>  0 0.24041558E+04</rscale>
<asrwt>0</asrwt>
<pdfrwt beam="2">  1        2 0.37796751E+00 0.24041558E+04</pdfrwt>
<pdfrwt beam="1">  1       -2 0.90486553E-01 0.24041558E+04</pdfrwt>
<totfact> 0.34591852E+00</totfact>
</mgrwt>
</event>
<event>
 4    1  0.1295381E-008  0.2206551E+04  0.7816531E-02  0.8515706E-01
          2   -1    0    0  501    0  0.00000000000E+00  0.00000000000E+00  0.11298260365E+04  0.11298260365E+04  0.00000000000E+00 0.  1.
         -2   -1    0    0    0  501 -0.00000000000E+00 -0.00000000000E+00 -0.10773492553E+04  0.10773492553E+04  0.00000000000E+00 0. -1.
    2000013    1    1    2    0    0  0.30507475093E+03  0.39116698171E+03  0.28829534526E+03  0.11098181911E+04  0.95000000000E+03 0.  0.
   -2000013    1    1    2    0    0 -0.30507475093E+03 -0.39116698171E+03 -0.23581856401E+03  0.10973571007E+04  0.95000000000E+03 0.  0.
<mgrwt>
<rscale>  0 0.22065514E+04</rscale>
<asrwt>0</asrwt>
<pdfrwt beam="1">  1        2 0.17381939E+00 0.22065514E+04</pdfrwt>
<pdfrwt beam="2">  1       -2 0.16574604E+00 0.22065514E+04</pdfrwt>
<totfact> 0.43626322E+00</totfact>
</mgrwt>
</event>
<event>
 4    1  0.1295381E-008  0.3770727E+04  0.7816531E-02  0.8052466E-01
          2   -1    0    0  501    0  0.00000000000E+00  0.00000000000E+00  0.28747212731E+04  0.28747212731E+04  0.00000000000E+00 0.  1.
         -2   -1    0    0    0  501 -0.00000000000E+00 -0.00000000000E+00 -0.12365008666E+04  0.12365008666E+04  0.00000000000E+00 0. -1.
    2000013    1    1    2    0    0 -0.15103463389E+04  0.48774711174E+03  0.42140925349E+03  0.18971370713E+04  0.95000000000E+03 0.  0.
   -2000013    1    1    2    0    0  0.15103463389E+04 -0.48774711174E+03  0.12168111529E+04  0.22140850684E+04  0.95000000000E+03 0.  0.
<mgrwt>
<rscale>  0 0.37707269E+04</rscale>
<asrwt>0</asrwt>
<pdfrwt beam="1">  1        2 0.44226481E+00 0.37707269E+04</pdfrwt>
<pdfrwt beam="2">  1       -2 0.19023090E+00 0.37707269E+04</pdfrwt>
<totfact> 0.25836482E-01</totfact>
</mgrwt>
</event>
<event>
 4    1  0.1295381E-008  0.2689372E+04  0.7816531E-02  0.8338461E-01
         -1   -1    0    0    0  501 -0.00000000000E+00  0.00000000000E+00  0.13684529856E+04  0.13684529856E+04  0.00000000000E+00 0. -1.
          1   -1    0    0  501    0  0.00000000000E+00 -0.00000000000E+00 -0.13213321621E+04  0.13213321621E+04  0.00000000000E+00 0.  1.
    2000013    1    1    2    0    0 -0.89713835103E+03  0.71770902427E+02 -0.28579703428E+03  0.13394731159E+04  0.95000000000E+03 0.  0.
   -2000013    1    1    2    0    0  0.89713835103E+03 -0.71770902427E+02  0.33291785770E+03  0.13503120318E+04  0.95000000000E+03 0.  0.
<mgrwt>
<rscale>  0 0.26893724E+04</rscale>
<asrwt>0</asrwt>
<pdfrwt beam="2">  1        1 0.20328187E+00 0.26893724E+04</pdfrwt>
<pdfrwt beam="1">  1       -1 0.21053123E+00 0.26893724E+04</pdfrwt>
<totfact> 0.97319238E-01</totfact>
</mgrwt>
</event>
<event>
 4    1  0.1295381E-008  0.2455948E+04  0.7816531E-02  0.8418849E-01
          1   -1    0    0  501    0  0.00000000000E+00  0.00000000000E+00  0.20703460140E+04  0.20703460140E+04  0.00000000000E+00 0.  1.
         -1   -1    0    0    0  501 -0.00000000000E+00 -0.00000000000E+00 -0.72834218837E+03  0.72834218837E+03  0.00000000000E+00 0. -1.
    2000013    1    1    2    0    0  0.15110661084E+02  0.74044161002E+03  0.39908430731E+03  0.12689564194E+04  0.95000000000E+03 0.  0.
   -2000013    1    1    2    0    0 -0.15110661084E+02 -0.74044161002E+03  0.94291951834E+03  0.15297317830E+04  0.95000000000E+03 0.  0.
<mgrwt>
<rscale>  0 0.24559482E+04</rscale>
<asrwt>0</asrwt>
<pdfrwt beam="1">  1        1 0.31851477E+00 0.24559482E+04</pdfrwt>
<pdfrwt beam="2">  1       -1 0.11205265E+00 0.24559482E+04</pdfrwt>
<totfact> 0.17384611E+00</totfact>
</mgrwt>
</event>
<event>
 4    1  0.1295381E-008  0.2697823E+04  0.7816531E-02  0.8335712E-01
          1   -1    0    0  501    0  0.00000000000E+00  0.00000000000E+00  0.17506909248E+04  0.17506909248E+04  0.00000000000E+00 0.  1.
         -1   -1    0    0    0  501 -0.00000000000E+00 -0.00000000000E+00 -0.10393397200E+04  0.10393397200E+04  0.00000000000E+00 0. -1.
    2000013    1    1    2    0    0  0.63258657074E+03 -0.68414946199E+03  0.58421817800E+03  0.14532849464E+04  0.95000000000E+03 0.  0.
   -2000013    1    1    2    0    0 -0.63258657074E+03  0.68414946199E+03  0.12713302675E+03  0.13367456984E+04  0.95000000000E+03 0.  0.
<mgrwt>
<rscale>  0 0.26978233E+04</rscale>
<asrwt>0</asrwt>
<pdfrwt beam="1">  1        1 0.26933707E+00 0.26978233E+04</pdfrwt>
<pdfrwt beam="2">  1       -1 0.15989842E+00 0.26978233E+04</pdfrwt>
<totfact> 0.11252942E+00</totfact>
</mgrwt>
</event>
<event>
 4    1  0.1295381E-008  0.2867224E+04  0.7816531E-02  0.8282696E-01
          1   -1    0    0  501    0  0.00000000000E+00  0.00000000000E+00  0.25105593603E+04  0.25105593603E+04  0.00000000000E+00 0.  1.
         -1   -1    0    0    0  501 -0.00000000000E+00 -0.00000000000E+00 -0.81863988045E+03  0.81863988045E+03  0.00000000000E+00 0. -1.
    2000013    1    1    2    0    0 -0.49751675365E+03  0.91298159644E+03  0.53507861316E+03  0.15066079244E+04  0.95000000000E+03 0.  0.
   -2000013    1    1    2    0    0  0.49751675365E+03 -0.91298159644E+03  0.11568408667E+04  0.18225913164E+04  0.95000000000E+03 0.  0.
<mgrwt>
<rscale>  0 0.28672245E+04</rscale>
<asrwt>0</asrwt>
<pdfrwt beam="1">  1        1 0.38623990E+00 0.28672245E+04</pdfrwt>
<pdfrwt beam="2">  1       -1 0.12594460E+00 0.28672245E+04</pdfrwt>
<totfact> 0.62944456E-01</totfact>
</mgrwt>
</event>
<event>
 4    1  0.1295381E-008  0.3122913E+04  0.7816531E-02  0.8209478E-01
         -2   -1    0    0    0  501 -0.00000000000E+00  0.00000000000E+00  0.10280119269E+04  0.10280119269E+04  0.00000000000E+00 0. -1.
          2   -1    0    0  501    0  0.00000000000E+00 -0.00000000000E+00 -0.23717100521E+04  0.23717100521E+04  0.00000000000E+00 0.  1.
    2000013    1    1    2    0    0 -0.68871411255E+03  0.10161501635E+04 -0.48723601218E+03  0.16268949613E+04  0.95000000000E+03 0.  0.
   -2000013    1    1    2    0    0  0.68871411255E+03 -0.10161501635E+04 -0.85646211299E+03  0.17728270177E+04  0.95000000000E+03 0.  0.
<mgrwt>
<rscale>  0 0.31229129E+04</rscale>
<asrwt>0</asrwt>
<pdfrwt beam="2">  1        2 0.36487847E+00 0.31229129E+04</pdfrwt>
<pdfrwt beam="1">  1       -2 0.15815568E+00 0.31229129E+04</pdfrwt>
<totfact> 0.90897608E-01</totfact>
</mgrwt>
</event>
<event>
 4    1  0.1295381E-008  0.2198471E+04  0.7816531E-02  0.8519065E-01
          2   -1    0    0  501    0  0.00000000000E+00  0.00000000000E+00  0.30204199733E+04  0.30204199733E+04  0.00000000000E+00 0.  1.
         -2   -1    0    0    0  501 -0.00000000000E+00 -0.00000000000E+00 -0.40004972576E+03  0.40004972576E+03  0.00000000000E+00 0. -1.
    2000013    1    1    2    0    0 -0.88606959765E+02  0.42118026160E+03  0.18504319793E+04  0.21241098173E+04  0.95000000000E+03 0.  0.
   -2000013    1    1    2    0    0  0.88606959765E+02 -0.42118026160E+03  0.76993826827E+03  0.12963598818E+04  0.95000000000E+03 0.  0.
<mgrwt>
<rscale>  0 0.21984705E+04</rscale>
<asrwt>0</asrwt>
<pdfrwt beam="1">  1        2 0.46467998E+00 0.21984705E+04</pdfrwt>
<pdfrwt beam="2">  1       -2 0.61546113E-01 0.21984705E+04</pdfrwt>
<totfact> 0.37968814E+00</totfact>
</mgrwt>
</event>
<event>
 4    1  0.1295381E-008  0.2565525E+04  0.7816531E-02  0.8380007E-01
         -4   -1    0    0    0  501 -0.00000000000E+00  0.00000000000E+00  0.12149182226E+04  0.12149182226E+04  0.00000000000E+00 0. -1.
          4   -1    0    0  501    0  0.00000000000E+00 -0.00000000000E+00 -0.13543956566E+04  0.13543956566E+04  0.00000000000E+00 0.  1.
    2000013    1    1    2    0    0  0.36702284491E+03  0.72807118977E+03  0.21029276505E+03  0.12694551875E+04  0.95000000000E+03 0.  0.
   -2000013    1    1    2    0    0 -0.36702284491E+03 -0.72807118977E+03 -0.34977019910E+03  0.12998586916E+04  0.95000000000E+03 0.  0.
<mgrwt>
<rscale>  0 0.25655253E+04</rscale>
<asrwt>0</asrwt>
<pdfrwt beam="2">  1        4 0.20836856E+00 0.25655253E+04</pdfrwt>
<pdfrwt beam="1">  1       -4 0.18691050E+00 0.25655253E+04</pdfrwt>
<totfact> 0.33031843E-02</totfact>
</mgrwt>
</event>
<event>
 4    1  0.1295381E-008  0.2178128E+04  0.7816531E-02  0.8527587E-01
          2   -1    0    0  501    0  0.00000000000E+00  0.00000000000E+00  0.12333871775E+04  0.12333871775E+04  0.00000000000E+00 0.  1.
         -2   -1    0    0    0  501 -0.00000000000E+00 -0.00000000000E+00 -0.96162891117E+03  0.96162891117E+03  0.00000000000E+00 0. -1.
    2000013    1    1    2    0    0  0.46177741433E+03 -0.16420368530E+03 -0.73964870853E+02  0.10715278964E+04  0.95000000000E+03 0.  0.
   -2000013    1    1    2    0    0 -0.46177741433E+03  0.16420368530E+03  0.34572313722E+03  0.11234881923E+04  0.95000000000E+03 0.  0.
<mgrwt>
<rscale>  0 0.21781283E+04</rscale>
<asrwt>0</asrwt>
<pdfrwt beam="1">  1        2 0.18975188E+00 0.21781283E+04</pdfrwt>
<pdfrwt beam="2">  1       -2 0.14794291E+00 0.21781283E+04</pdfrwt>
<totfact> 0.51493003E+00</totfact>
</mgrwt>
</event>
<event>
 4    1  0.1295381E-008  0.2198911E+04  0.7816531E-02  0.8518882E-01
         -1   -1    0    0    0  501 -0.00000000000E+00  0.00000000000E+00  0.15239440257E+04  0.15239440257E+04  0.00000000000E+00 0.  1.
          1   -1    0    0  501    0  0.00000000000E+00 -0.00000000000E+00 -0.79320643333E+03  0.79320643333E+03  0.00000000000E+00 0. -1.
    2000013    1    1    2    0    0  0.31980497219E+03  0.45840880942E+02  0.83889313541E+03  0.13079060743E+04  0.95000000000E+03 0.  0.
   -2000013    1    1    2    0    0 -0.31980497219E+03 -0.45840880942E+02 -0.10815554302E+03  0.10092443847E+04  0.95000000000E+03 0.  0.
<mgrwt>
<rscale>  0 0.21989108E+04</rscale>
<asrwt>0</asrwt>
<pdfrwt beam="2">  1        1 0.12203176E+00 0.21989108E+04</pdfrwt>
<pdfrwt beam="1">  1       -1 0.23445293E+00 0.21989108E+04</pdfrwt>
<totfact> 0.18023450E+00</totfact>
</mgrwt>
</event>
<event>
 4    1  0.1295381E-008  0.2137353E+04  0.7816531E-02  0.8544965E-01
         -2   -1    0    0    0  501 -0.00000000000E+00  0.00000000000E+00  0.40593861746E+03  0.40593861746E+03  0.00000000000E+00 0. -1.
          2   -1    0    0  501    0  0.00000000000E+00 -0.00000000000E+00 -0.28134056308E+04  0.28134056308E+04  0.00000000000E+00 0.  1.
    2000013    1    1    2    0    0  0.41959702390E+03  0.25166202820E+03 -0.12236335946E+04  0.16245536657E+04  0.95000000000E+03 0.  0.
   -2000013    1    1    2    0    0 -0.41959702390E+03 -0.25166202820E+03 -0.11838334187E+04  0.15947905825E+04  0.95000000000E+03 0.  0.
<mgrwt>
<rscale>  0 0.21373535E+04</rscale>
<asrwt>0</asrwt>
<pdfrwt beam="2">  1        2 0.43283163E+00 0.21373535E+04</pdfrwt>
<pdfrwt beam="1">  1       -2 0.62452096E-01 0.21373535E+04</pdfrwt>
<totfact> 0.49641957E+00</totfact>
</mgrwt>
</event>
<event>
 4    1  0.1295381E-008  0.2622597E+04  0.7816531E-02  0.8360566E-01
         -2   -1    0    0    0  501 -0.00000000000E+00  0.00000000000E+00  0.11420165500E+04  0.11420165500E+04  0.00000000000E+00 0. -1.
          2   -1    0    0  501    0  0.00000000000E+00 -0.00000000000E+00 -0.15056728574E+04  0.15056728574E+04  0.00000000000E+00 0.  1.
    2000013    1    1    2    0    0  0.51877978115E+03  0.65694360582E+03  0.16245664362E+03  0.12765576852E+04  0.95000000000E+03 0.  0.
   -2000013    1    1    2    0    0 -0.51877978115E+03 -0.65694360582E+03 -0.52611295100E+03  0.13711317223E+04  0.95000000000E+03 0.  0.
<mgrwt>
<rscale>  0 0.26225967E+04</rscale>
<asrwt>0</asrwt>
<pdfrwt beam="2">  1        2 0.23164198E+00 0.26225967E+04</pdfrwt>
<pdfrwt beam="1">  1       -2 0.17569485E+00 0.26225967E+04</pdfrwt>
<totfact> 0.21617595E+00</totfact>
</mgrwt>
</event>
<event>
 4    1  0.1295381E-008  0.2320769E+04  0.7816531E-02  0.8469777E-01
          2   -1    0    0  501    0  0.00000000000E+00  0.00000000000E+00  0.18017504066E+04  0.18017504066E+04  0.00000000000E+00 0.  1.
         -2   -1    0    0    0  501 -0.00000000000E+00 -0.00000000000E+00 -0.74732433273E+03  0.74732433273E+03  0.00000000000E+00 0. -1.
    2000013    1    1    2    0    0 -0.59586260798E+03 -0.27740224697E+03  0.64747215589E+03  0.13242826159E+04  0.95000000000E+03 0.  0.
   -2000013    1    1    2    0    0  0.59586260798E+03  0.27740224697E+03  0.40695391800E+03  0.12247921234E+04  0.95000000000E+03 0.  0.
<mgrwt>
<rscale>  0 0.23207688E+04</rscale>
<asrwt>0</asrwt>
<pdfrwt beam="1">  1        2 0.27719237E+00 0.23207688E+04</pdfrwt>
<pdfrwt beam="2">  1       -2 0.11497297E+00 0.23207688E+04</pdfrwt>
<totfact> 0.45976313E+00</totfact>
</mgrwt>
</event>
<event>
 4    1  0.1295381E-008  0.3067898E+04  0.7816531E-02  0.8224604E-01
         -2   -1    0    0    0  501 -0.00000000000E+00  0.00000000000E+00  0.11745726194E+04  0.11745726194E+04  0.00000000000E+00 0. -1.
          2   -1    0    0  501    0  0.00000000000E+00 -0.00000000000E+00 -0.20032809159E+04  0.20032809159E+04  0.00000000000E+00 0.  1.
    2000013    1    1    2    0    0  0.48916472665E+03  0.73507132920E+03  0.43407910488E+03  0.13676756407E+04  0.95000000000E+03 0.  0.
   -2000013    1    1    2    0    0 -0.48916472665E+03 -0.73507132920E+03 -0.12627874014E+04  0.18101778945E+04  0.95000000000E+03 0.  0.
<mgrwt>
<rscale>  0 0.30678976E+04</rscale>
<asrwt>0</asrwt>
<pdfrwt beam="2">  1        2 0.30819706E+00 0.30678976E+04</pdfrwt>
<pdfrwt beam="1">  1       -2 0.18070348E+00 0.30678976E+04</pdfrwt>
<totfact> 0.10156189E+00</totfact>
</mgrwt>
</event>
<event>
 4    1  0.1295381E-008  0.3601630E+04  0.7816531E-02  0.8090118E-01
          2   -1    0    0  501    0  0.00000000000E+00  0.00000000000E+00  0.47517339927E+04  0.47517339927E+04  0.00000000000E+00 0.  1.
         -2   -1    0    0    0  501 -0.00000000000E+00 -0.00000000000E+00 -0.68247406172E+03  0.68247406172E+03  0.00000000000E+00 0. -1.
    2000013    1    1    2    0    0  0.12875688726E+04  0.59526990690E+03  0.28990862327E+04  0.33644287551E+04  0.95000000000E+03 0.  0.
   -2000013    1    1    2    0    0 -0.12875688726E+04 -0.59526990690E+03  0.11701736983E+04  0.20697792993E+04  0.95000000000E+03 0.  0.
<mgrwt>
<rscale>  0 0.36016303E+04</rscale>
<asrwt>0</asrwt>
<pdfrwt beam="1">  1        2 0.73103598E+00 0.36016303E+04</pdfrwt>
<pdfrwt beam="2">  1       -2 0.10499601E+00 0.36016303E+04</pdfrwt>
<totfact> 0.40102323E-02</totfact>
</mgrwt>
</event>
<event>
 4    1  0.1295381E-008  0.2406461E+04  0.7816531E-02  0.8437089E-01
          1   -1    0    0  501    0  0.00000000000E+00  0.00000000000E+00  0.25029392234E+04  0.25029392234E+04  0.00000000000E+00 0.  1.
         -1   -1    0    0    0  501 -0.00000000000E+00 -0.00000000000E+00 -0.57842539550E+03  0.57842539550E+03  0.00000000000E+00 0. -1.
    2000013    1    1    2    0    0 -0.61871949449E+03 -0.38596179021E+03  0.81357358810E+03  0.14478198436E+04  0.95000000000E+03 0.  0.
   -2000013    1    1    2    0    0  0.61871949449E+03  0.38596179021E+03  0.11109402398E+04  0.16335447752E+04  0.95000000000E+03 0.  0.
<mgrwt>
<rscale>  0 0.24064610E+04</rscale>
<asrwt>0</asrwt>
<pdfrwt beam="1">  1        1 0.38506757E+00 0.24064610E+04</pdfrwt>
<pdfrwt beam="2">  1       -1 0.88988524E-01 0.24064610E+04</pdfrwt>
<totfact> 0.14952574E+00</totfact>
</mgrwt>
</event>
<event>
 4    1  0.1295381E-008  0.3738626E+04  0.7816531E-02  0.8059455E-01
          1   -1    0    0  501    0  0.00000000000E+00  0.00000000000E+00  0.31686263790E+04  0.31686263790E+04  0.00000000000E+00 0.  1.
         -1   -1    0    0    0  501 -0.00000000000E+00 -0.00000000000E+00 -0.11027904628E+04  0.11027904628E+04  0.00000000000E+00 0. -1.
    2000013    1    1    2    0    0  0.12852839430E+04  0.93169313558E+03  0.13391106716E+04  0.22837960294E+04  0.95000000000E+03 0.  0.
   -2000013    1    1    2    0    0 -0.12852839430E+04 -0.93169313558E+03  0.72672524456E+03  0.19876208124E+04  0.95000000000E+03 0.  0.
<mgrwt>
<rscale>  0 0.37386259E+04</rscale>
<asrwt>0</asrwt>
<pdfrwt beam="1">  1        1 0.48748098E+00 0.37386259E+04</pdfrwt>
<pdfrwt beam="2">  1       -1 0.16966007E+00 0.37386259E+04</pdfrwt>
<totfact> 0.88728847E-02</totfact>
</mgrwt>
</event>
<event>
 4    1  0.1295381E-008  0.2691854E+04  0.7816531E-02  0.8337653E-01
         -2   -1    0    0    0  501 -0.00000000000E+00  0.00000000000E+00  0.11645229867E+04  0.11645229867E+04  0.00000000000E+00 0. -1.
          2   -1    0    0  501    0  0.00000000000E+00 -0.00000000000E+00 -0.15555887301E+04  0.15555887301E+04  0.00000000000E+00 0.  1.
    2000013    1    1    2    0    0 -0.37832464132E+03  0.87443653866E+03 -0.15980581813E+03  0.13549194418E+04  0.95000000000E+03 0.  0.
   -2000013    1    1    2    0    0  0.37832464132E+03 -0.87443653866E+03 -0.23125992528E+03  0.13651922749E+04  0.95000000000E+03 0.  0.
<mgrwt>
<rscale>  0 0.26918535E+04</rscale>
<asrwt>0</asrwt>
<pdfrwt beam="2">  1        2 0.23932134E+00 0.26918535E+04</pdfrwt>
<pdfrwt beam="1">  1       -2 0.17915738E+00 0.26918535E+04</pdfrwt>
<totfact> 0.19057395E+00</totfact>
</mgrwt>
</event>
<event>
 4    1  0.1295381E-008  0.3118239E+04  0.7816531E-02  0.8210750E-01
         -1   -1    0    0    0  501 -0.00000000000E+00  0.00000000000E+00  0.15284569362E+04  0.15284569362E+04  0.00000000000E+00 0. -1.
          1   -1    0    0  501    0  0.00000000000E+00 -0.00000000000E+00 -0.15903970002E+04  0.15903970002E+04  0.00000000000E+00 0.  1.
    2000013    1    1    2    0    0  0.70059714801E+03  0.98807297479E+03  0.21652323657E+03  0.15545117816E+04  0.95000000000E+03 0.  0.
   -2000013    1    1    2    0    0 -0.70059714801E+03 -0.98807297479E+03 -0.27846330063E+03  0.15643421547E+04  0.95000000000E+03 0.  0.
<mgrwt>
<rscale>  0 0.31182388E+04</rscale>
<asrwt>0</asrwt>
<pdfrwt beam="2">  1        1 0.24467646E+00 0.31182388E+04</pdfrwt>
<pdfrwt beam="1">  1       -1 0.23514722E+00 0.31182388E+04</pdfrwt>
<totfact> 0.41657677E-01</totfact>
</mgrwt>
</event>
<event>
 4    1  0.1295381E-008  0.2784377E+04  0.7816531E-02  0.8308135E-01
          1   -1    0    0  501    0  0.00000000000E+00  0.00000000000E+00  0.82354995732E+03  0.82354995732E+03  0.00000000000E+00 0.  1.
         -1   -1    0    0    0  501 -0.00000000000E+00 -0.00000000000E+00 -0.23534571220E+04  0.23534571220E+04  0.00000000000E+00 0. -1.
    2000013    1    1    2    0    0  0.93364986679E+03 -0.21050851245E+03 -0.37023347181E+03  0.13984236594E+04  0.95000000000E+03 0.  0.
   -2000013    1    1    2    0    0 -0.93364986679E+03  0.21050851245E+03 -0.11596736929E+04  0.17785834199E+04  0.95000000000E+03 0.  0.
<mgrwt>
<rscale>  0 0.27843775E+04</rscale>
<asrwt>0</asrwt>
<pdfrwt beam="1">  1        1 0.12669999E+00 0.27843775E+04</pdfrwt>
<pdfrwt beam="2">  1       -1 0.36207032E+00 0.27843775E+04</pdfrwt>
<totfact> 0.23609901E-01</totfact>
</mgrwt>
</event>
<event>
 4    1  0.1295381E-008  0.2411760E+04  0.7816531E-02  0.8435114E-01
          2   -1    0    0  501    0  0.00000000000E+00  0.00000000000E+00  0.12200978204E+04  0.12200978204E+04  0.00000000000E+00 0.  1.
         -2   -1    0    0    0  501 -0.00000000000E+00 -0.00000000000E+00 -0.11918273946E+04  0.11918273946E+04  0.00000000000E+00 0. -1.
    2000013    1    1    2    0    0 -0.69073738867E+03 -0.26690338817E+03  0.71501578562E+02  0.12066350047E+04  0.95000000000E+03 0.  0.
   -2000013    1    1    2    0    0  0.69073738867E+03  0.26690338817E+03 -0.43231152767E+02  0.12052902104E+04  0.95000000000E+03 0.  0.
<mgrwt>
<rscale>  0 0.24117595E+04</rscale>
<asrwt>0</asrwt>
<pdfrwt beam="1">  1        2 0.18770736E+00 0.24117595E+04</pdfrwt>
<pdfrwt beam="2">  1       -2 0.18335806E+00 0.24117595E+04</pdfrwt>
<totfact> 0.28459043E+00</totfact>
</mgrwt>
</event>
<event>
 4    1  0.1295381E-008  0.3761789E+04  0.7816531E-02  0.8054405E-01
         -2   -1    0    0    0  501 -0.00000000000E+00  0.00000000000E+00  0.11077032382E+04  0.11077032382E+04  0.00000000000E+00 0. -1.
          2   -1    0    0  501    0  0.00000000000E+00 -0.00000000000E+00 -0.31937834518E+04  0.31937834518E+04  0.00000000000E+00 0.  1.
    2000013    1    1    2    0    0 -0.10878949839E+04 -0.11392730520E+04 -0.59459391403E+03  0.19332616237E+04  0.95000000000E+03 0.  0.
   -2000013    1    1    2    0    0  0.10878949839E+04  0.11392730520E+04 -0.14914862996E+04  0.23682250663E+04  0.95000000000E+03 0.  0.
<mgrwt>
<rscale>  0 0.37617891E+04</rscale>
<asrwt>0</asrwt>
<pdfrwt beam="2">  1        2 0.49135130E+00 0.37617891E+04</pdfrwt>
<pdfrwt beam="1">  1       -2 0.17041588E+00 0.37617891E+04</pdfrwt>
<totfact> 0.22263575E-01</totfact>
</mgrwt>
</event>
<event>
 4    1  0.1295381E-008  0.4079441E+04  0.7816531E-02  0.7988710E-01
         -2   -1    0    0    0  501 -0.00000000000E+00  0.00000000000E+00  0.86346349989E+03  0.86346349989E+03  0.00000000000E+00 0. -1.
          2   -1    0    0  501    0  0.00000000000E+00 -0.00000000000E+00 -0.48183390091E+04  0.48183390091E+04  0.00000000000E+00 0.  1.
    2000013    1    1    2    0    0 -0.15138554407E+04 -0.46024047180E+02 -0.60988917476E+03  0.18890053768E+04  0.95000000000E+03 0.  0.
   -2000013    1    1    2    0    0  0.15138554407E+04  0.46024047180E+02 -0.33449863344E+04  0.37927971321E+04  0.95000000000E+03 0.  0.
<mgrwt>
<rscale>  0 0.40794411E+04</rscale>
<asrwt>0</asrwt>
<pdfrwt beam="2">  1        2 0.74128291E+00 0.40794411E+04</pdfrwt>
<pdfrwt beam="1">  1       -2 0.13284054E+00 0.40794411E+04</pdfrwt>
<totfact> 0.18092445E-02</totfact>
</mgrwt>
</event>
<event>
 4    1  0.1295381E-008  0.2762903E+04  0.7816531E-02  0.8314879E-01
          2   -1    0    0  501    0  0.00000000000E+00  0.00000000000E+00  0.32606769600E+04  0.32606769600E+04  0.00000000000E+00 0.  1.
         -2   -1    0    0    0  501 -0.00000000000E+00 -0.00000000000E+00 -0.58527981750E+03  0.58527981750E+03  0.00000000000E+00 0. -1.
    2000013    1    1    2    0    0  0.90632325988E+03  0.41746794411E+03  0.14783323051E+04  0.20208086847E+04  0.95000000000E+03 0.  0.
   -2000013    1    1    2    0    0 -0.90632325988E+03 -0.41746794411E+03  0.11970648373E+04  0.18251480928E+04  0.95000000000E+03 0.  0.
<mgrwt>
<rscale>  0 0.27629031E+04</rscale>
<asrwt>0</asrwt>
<pdfrwt beam="1">  1        2 0.50164260E+00 0.27629031E+04</pdfrwt>
<pdfrwt beam="2">  1       -2 0.90043050E-01 0.27629031E+04</pdfrwt>
<totfact> 0.10896444E+00</totfact>
</mgrwt>
</event>
<event>
 4    1  0.1295381E-008  0.2254420E+04  0.7816531E-02  0.8496113E-01
          2   -1    0    0  501    0  0.00000000000E+00  0.00000000000E+00  0.96263564043E+03  0.96263564043E+03  0.00000000000E+00 0.  1.
         -2   -1    0    0    0  501 -0.00000000000E+00 -0.00000000000E+00 -0.13199198229E+04  0.13199198229E+04  0.00000000000E+00 0. -1.
    2000013    1    1    2    0    0 -0.45709993860E+03  0.37759347986E+03 -0.30903082582E+03  0.11616872390E+04  0.95000000000E+03 0.  0.
   -2000013    1    1    2    0    0  0.45709993860E+03 -0.37759347986E+03 -0.48253356650E+02  0.11208682243E+04  0.95000000000E+03 0.  0.
<mgrwt>
<rscale>  0 0.22544195E+04</rscale>
<asrwt>0</asrwt>
<pdfrwt beam="1">  1        2 0.14809779E+00 0.22544195E+04</pdfrwt>
<pdfrwt beam="2">  1       -2 0.20306459E+00 0.22544195E+04</pdfrwt>
<totfact> 0.30772370E+00</totfact>
</mgrwt>
</event>
<event>
 4    1  0.1295381E-008  0.3038738E+04  0.7816531E-02  0.8232755E-01
         -2   -1    0    0    0  501 -0.00000000000E+00  0.00000000000E+00  0.97551252319E+03  0.97551252319E+03  0.00000000000E+00 0. -1.
          2   -1    0    0  501    0  0.00000000000E+00 -0.00000000000E+00 -0.23664308271E+04  0.23664308271E+04  0.00000000000E+00 0.  1.
    2000013    1    1    2    0    0 -0.80237054301E+03  0.87294961478E+03 -0.68228983036E+03  0.16654905976E+04  0.95000000000E+03 0.  0.
   -2000013    1    1    2    0    0  0.80237054301E+03 -0.87294961478E+03 -0.70862847353E+03  0.16764527526E+04  0.95000000000E+03 0.  0.
<mgrwt>
<rscale>  0 0.30387385E+04</rscale>
<asrwt>0</asrwt>
<pdfrwt beam="2">  1        2 0.36406628E+00 0.30387385E+04</pdfrwt>
<pdfrwt beam="1">  1       -2 0.15007885E+00 0.30387385E+04</pdfrwt>
<totfact> 0.10607698E+00</totfact>
</mgrwt>
</event>
<event>
 4    1  0.1295381E-008  0.2208383E+04  0.7816531E-02  0.8514947E-01
         -2   -1    0    0    0  501 -0.00000000000E+00  0.00000000000E+00  0.78115612462E+03  0.78115612462E+03  0.00000000000E+00 0. -1.
          2   -1    0    0  501    0  0.00000000000E+00 -0.00000000000E+00 -0.15608133941E+04  0.15608133941E+04  0.00000000000E+00 0.  1.
    2000013    1    1    2    0    0 -0.18121973242E+03 -0.51755312270E+03 -0.52412676437E+03  0.12156935022E+04  0.95000000000E+03 0.  0.
   -2000013    1    1    2    0    0  0.18121973242E+03  0.51755312270E+03 -0.25553050509E+03  0.11262760165E+04  0.95000000000E+03 0.  0.
<mgrwt>
<rscale>  0 0.22083831E+04</rscale>
<asrwt>0</asrwt>
<pdfrwt beam="2">  1        2 0.24012514E+00 0.22083831E+04</pdfrwt>
<pdfrwt beam="1">  1       -2 0.12017787E+00 0.22083831E+04</pdfrwt>
<totfact> 0.56696529E+00</totfact>
</mgrwt>
</event>
<event>
 4    1  0.1295381E-008  0.2981874E+04  0.7816531E-02  0.8248926E-01
          2   -1    0    0  501    0  0.00000000000E+00  0.00000000000E+00  0.11858772789E+04  0.11858772789E+04  0.00000000000E+00 0.  1.
         -2   -1    0    0    0  501 -0.00000000000E+00 -0.00000000000E+00 -0.18744714371E+04  0.18744714371E+04  0.00000000000E+00 0. -1.
    2000013    1    1    2    0    0 -0.11499300903E+03  0.11375016724E+04 -0.46247803600E+03  0.15567656794E+04  0.95000000000E+03 0.  0.
   -2000013    1    1    2    0    0  0.11499300903E+03 -0.11375016724E+04 -0.22611612220E+03  0.15035830365E+04  0.95000000000E+03 0.  0.
<mgrwt>
<rscale>  0 0.29818740E+04</rscale>
<asrwt>0</asrwt>
<pdfrwt beam="1">  1        2 0.18244266E+00 0.29818740E+04</pdfrwt>
<pdfrwt beam="2">  1       -2 0.28838022E+00 0.29818740E+04</pdfrwt>
<totfact> 0.61977359E-01</totfact>
</mgrwt>
</event>
<event>
 4    1  0.1295381E-008  0.4831368E+04  0.7816531E-02  0.7855060E-01
          2   -1    0    0  501    0  0.00000000000E+00  0.00000000000E+00  0.39834195052E+04  0.39834195052E+04  0.00000000000E+00 0.  1.
         -2   -1    0    0    0  501 -0.00000000000E+00 -0.00000000000E+00 -0.14649547451E+04  0.14649547451E+04  0.00000000000E+00 0. -1.
    2000013    1    1    2    0    0  0.15760536280E+04 -0.68057534209E+03  0.28484217728E+04  0.34587764355E+04  0.95000000000E+03 0.  0.
   -2000013    1    1    2    0    0 -0.15760536280E+04  0.68057534209E+03 -0.32995701267E+03  0.19895978148E+04  0.95000000000E+03 0.  0.
<mgrwt>
<rscale>  0 0.48313680E+04</rscale>
<asrwt>0</asrwt>
<pdfrwt beam="1">  1        2 0.61283377E+00 0.48313680E+04</pdfrwt>
<pdfrwt beam="2">  1       -2 0.22537765E+00 0.48313680E+04</pdfrwt>
<totfact> 0.23690549E-02</totfact>
</mgrwt>
</event>
<event>
 4    1  0.1295381E-008  0.2322790E+04  0.7816531E-02  0.8468989E-01
         -2   -1    0    0    0  501 -0.00000000000E+00  0.00000000000E+00  0.99783375243E+03  0.99783375243E+03  0.00000000000E+00 0.  1.
          2   -1    0    0  501    0  0.00000000000E+00 -0.00000000000E+00 -0.13517667321E+04  0.13517667321E+04  0.00000000000E+00 0. -1.
    2000013    1    1    2    0    0  0.95807879917E+02 -0.58346402693E+03  0.13763626181E+03  0.11274099348E+04  0.95000000000E+03 0.  0.
   -2000013    1    1    2    0    0 -0.95807879917E+02  0.58346402693E+03 -0.49156924145E+03  0.12221905497E+04  0.95000000000E+03 0.  0.
<mgrwt>
<rscale>  0 0.23227901E+04</rscale>
<asrwt>0</asrwt>
<pdfrwt beam="2">  1        2 0.20796411E+00 0.23227901E+04</pdfrwt>
<pdfrwt beam="1">  1       -2 0.15351288E+00 0.23227901E+04</pdfrwt>
<totfact> 0.39328636E+00</totfact>
</mgrwt>
</event>
<event>
 4    1  0.1295381E-008  0.2441602E+04  0.7816531E-02  0.8424091E-01
          2   -1    0    0  501    0  0.00000000000E+00  0.00000000000E+00  0.36428881848E+04  0.36428881848E+04  0.00000000000E+00 0.  1.
         -2   -1    0    0    0  501 -0.00000000000E+00 -0.00000000000E+00 -0.40911353488E+03  0.40911353488E+03  0.00000000000E+00 0. -1.
    2000013    1    1    2    0    0 -0.72458082785E+03  0.17671667142E+03  0.19119390297E+04  0.22614723106E+04  0.95000000000E+03 0.  0.
   -2000013    1    1    2    0    0  0.72458082785E+03 -0.17671667142E+03  0.13218356202E+04  0.17905294091E+04  0.95000000000E+03 0.  0.
<mgrwt>
<rscale>  0 0.24416018E+04</rscale>
<asrwt>0</asrwt>
<pdfrwt beam="1">  1        2 0.56044431E+00 0.24416018E+04</pdfrwt>
<pdfrwt beam="2">  1       -2 0.62940546E-01 0.24416018E+04</pdfrwt>
<totfact> 0.13505969E+00</totfact>
</mgrwt>
</event>
<event>
 4    1  0.1295381E-008  0.2310654E+04  0.7816531E-02  0.8473732E-01
         -2   -1    0    0    0  501 -0.00000000000E+00  0.00000000000E+00  0.79483272475E+03  0.79483272475E+03  0.00000000000E+00 0.  1.
          2   -1    0    0  501    0  0.00000000000E+00 -0.00000000000E+00 -0.16793231020E+04  0.16793231020E+04  0.00000000000E+00 0. -1.
    2000013    1    1    2    0    0 -0.23980714599E+03  0.61071014598E+03 -0.39673339796E+03  0.12208078222E+04  0.95000000000E+03 0.  0.
   -2000013    1    1    2    0    0  0.23980714599E+03 -0.61071014598E+03 -0.48775697928E+03  0.12533480045E+04  0.95000000000E+03 0.  0.
<mgrwt>
<rscale>  0 0.23106544E+04</rscale>
<asrwt>0</asrwt>
<pdfrwt beam="2">  1        2 0.25835740E+00 0.23106544E+04</pdfrwt>
<pdfrwt beam="1">  1       -2 0.12228196E+00 0.23106544E+04</pdfrwt>
<totfact> 0.46221405E+00</totfact>
</mgrwt>
</event>
<event>
 4    1  0.1295381E-008  0.2466213E+04  0.7816531E-02  0.8415122E-01
         -1   -1    0    0    0  501 -0.00000000000E+00  0.00000000000E+00  0.86735875987E+03  0.86735875987E+03  0.00000000000E+00 0. -1.
          1   -1    0    0  501    0  0.00000000000E+00 -0.00000000000E+00 -0.17530833348E+04  0.17530833348E+04  0.00000000000E+00 0.  1.
    2000013    1    1    2    0    0  0.32227573537E+03  0.56255679510E+03 -0.91532728084E+03  0.14699169461E+04  0.95000000000E+03 0.  0.
   -2000013    1    1    2    0    0 -0.32227573537E+03 -0.56255679510E+03  0.29602705921E+02  0.11505251486E+04  0.95000000000E+03 0.  0.
<mgrwt>
<rscale>  0 0.24662134E+04</rscale>
<asrwt>0</asrwt>
<pdfrwt beam="2">  1        1 0.26970513E+00 0.24662134E+04</pdfrwt>
<pdfrwt beam="1">  1       -1 0.13343981E+00 0.24662134E+04</pdfrwt>
<totfact> 0.18539749E+00</totfact>
</mgrwt>
</event>
<event>
 4    1  0.1295381E-008  0.2383183E+04  0.7816531E-02  0.8445827E-01
         -2   -1    0    0    0  501 -0.00000000000E+00  0.00000000000E+00  0.76290019362E+03  0.76290019362E+03  0.00000000000E+00 0. -1.
          2   -1    0    0  501    0  0.00000000000E+00 -0.00000000000E+00 -0.18611744692E+04  0.18611744692E+04  0.00000000000E+00 0.  1.
    2000013    1    1    2    0    0 -0.47677392840E+03  0.52868827830E+03 -0.66231661602E+03  0.13594072143E+04  0.95000000000E+03 0.  0.
   -2000013    1    1    2    0    0  0.47677392840E+03 -0.52868827830E+03 -0.43595765955E+03  0.12646674485E+04  0.95000000000E+03 0.  0.
<mgrwt>
<rscale>  0 0.23831831E+04</rscale>
<asrwt>0</asrwt>
<pdfrwt beam="2">  1        2 0.28633453E+00 0.23831831E+04</pdfrwt>
<pdfrwt beam="1">  1       -2 0.11736926E+00 0.23831831E+04</pdfrwt>
<totfact> 0.40307788E+00</totfact>
</mgrwt>
</event>
<event>
 4    1  0.1295381E-008  0.3153914E+04  0.7816531E-02  0.8201095E-01
         -2   -1    0    0    0  501 -0.00000000000E+00  0.00000000000E+00  0.99586214733E+03  0.99586214733E+03  0.00000000000E+00 0. -1.
          2   -1    0    0  501    0  0.00000000000E+00 -0.00000000000E+00 -0.24971267170E+04  0.24971267170E+04  0.00000000000E+00 0.  1.
    2000013    1    1    2    0    0 -0.82540960848E+03  0.92758794247E+03 -0.52211592629E+03  0.16482795434E+04  0.95000000000E+03 0.  0.
   -2000013    1    1    2    0    0  0.82540960848E+03 -0.92758794247E+03 -0.97914864333E+03  0.18447093209E+04  0.95000000000E+03 0.  0.
<mgrwt>
<rscale>  0 0.31539144E+04</rscale>
<asrwt>0</asrwt>
<pdfrwt beam="2">  1        2 0.38417334E+00 0.31539144E+04</pdfrwt>
<pdfrwt beam="1">  1       -2 0.15320956E+00 0.31539144E+04</pdfrwt>
<totfact> 0.83633160E-01</totfact>
</mgrwt>
</event>
<event>
 4    1  0.1295381E-008  0.2497430E+04  0.7816531E-02  0.8403902E-01
         -2   -1    0    0    0  501 -0.00000000000E+00  0.00000000000E+00  0.63478698800E+03  0.63478698800E+03  0.00000000000E+00 0. -1.
          2   -1    0    0  501    0  0.00000000000E+00 -0.00000000000E+00 -0.24563977849E+04  0.24563977849E+04  0.00000000000E+00 0.  1.
    2000013    1    1    2    0    0 -0.71849088113E+03  0.37099899144E+03 -0.97768898658E+03  0.15850063572E+04  0.95000000000E+03 0.  0.
   -2000013    1    1    2    0    0  0.71849088113E+03 -0.37099899144E+03 -0.84392181027E+03  0.15061784157E+04  0.95000000000E+03 0.  0.
<mgrwt>
<rscale>  0 0.24974302E+04</rscale>
<asrwt>0</asrwt>
<pdfrwt beam="2">  1        2 0.37790735E+00 0.24974302E+04</pdfrwt>
<pdfrwt beam="1">  1       -2 0.97659536E-01 0.24974302E+04</pdfrwt>
<totfact> 0.28744019E+00</totfact>
</mgrwt>
</event>
<event>
 4    1  0.1295381E-008  0.2111540E+04  0.7816531E-02  0.8556177E-01
          2   -1    0    0  501    0  0.00000000000E+00  0.00000000000E+00  0.13171787765E+04  0.13171787765E+04  0.00000000000E+00 0.  1.
         -2   -1    0    0    0  501 -0.00000000000E+00 -0.00000000000E+00 -0.84624104816E+03  0.84624104816E+03  0.00000000000E+00 0. -1.
    2000013    1    1    2    0    0 -0.45755136794E+03  0.47208931091E+02  0.21103313053E+03  0.10763906910E+04  0.95000000000E+03 0.  0.
   -2000013    1    1    2    0    0  0.45755136794E+03 -0.47208931091E+02  0.25990459782E+03  0.10870291337E+04  0.95000000000E+03 0.  0.
<mgrwt>
<rscale>  0 0.21115404E+04</rscale>
<asrwt>0</asrwt>
<pdfrwt beam="1">  1        2 0.20264289E+00 0.21115404E+04</pdfrwt>
<pdfrwt beam="2">  1       -2 0.13019093E+00 0.21115404E+04</pdfrwt>
<totfact> 0.64366177E+00</totfact>
</mgrwt>
</event>
<event>
 4    1  0.1295381E-008  0.2943705E+04  0.7816531E-02  0.8259991E-01
          2   -1    0    0  501    0  0.00000000000E+00  0.00000000000E+00  0.22439495038E+04  0.22439495038E+04  0.00000000000E+00 0.  1.
         -2   -1    0    0    0  501 -0.00000000000E+00 -0.00000000000E+00 -0.96541841222E+03  0.96541841222E+03  0.00000000000E+00 0. -1.
    2000013    1    1    2    0    0  0.42938338057E+02  0.51541244689E+03 -0.44899417822E+03  0.11711487793E+04  0.95000000000E+03 0.  0.
   -2000013    1    1    2    0    0 -0.42938338057E+02 -0.51541244689E+03  0.17275252698E+04  0.20382191366E+04  0.95000000000E+03 0.  0.
<mgrwt>
<rscale>  0 0.29437053E+04</rscale>
<asrwt>0</asrwt>
<pdfrwt beam="1">  1        2 0.34522300E+00 0.29437053E+04</pdfrwt>
<pdfrwt beam="2">  1       -2 0.14852591E+00 0.29437053E+04</pdfrwt>
<totfact> 0.12899843E+00</totfact>
</mgrwt>
</event>
<event>
 4    1  0.1295381E-008  0.2297716E+04  0.7816531E-02  0.8478822E-01
         -1   -1    0    0    0  501 -0.00000000000E+00  0.00000000000E+00  0.84608803404E+03  0.84608803404E+03  0.00000000000E+00 0. -1.
          1   -1    0    0  501    0  0.00000000000E+00 -0.00000000000E+00 -0.15599730057E+04  0.15599730057E+04  0.00000000000E+00 0.  1.
    2000013    1    1    2    0    0  0.44699391408E+03 -0.46609612037E+03 -0.33805476120E+03  0.11974264797E+04  0.95000000000E+03 0.  0.
   -2000013    1    1    2    0    0 -0.44699391408E+03  0.46609612037E+03 -0.37583021043E+03  0.12086345600E+04  0.95000000000E+03 0.  0.
<mgrwt>
<rscale>  0 0.22977158E+04</rscale>
<asrwt>0</asrwt>
<pdfrwt beam="2">  1        1 0.23999585E+00 0.22977158E+04</pdfrwt>
<pdfrwt beam="1">  1       -1 0.13016739E+00 0.22977158E+04</pdfrwt>
<totfact> 0.27171614E+00</totfact>
</mgrwt>
</event>
<event>
 4    1  0.1295381E-008  0.3610652E+04  0.7816531E-02  0.8088056E-01
          2   -1    0    0  501    0  0.00000000000E+00  0.00000000000E+00  0.48108373023E+04  0.48108373023E+04  0.00000000000E+00 0.  1.
         -2   -1    0    0    0  501 -0.00000000000E+00 -0.00000000000E+00 -0.67747095223E+03  0.67747095223E+03  0.00000000000E+00 0. -1.
    2000013    1    1    2    0    0  0.24666601415E+03  0.15042279676E+04  0.23434652739E+04  0.29526048485E+04  0.95000000000E+03 0.  0.
   -2000013    1    1    2    0    0 -0.24666601415E+03 -0.15042279676E+04  0.17899010761E+04  0.25357034060E+04  0.95000000000E+03 0.  0.
<mgrwt>
<rscale>  0 0.36106523E+04</rscale>
<asrwt>0</asrwt>
<pdfrwt beam="1">  1        2 0.74012879E+00 0.36106523E+04</pdfrwt>
<pdfrwt beam="2">  1       -2 0.10422630E+00 0.36106523E+04</pdfrwt>
<totfact> 0.35001856E-02</totfact>
</mgrwt>
</event>
<event>
 4    1  0.1295381E-008  0.3034104E+04  0.7816531E-02  0.8234059E-01
          2   -1    0    0  501    0  0.00000000000E+00  0.00000000000E+00  0.13173460633E+04  0.13173460633E+04  0.00000000000E+00 0.  1.
         -2   -1    0    0    0  501 -0.00000000000E+00 -0.00000000000E+00 -0.17470326505E+04  0.17470326505E+04  0.00000000000E+00 0. -1.
    2000013    1    1    2    0    0 -0.57373408785E+02  0.10830581018E+04 -0.69139893172E+03  0.15990118957E+04  0.95000000000E+03 0.  0.
   -2000013    1    1    2    0    0  0.57373408785E+02 -0.10830581018E+04  0.26171234452E+03  0.14653668180E+04  0.95000000000E+03 0.  0.
<mgrwt>
<rscale>  0 0.30341039E+04</rscale>
<asrwt>0</asrwt>
<pdfrwt beam="1">  1        2 0.20266863E+00 0.30341039E+04</pdfrwt>
<pdfrwt beam="2">  1       -2 0.26877425E+00 0.30341039E+04</pdfrwt>
<totfact> 0.67981900E-01</totfact>
</mgrwt>
</event>
<event>
 4    1  0.1295381E-008  0.2369467E+04  0.7816531E-02  0.8451024E-01
          2   -1    0    0  501    0  0.00000000000E+00  0.00000000000E+00  0.87274761666E+03  0.87274761666E+03  0.00000000000E+00 0.  1.
         -2   -1    0    0    0  501 -0.00000000000E+00 -0.00000000000E+00 -0.16082466497E+04  0.16082466497E+04  0.00000000000E+00 0. -1.
    2000013    1    1    2    0    0  0.47289280077E+03  0.52434709549E+03 -0.31512504732E+03  0.12248964336E+04  0.95000000000E+03 0.  0.
   -2000013    1    1    2    0    0 -0.47289280077E+03 -0.52434709549E+03 -0.42037398567E+03  0.12560978327E+04  0.95000000000E+03 0.  0.
<mgrwt>
<rscale>  0 0.23694670E+04</rscale>
<asrwt>0</asrwt>
<pdfrwt beam="1">  1        2 0.13426887E+00 0.23694670E+04</pdfrwt>
<pdfrwt beam="2">  1       -2 0.24742256E+00 0.23694670E+04</pdfrwt>
<totfact> 0.18387364E+00</totfact>
</mgrwt>
</event>
<event>
 4    1  0.1295381E-008  0.2934403E+04  0.7816531E-02  0.8262715E-01
          2   -1    0    0  501    0  0.00000000000E+00  0.00000000000E+00  0.37631519172E+04  0.37631519172E+04  0.00000000000E+00 0.  1.
         -2   -1    0    0    0  501 -0.00000000000E+00 -0.00000000000E+00 -0.57204165832E+03  0.57204165832E+03  0.00000000000E+00 0. -1.
    2000013    1    1    2    0    0 -0.36997504209E+03 -0.18690095040E+03  0.61390656503E+02  0.10383074254E+04  0.95000000000E+03 0.  0.
   -2000013    1    1    2    0    0  0.36997504209E+03  0.18690095040E+03  0.31297196023E+04  0.32968861500E+04  0.95000000000E+03 0.  0.
<mgrwt>
<rscale>  0 0.29344026E+04</rscale>
<asrwt>0</asrwt>
<pdfrwt beam="1">  1        2 0.57894643E+00 0.29344026E+04</pdfrwt>
<pdfrwt beam="2">  1       -2 0.88006411E-01 0.29344026E+04</pdfrwt>
<totfact> 0.50131683E-01</totfact>
</mgrwt>
</event>
<event>
 4    1  0.1295381E-008  0.3114459E+04  0.7816531E-02  0.8211781E-01
          2   -1    0    0  501    0  0.00000000000E+00  0.00000000000E+00  0.40090713680E+04  0.40090713680E+04  0.00000000000E+00 0.  1.
         -2   -1    0    0    0  501 -0.00000000000E+00 -0.00000000000E+00 -0.60486905454E+03  0.60486905454E+03  0.00000000000E+00 0. -1.
    2000013    1    1    2    0    0  0.25520174681E+02  0.87454678471E+03  0.41316451648E+03  0.13559824024E+04  0.95000000000E+03 0.  0.
   -2000013    1    1    2    0    0 -0.25520174681E+02 -0.87454678471E+03  0.29910377970E+04  0.32579580201E+04  0.95000000000E+03 0.  0.
<mgrwt>
<rscale>  0 0.31144587E+04</rscale>
<asrwt>0</asrwt>
<pdfrwt beam="1">  1        2 0.61678019E+00 0.31144587E+04</pdfrwt>
<pdfrwt beam="2">  1       -2 0.93056780E-01 0.31144587E+04</pdfrwt>
<totfact> 0.27863934E-01</totfact>
</mgrwt>
</event>
<event>
 4    1  0.1295381E-008  0.3321668E+04  0.7816531E-02  0.8157404E-01
         -1   -1    0    0    0  501 -0.00000000000E+00  0.00000000000E+00  0.74981281330E+03  0.74981281330E+03  0.00000000000E+00 0. -1.
          1   -1    0    0  501    0  0.00000000000E+00 -0.00000000000E+00 -0.36787434448E+04  0.36787434448E+04  0.00000000000E+00 0.  1.
    2000013    1    1    2    0    0 -0.39654438099E+02  0.10747615084E+04 -0.25792777216E+04  0.29515857331E+04  0.95000000000E+03 0.  0.
   -2000013    1    1    2    0    0  0.39654438099E+02 -0.10747615084E+04 -0.34965290990E+03  0.14769705250E+04  0.95000000000E+03 0.  0.
<mgrwt>
<rscale>  0 0.33216676E+04</rscale>
<asrwt>0</asrwt>
<pdfrwt beam="2">  1        1 0.56596053E+00 0.33216676E+04</pdfrwt>
<pdfrwt beam="1">  1       -1 0.11535582E+00 0.33216676E+04</pdfrwt>
<totfact> 0.10116028E-01</totfact>
</mgrwt>
</event>
<event>
 4    1  0.1295381E-008  0.2064168E+04  0.7816531E-02  0.8577194E-01
          2   -1    0    0  501    0  0.00000000000E+00  0.00000000000E+00  0.22052880720E+04  0.22052880720E+04  0.00000000000E+00 0.  1.
         -2   -1    0    0    0  501 -0.00000000000E+00 -0.00000000000E+00 -0.48301978216E+03  0.48301978216E+03  0.00000000000E+00 0. -1.
    2000013    1    1    2    0    0  0.30259560343E+03  0.26606637241E+03  0.88523149576E+03  0.13595919295E+04  0.95000000000E+03 0.  0.
   -2000013    1    1    2    0    0 -0.30259560343E+03 -0.26606637241E+03  0.83703679410E+03  0.13287159246E+04  0.95000000000E+03 0.  0.
<mgrwt>
<rscale>  0 0.20641684E+04</rscale>
<asrwt>0</asrwt>
<pdfrwt beam="1">  1        2 0.33927508E+00 0.20641684E+04</pdfrwt>
<pdfrwt beam="2">  1       -2 0.74310737E-01 0.20641684E+04</pdfrwt>
<totfact> 0.77252100E+00</totfact>
</mgrwt>
</event>
<event>
 4    1  0.1295381E-008  0.2433061E+04  0.7816531E-02  0.8427229E-01
          2   -1    0    0  501    0  0.00000000000E+00  0.00000000000E+00  0.14348311845E+04  0.14348311845E+04  0.00000000000E+00 0.  1.
         -2   -1    0    0    0  501 -0.00000000000E+00 -0.00000000000E+00 -0.10314429147E+04  0.10314429147E+04  0.00000000000E+00 0. -1.
    2000013    1    1    2    0    0  0.46266167263E+02 -0.71932186318E+03  0.44556501791E+03  0.12730250140E+04  0.95000000000E+03 0.  0.
   -2000013    1    1    2    0    0 -0.46266167263E+02  0.71932186318E+03 -0.42176748107E+02  0.11932490851E+04  0.95000000000E+03 0.  0.
<mgrwt>
<rscale>  0 0.24330610E+04</rscale>
<asrwt>0</asrwt>
<pdfrwt beam="1">  1        2 0.22074326E+00 0.24330610E+04</pdfrwt>
<pdfrwt beam="2">  1       -2 0.15868353E+00 0.24330610E+04</pdfrwt>
<totfact> 0.31938964E+00</totfact>
</mgrwt>
</event>
<event>
 4    1  0.1295381E-008  0.2394593E+04  0.7816531E-02  0.8441531E-01
         -1   -1    0    0    0  501 -0.00000000000E+00  0.00000000000E+00  0.80395914046E+03  0.80395914046E+03  0.00000000000E+00 0. -1.
          1   -1    0    0  501    0  0.00000000000E+00 -0.00000000000E+00 -0.17830746310E+04  0.17830746310E+04  0.00000000000E+00 0.  1.
    2000013    1    1    2    0    0  0.48151967261E+01  0.70512371612E+03 -0.29094539137E+03  0.12183480053E+04  0.95000000000E+03 0.  0.
   -2000013    1    1    2    0    0 -0.48151967261E+01 -0.70512371612E+03 -0.68817009915E+03  0.13686857662E+04  0.95000000000E+03 0.  0.
<mgrwt>
<rscale>  0 0.23945932E+04</rscale>
<asrwt>0</asrwt>
<pdfrwt beam="2">  1        1 0.27431917E+00 0.23945932E+04</pdfrwt>
<pdfrwt beam="1">  1       -1 0.12368602E+00 0.23945932E+04</pdfrwt>
<totfact> 0.21546821E+00</totfact>
</mgrwt>
</event>
<event>
 4    1  0.1295381E-008  0.2589591E+04  0.7816531E-02  0.8371745E-01
         -4   -1    0    0    0  501 -0.00000000000E+00  0.00000000000E+00  0.11866122589E+04  0.11866122589E+04  0.00000000000E+00 0. -1.
          4   -1    0    0  501    0  0.00000000000E+00 -0.00000000000E+00 -0.14128420334E+04  0.14128420334E+04  0.00000000000E+00 0.  1.
    2000013    1    1    2    0    0  0.80533375637E+03 -0.21247911729E+03 -0.39754164764E+03  0.13244807269E+04  0.95000000000E+03 0.  0.
   -2000013    1    1    2    0    0 -0.80533375637E+03  0.21247911729E+03  0.17131187314E+03  0.12749735653E+04  0.95000000000E+03 0.  0.
<mgrwt>
<rscale>  0 0.25895912E+04</rscale>
<asrwt>0</asrwt>
<pdfrwt beam="2">  1        4 0.21736031E+00 0.25895912E+04</pdfrwt>
<pdfrwt beam="1">  1       -4 0.18255573E+00 0.25895912E+04</pdfrwt>
<totfact> 0.30883582E-02</totfact>
</mgrwt>
</event>
<event>
 4    1  0.1295381E-008  0.2238632E+04  0.7816531E-02  0.8502519E-01
         -2   -1    0    0    0  501 -0.00000000000E+00  0.00000000000E+00  0.10917380994E+04  0.10917380994E+04  0.00000000000E+00 0. -1.
          2   -1    0    0  501    0  0.00000000000E+00 -0.00000000000E+00 -0.11475902730E+04  0.11475902730E+04  0.00000000000E+00 0.  1.
    2000013    1    1    2    0    0  0.13078905273E+03 -0.52010480112E+03 -0.27851001417E+03  0.11259141213E+04  0.95000000000E+03 0.  0.
   -2000013    1    1    2    0    0 -0.13078905273E+03  0.52010480112E+03  0.22265784058E+03  0.11134142510E+04  0.95000000000E+03 0.  0.
<mgrwt>
<rscale>  0 0.22386317E+04</rscale>
<asrwt>0</asrwt>
<pdfrwt beam="2">  1        2 0.17655235E+00 0.22386317E+04</pdfrwt>
<pdfrwt beam="1">  1       -2 0.16795971E+00 0.22386317E+04</pdfrwt>
<totfact> 0.40910494E+00</totfact>
</mgrwt>
</event>
<event>
 4    1  0.1295381E-008  0.2390208E+04  0.7816531E-02  0.8443179E-01
          2   -1    0    0  501    0  0.00000000000E+00  0.00000000000E+00  0.91817071365E+03  0.91817071365E+03  0.00000000000E+00 0.  1.
         -2   -1    0    0    0  501 -0.00000000000E+00 -0.00000000000E+00 -0.15555643650E+04  0.15555643650E+04  0.00000000000E+00 0. -1.
    2000013    1    1    2    0    0  0.11856033347E+02  0.52629658944E+03 -0.83476529639E+03  0.13698400511E+04  0.95000000000E+03 0.  0.
   -2000013    1    1    2    0    0 -0.11856033347E+02 -0.52629658944E+03  0.19737164503E+03  0.11038950275E+04  0.95000000000E+03 0.  0.
<mgrwt>
<rscale>  0 0.23902081E+04</rscale>
<asrwt>0</asrwt>
<pdfrwt beam="1">  1        2 0.14125703E+00 0.23902081E+04</pdfrwt>
<pdfrwt beam="2">  1       -2 0.23931759E+00 0.23902081E+04</pdfrwt>
<totfact> 0.19185547E+00</totfact>
</mgrwt>
</event>
<event>
 4    1  0.1295381E-008  0.2781743E+04  0.7816531E-02  0.8308959E-01
          1   -1    0    0  501    0  0.00000000000E+00  0.00000000000E+00  0.15919169107E+04  0.15919169107E+04  0.00000000000E+00 0.  1.
         -1   -1    0    0    0  501 -0.00000000000E+00 -0.00000000000E+00 -0.12152165177E+04  0.12152165177E+04  0.00000000000E+00 0. -1.
    2000013    1    1    2    0    0  0.56889085547E+03  0.69733164410E+03 -0.28724281111E+03  0.13397449981E+04  0.95000000000E+03 0.  0.
   -2000013    1    1    2    0    0 -0.56889085547E+03 -0.69733164410E+03  0.66394320414E+03  0.14673884304E+04  0.95000000000E+03 0.  0.
<mgrwt>
<rscale>  0 0.27817431E+04</rscale>
<asrwt>0</asrwt>
<pdfrwt beam="1">  1        1 0.24491029E+00 0.27817431E+04</pdfrwt>
<pdfrwt beam="2">  1       -1 0.18695639E+00 0.27817431E+04</pdfrwt>
<totfact> 0.90985303E-01</totfact>
</mgrwt>
</event>
<event>
 4    1  0.1295381E-008  0.2662552E+04  0.7816531E-02  0.8347259E-01
          2   -1    0    0  501    0  0.00000000000E+00  0.00000000000E+00  0.16978851633E+04  0.16978851633E+04  0.00000000000E+00 0.  1.
         -2   -1    0    0    0  501 -0.00000000000E+00 -0.00000000000E+00 -0.10438253971E+04  0.10438253971E+04  0.00000000000E+00 0. -1.
    2000013    1    1    2    0    0  0.80005722544E+03 -0.15842228830E+03 -0.13875265557E+03  0.12597386574E+04  0.95000000000E+03 0.  0.
   -2000013    1    1    2    0    0 -0.80005722544E+03  0.15842228830E+03  0.79281242174E+03  0.14819719031E+04  0.95000000000E+03 0.  0.
<mgrwt>
<rscale>  0 0.26625519E+04</rscale>
<asrwt>0</asrwt>
<pdfrwt beam="1">  1        2 0.26121310E+00 0.26625519E+04</pdfrwt>
<pdfrwt beam="2">  1       -2 0.16058852E+00 0.26625519E+04</pdfrwt>
<totfact> 0.21583890E+00</totfact>
</mgrwt>
</event>
<event>
 4    1  0.1295381E-008  0.2165031E+04  0.7816531E-02  0.8533125E-01
          2   -1    0    0  501    0  0.00000000000E+00  0.00000000000E+00  0.11424607726E+04  0.11424607726E+04  0.00000000000E+00 0.  1.
         -2   -1    0    0    0  501 -0.00000000000E+00 -0.00000000000E+00 -0.10257157218E+04  0.10257157218E+04  0.00000000000E+00 0. -1.
    2000013    1    1    2    0    0 -0.44729336614E+03  0.17505480552E+03 -0.13844399762E+03  0.10734906990E+04  0.95000000000E+03 0.  0.
   -2000013    1    1    2    0    0  0.44729336614E+03 -0.17505480552E+03  0.25518904837E+03  0.10946857954E+04  0.95000000000E+03 0.  0.
<mgrwt>
<rscale>  0 0.21650312E+04</rscale>
<asrwt>0</asrwt>
<pdfrwt beam="1">  1        2 0.17576320E+00 0.21650312E+04</pdfrwt>
<pdfrwt beam="2">  1       -2 0.15780242E+00 0.21650312E+04</pdfrwt>
<totfact> 0.49192181E+00</totfact>
</mgrwt>
</event>
<event>
 4    1  0.1295381E-008  0.2038717E+04  0.7816531E-02  0.8588730E-01
         -2   -1    0    0    0  501 -0.00000000000E+00  0.00000000000E+00  0.45201909321E+03  0.45201909321E+03  0.00000000000E+00 0. -1.
          2   -1    0    0  501    0  0.00000000000E+00 -0.00000000000E+00 -0.22987779001E+04  0.22987779001E+04  0.00000000000E+00 0.  1.
    2000013    1    1    2    0    0 -0.17969393344E+03  0.32275852817E+03 -0.90808280350E+03  0.13651290618E+04  0.95000000000E+03 0.  0.
   -2000013    1    1    2    0    0  0.17969393344E+03 -0.32275852817E+03 -0.93867600341E+03  0.13856679316E+04  0.95000000000E+03 0.  0.
<mgrwt>
<rscale>  0 0.20387168E+04</rscale>
<asrwt>0</asrwt>
<pdfrwt beam="2">  1        2 0.35365815E+00 0.20387168E+04</pdfrwt>
<pdfrwt beam="1">  1       -2 0.69541398E-01 0.20387168E+04</pdfrwt>
<totfact> 0.79315912E+00</totfact>
</mgrwt>
</event>
<event>
 4    1  0.1295381E-008  0.2607085E+04  0.7816531E-02  0.8365799E-01
         -4   -1    0    0    0  501 -0.00000000000E+00  0.00000000000E+00  0.14718848229E+04  0.14718848229E+04  0.00000000000E+00 0. -1.
          4   -1    0    0  501    0  0.00000000000E+00 -0.00000000000E+00 -0.11544534870E+04  0.11544534870E+04  0.00000000000E+00 0.  1.
    2000013    1    1    2    0    0  0.63314862731E+03  0.57593177266E+03 -0.96429305050E+02  0.12823311592E+04  0.95000000000E+03 0.  0.
   -2000013    1    1    2    0    0 -0.63314862731E+03 -0.57593177266E+03  0.41386064100E+03  0.13440071507E+04  0.95000000000E+03 0.  0.
<mgrwt>
<rscale>  0 0.26070846E+04</rscale>
<asrwt>0</asrwt>
<pdfrwt beam="2">  1        4 0.17760823E+00 0.26070846E+04</pdfrwt>
<pdfrwt beam="1">  1       -4 0.22644382E+00 0.26070846E+04</pdfrwt>
<totfact> 0.29210513E-02</totfact>
</mgrwt>
</event>
<event>
 4    1  0.1295381E-008  0.3094962E+04  0.7816531E-02  0.8217122E-01
         -1   -1    0    0    0  501 -0.00000000000E+00  0.00000000000E+00  0.10882282668E+04  0.10882282668E+04  0.00000000000E+00 0.  1.
          1   -1    0    0  501    0  0.00000000000E+00 -0.00000000000E+00 -0.22005467276E+04  0.22005467276E+04  0.00000000000E+00 0. -1.
    2000013    1    1    2    0    0 -0.97942059776E+03  0.72545804744E+03 -0.46955020808E+03  0.16150948838E+04  0.95000000000E+03 0.  0.
   -2000013    1    1    2    0    0  0.97942059776E+03 -0.72545804744E+03 -0.64276825269E+03  0.16736801106E+04  0.95000000000E+03 0.  0.
<mgrwt>
<rscale>  0 0.30949618E+04</rscale>
<asrwt>0</asrwt>
<pdfrwt beam="2">  1        1 0.33854565E+00 0.30949618E+04</pdfrwt>
<pdfrwt beam="1">  1       -1 0.16741973E+00 0.30949618E+04</pdfrwt>
<totfact> 0.47237684E-01</totfact>
</mgrwt>
</event>
<event>
 4    1  0.1295381E-008  0.2031629E+04  0.7816531E-02  0.8591974E-01
         -2   -1    0    0    0  501 -0.00000000000E+00  0.00000000000E+00  0.14696814760E+04  0.14696814760E+04  0.00000000000E+00 0. -1.
          2   -1    0    0  501    0  0.00000000000E+00 -0.00000000000E+00 -0.70211083182E+03  0.70211083182E+03  0.00000000000E+00 0.  1.
    2000013    1    1    2    0    0 -0.89889131345E+02 -0.27966813003E+03  0.60567480546E+03  0.11643179501E+04  0.95000000000E+03 0.  0.
   -2000013    1    1    2    0    0  0.89889131345E+02  0.27966813003E+03  0.16189583871E+03  0.10074743577E+04  0.95000000000E+03 0.  0.
<mgrwt>
<rscale>  0 0.20316292E+04</rscale>
<asrwt>0</asrwt>
<pdfrwt beam="2">  1        2 0.10801705E+00 0.20316292E+04</pdfrwt>
<pdfrwt beam="1">  1       -2 0.22610484E+00 0.20316292E+04</pdfrwt>
<totfact> 0.34194140E+00</totfact>
</mgrwt>
</event>
<event>
 4    1  0.1295381E-008  0.2687186E+04  0.7816531E-02  0.8339175E-01
         -1   -1    0    0    0  501 -0.00000000000E+00  0.00000000000E+00  0.62572279511E+03  0.62572279511E+03  0.00000000000E+00 0.  1.
          1   -1    0    0  501    0  0.00000000000E+00 -0.00000000000E+00 -0.28850510267E+04  0.28850510267E+04  0.00000000000E+00 0. -1.
    2000013    1    1    2    0    0  0.74193823577E+03  0.52747243718E+03 -0.77415874391E+03  0.15266044931E+04  0.95000000000E+03 0.  0.
   -2000013    1    1    2    0    0 -0.74193823577E+03 -0.52747243718E+03 -0.14851694877E+04  0.19841693287E+04  0.95000000000E+03 0.  0.
<mgrwt>
<rscale>  0 0.26871860E+04</rscale>
<asrwt>0</asrwt>
<pdfrwt beam="2">  1        1 0.44385401E+00 0.26871860E+04</pdfrwt>
<pdfrwt beam="1">  1       -1 0.96265044E-01 0.26871860E+04</pdfrwt>
<totfact> 0.65762668E-01</totfact>
</mgrwt>
</event>
<event>
 4    1  0.1295381E-008  0.3176669E+04  0.7816531E-02  0.8195006E-01
          1   -1    0    0  501    0  0.00000000000E+00  0.00000000000E+00  0.23233699373E+04  0.23233699373E+04  0.00000000000E+00 0.  1.
         -1   -1    0    0    0  501 -0.00000000000E+00 -0.00000000000E+00 -0.10858393905E+04  0.10858393905E+04  0.00000000000E+00 0. -1.
    2000013    1    1    2    0    0 -0.62322763010E+03  0.10813932966E+04  0.88702824960E+03  0.18019831455E+04  0.95000000000E+03 0.  0.
   -2000013    1    1    2    0    0  0.62322763010E+03 -0.10813932966E+04  0.35050229723E+03  0.16072261824E+04  0.95000000000E+03 0.  0.
<mgrwt>
<rscale>  0 0.31766691E+04</rscale>
<asrwt>0</asrwt>
<pdfrwt beam="1">  1        1 0.35744153E+00 0.31766691E+04</pdfrwt>
<pdfrwt beam="2">  1       -1 0.16705221E+00 0.31766691E+04</pdfrwt>
<totfact> 0.38897434E-01</totfact>
</mgrwt>
</event>
<event>
 4    1  0.1295381E-008  0.2354881E+04  0.7816531E-02  0.8456591E-01
          2   -1    0    0  501    0  0.00000000000E+00  0.00000000000E+00  0.37334019744E+04  0.37334019744E+04  0.00000000000E+00 0.  1.
         -2   -1    0    0    0  501 -0.00000000000E+00 -0.00000000000E+00 -0.37134131752E+03  0.37134131752E+03  0.00000000000E+00 0. -1.
    2000013    1    1    2    0    0 -0.42091062971E+03  0.46620396957E+03  0.22020753228E+04  0.24791425185E+04  0.95000000000E+03 0.  0.
   -2000013    1    1    2    0    0  0.42091062971E+03 -0.46620396957E+03  0.11599853341E+04  0.16256007735E+04  0.95000000000E+03 0.  0.
<mgrwt>
<rscale>  0 0.23548812E+04</rscale>
<asrwt>0</asrwt>
<pdfrwt beam="1">  1        2 0.57436951E+00 0.23548812E+04</pdfrwt>
<pdfrwt beam="2">  1       -2 0.57129436E-01 0.23548812E+04</pdfrwt>
<totfact> 0.14338505E+00</totfact>
</mgrwt>
</event>
<event>
 4    1  0.1295381E-008  0.2512464E+04  0.7816531E-02  0.8398559E-01
         -2   -1    0    0    0  501 -0.00000000000E+00  0.00000000000E+00  0.74712734445E+03  0.74712734445E+03  0.00000000000E+00 0. -1.
          2   -1    0    0  501    0  0.00000000000E+00 -0.00000000000E+00 -0.21122482512E+04  0.21122482512E+04  0.00000000000E+00 0.  1.
    2000013    1    1    2    0    0  0.67852047294E+03  0.46110468203E+03 -0.62440857200E+03  0.14019249712E+04  0.95000000000E+03 0.  0.
   -2000013    1    1    2    0    0 -0.67852047294E+03 -0.46110468203E+03 -0.74071233478E+03  0.14574506245E+04  0.95000000000E+03 0.  0.
<mgrwt>
<rscale>  0 0.25124637E+04</rscale>
<asrwt>0</asrwt>
<pdfrwt beam="2">  1        2 0.32496126E+00 0.25124637E+04</pdfrwt>
<pdfrwt beam="1">  1       -2 0.11494267E+00 0.25124637E+04</pdfrwt>
<totfact> 0.30421103E+00</totfact>
</mgrwt>
</event>
<event>
 4    1  0.1295381E-008  0.3961966E+04  0.7816531E-02  0.8012263E-01
          2   -1    0    0  501    0  0.00000000000E+00  0.00000000000E+00  0.50468813073E+04  0.50468813073E+04  0.00000000000E+00 0.  1.
         -2   -1    0    0    0  501 -0.00000000000E+00 -0.00000000000E+00 -0.77756799413E+03  0.77756799413E+03  0.00000000000E+00 0. -1.
    2000013    1    1    2    0    0  0.20065947421E+03 -0.16908259044E+04  0.16198374488E+04  0.25348628807E+04  0.95000000000E+03 0.  0.
   -2000013    1    1    2    0    0 -0.20065947421E+03  0.16908259044E+04  0.26494758644E+04  0.32895864207E+04  0.95000000000E+03 0.  0.
<mgrwt>
<rscale>  0 0.39619659E+04</rscale>
<asrwt>0</asrwt>
<pdfrwt beam="1">  1        2 0.77644326E+00 0.39619659E+04</pdfrwt>
<pdfrwt beam="2">  1       -2 0.11962585E+00 0.39619659E+04</pdfrwt>
<totfact> 0.12504572E-02</totfact>
</mgrwt>
</event>
<event>
 4    1  0.1295381E-008  0.2472566E+04  0.7816531E-02  0.8412825E-01
          2   -1    0    0  501    0  0.00000000000E+00  0.00000000000E+00  0.37419540470E+04  0.37419540470E+04  0.00000000000E+00 0.  1.
         -2   -1    0    0    0  501 -0.00000000000E+00 -0.00000000000E+00 -0.40844839157E+03  0.40844839157E+03  0.00000000000E+00 0. -1.
    2000013    1    1    2    0    0 -0.58426861843E+03  0.21360353838E+03  0.84630796918E+03  0.14162391990E+04  0.95000000000E+03 0.  0.
   -2000013    1    1    2    0    0  0.58426861843E+03 -0.21360353838E+03  0.24871976863E+04  0.27341632396E+04  0.95000000000E+03 0.  0.
<mgrwt>
<rscale>  0 0.24725656E+04</rscale>
<asrwt>0</asrwt>
<pdfrwt beam="1">  1        2 0.57568522E+00 0.24725656E+04</pdfrwt>
<pdfrwt beam="2">  1       -2 0.62838217E-01 0.24725656E+04</pdfrwt>
<totfact> 0.11426915E+00</totfact>
</mgrwt>
</event>
<event>
 4    1  0.1295381E-008  0.2452845E+04  0.7816531E-02  0.8419980E-01
          2   -1    0    0  501    0  0.00000000000E+00  0.00000000000E+00  0.67225234397E+03  0.67225234397E+03  0.00000000000E+00 0.  1.
         -2   -1    0    0    0  501 -0.00000000000E+00 -0.00000000000E+00 -0.22374226428E+04  0.22374226428E+04  0.00000000000E+00 0. -1.
    2000013    1    1    2    0    0  0.59428057379E+03  0.49709533107E+03 -0.82599988496E+03  0.14781911170E+04  0.95000000000E+03 0.  0.
   -2000013    1    1    2    0    0 -0.59428057379E+03 -0.49709533107E+03 -0.73917041387E+03  0.14314838697E+04  0.95000000000E+03 0.  0.
<mgrwt>
<rscale>  0 0.24528454E+04</rscale>
<asrwt>0</asrwt>
<pdfrwt beam="1">  1        2 0.10342344E+00 0.24528454E+04</pdfrwt>
<pdfrwt beam="2">  1       -2 0.34421887E+00 0.24528454E+04</pdfrwt>
<totfact> 0.65347456E-01</totfact>
</mgrwt>
</event>
<event>
 4    1  0.1295381E-008  0.3180600E+04  0.7816531E-02  0.8193959E-01
          2   -1    0    0  501    0  0.00000000000E+00  0.00000000000E+00  0.13270468677E+04  0.13270468677E+04  0.00000000000E+00 0.  1.
         -2   -1    0    0    0  501 -0.00000000000E+00 -0.00000000000E+00 -0.19057761837E+04  0.19057761837E+04  0.00000000000E+00 0. -1.
    2000013    1    1    2    0    0  0.10996769137E+04  0.64331727295E+03 -0.34870027301E+03  0.16270335917E+04  0.95000000000E+03 0.  0.
   -2000013    1    1    2    0    0 -0.10996769137E+04 -0.64331727295E+03 -0.23002904303E+03  0.16057894597E+04  0.95000000000E+03 0.  0.
<mgrwt>
<rscale>  0 0.31806001E+04</rscale>
<asrwt>0</asrwt>
<pdfrwt beam="1">  1        2 0.20416106E+00 0.31806001E+04</pdfrwt>
<pdfrwt beam="2">  1       -2 0.29319634E+00 0.31806001E+04</pdfrwt>
<totfact> 0.47031377E-01</totfact>
</mgrwt>
</event>
<event>
 4    1  0.1295381E-008  0.2365327E+04  0.7816531E-02  0.8452600E-01
          2   -1    0    0  501    0  0.00000000000E+00  0.00000000000E+00  0.15851224272E+04  0.15851224272E+04  0.00000000000E+00 0. -1.
         -2   -1    0    0    0  501 -0.00000000000E+00 -0.00000000000E+00 -0.88238760415E+03  0.88238760415E+03  0.00000000000E+00 0.  1.
    2000013    1    1    2    0    0  0.50168676728E+03  0.49048498686E+03  0.28599238458E+03  0.12151365268E+04  0.95000000000E+03 0.  0.
   -2000013    1    1    2    0    0 -0.50168676728E+03 -0.49048498686E+03  0.41674243848E+03  0.12523735045E+04  0.95000000000E+03 0.  0.
<mgrwt>
<rscale>  0 0.23653265E+04</rscale>
<asrwt>0</asrwt>
<pdfrwt beam="1">  1        2 0.24386499E+00 0.23653265E+04</pdfrwt>
<pdfrwt beam="2">  1       -2 0.13575194E+00 0.23653265E+04</pdfrwt>
<totfact> 0.39879534E+00</totfact>
</mgrwt>
</event>
<event>
 4    1  0.1295381E-008  0.2385837E+04  0.7816531E-02  0.8444825E-01
          2   -1    0    0  501    0  0.00000000000E+00  0.00000000000E+00  0.25240311113E+04  0.25240311113E+04  0.00000000000E+00 0.  1.
         -2   -1    0    0    0  501 -0.00000000000E+00 -0.00000000000E+00 -0.56380225953E+03  0.56380225953E+03  0.00000000000E+00 0. -1.
    2000013    1    1    2    0    0 -0.37666271581E+03 -0.49774342168E+03  0.14484256407E+04  0.18412115989E+04  0.95000000000E+03 0.  0.
   -2000013    1    1    2    0    0  0.37666271581E+03  0.49774342168E+03  0.51180321102E+03  0.12466217719E+04  0.95000000000E+03 0.  0.
<mgrwt>
<rscale>  0 0.23858369E+04</rscale>
<asrwt>0</asrwt>
<pdfrwt beam="1">  1        2 0.38831247E+00 0.23858369E+04</pdfrwt>
<pdfrwt beam="2">  1       -2 0.86738810E-01 0.23858369E+04</pdfrwt>
<totfact> 0.34910351E+00</totfact>
</mgrwt>
</event>
<event>
 4    1  0.1295381E-008  0.2379258E+04  0.7816531E-02  0.8447310E-01
          2   -1    0    0  501    0  0.00000000000E+00  0.00000000000E+00  0.36723873057E+04  0.36723873057E+04  0.00000000000E+00 0.  1.
         -2   -1    0    0    0  501 -0.00000000000E+00 -0.00000000000E+00 -0.38536720034E+03  0.38536720034E+03  0.00000000000E+00 0. -1.
    2000013    1    1    2    0    0 -0.33337083295E+03 -0.43013219402E+03  0.84983797666E+03  0.13859561332E+04  0.95000000000E+03 0.  0.
   -2000013    1    1    2    0    0  0.33337083295E+03  0.43013219402E+03  0.24371821287E+04  0.26717983728E+04  0.95000000000E+03 0.  0.
<mgrwt>
<rscale>  0 0.23792584E+04</rscale>
<asrwt>0</asrwt>
<pdfrwt beam="1">  1        2 0.56498264E+00 0.23792584E+04</pdfrwt>
<pdfrwt beam="2">  1       -2 0.59287264E-01 0.23792584E+04</pdfrwt>
<totfact> 0.14677859E+00</totfact>
</mgrwt>
</event>
<event>
 4    1  0.1295381E-008  0.3092316E+04  0.7816531E-02  0.8217850E-01
         -2   -1    0    0    0  501 -0.00000000000E+00  0.00000000000E+00  0.97045455122E+03  0.97045455122E+03  0.00000000000E+00 0. -1.
          2   -1    0    0  501    0  0.00000000000E+00 -0.00000000000E+00 -0.24633870198E+04  0.24633870198E+04  0.00000000000E+00 0.  1.
    2000013    1    1    2    0    0  0.10129047713E+04  0.19945898333E+03 -0.14681220337E+04  0.20306753230E+04  0.95000000000E+03 0.  0.
   -2000013    1    1    2    0    0 -0.10129047713E+04 -0.19945898333E+03 -0.24810434936E+02  0.14031662480E+04  0.95000000000E+03 0.  0.
<mgrwt>
<rscale>  0 0.30923164E+04</rscale>
<asrwt>0</asrwt>
<pdfrwt beam="2">  1        2 0.37898262E+00 0.30923164E+04</pdfrwt>
<pdfrwt beam="1">  1       -2 0.14930070E+00 0.30923164E+04</pdfrwt>
<totfact> 0.94183568E-01</totfact>
</mgrwt>
</event>
<event>
 4    1  0.1295381E-008  0.2595103E+04  0.7816531E-02  0.8369867E-01
         -2   -1    0    0    0  501 -0.00000000000E+00  0.00000000000E+00  0.20669713205E+04  0.20669713205E+04  0.00000000000E+00 0. -1.
          2   -1    0    0  501    0  0.00000000000E+00 -0.00000000000E+00 -0.81454421051E+03  0.81454421051E+03  0.00000000000E+00 0.  1.
    2000013    1    1    2    0    0 -0.39798613597E+03 -0.68081796066E+03  0.18313209063E+03  0.12481760383E+04  0.95000000000E+03 0.  0.
   -2000013    1    1    2    0    0  0.39798613597E+03  0.68081796066E+03  0.10692950194E+04  0.16333394927E+04  0.95000000000E+03 0.  0.
<mgrwt>
<rscale>  0 0.25951027E+04</rscale>
<asrwt>0</asrwt>
<pdfrwt beam="2">  1        2 0.12531450E+00 0.25951027E+04</pdfrwt>
<pdfrwt beam="1">  1       -2 0.31799558E+00 0.25951027E+04</pdfrwt>
<totfact> 0.73321785E-01</totfact>
</mgrwt>
</event>
<event>
 4    1  0.1295381E-008  0.2512758E+04  0.7816531E-02  0.8398454E-01
          2   -1    0    0  501    0  0.00000000000E+00  0.00000000000E+00  0.22738921665E+04  0.22738921665E+04  0.00000000000E+00 0.  1.
         -2   -1    0    0    0  501 -0.00000000000E+00 -0.00000000000E+00 -0.69417925952E+03  0.69417925952E+03  0.00000000000E+00 0. -1.
    2000013    1    1    2    0    0  0.20226107849E+03  0.60209023300E+03  0.14065365210E+04  0.18122547220E+04  0.95000000000E+03 0.  0.
   -2000013    1    1    2    0    0 -0.20226107849E+03 -0.60209023300E+03  0.17317638597E+03  0.11558167040E+04  0.95000000000E+03 0.  0.
<mgrwt>
<rscale>  0 0.25127585E+04</rscale>
<asrwt>0</asrwt>
<pdfrwt beam="1">  1        2 0.34982956E+00 0.25127585E+04</pdfrwt>
<pdfrwt beam="2">  1       -2 0.10679681E+00 0.25127585E+04</pdfrwt>
<totfact> 0.29487381E+00</totfact>
</mgrwt>
</event>
<event>
 4    1  0.1295381E-008  0.2375070E+04  0.7816531E-02  0.8448896E-01
         -2   -1    0    0    0  501 -0.00000000000E+00  0.00000000000E+00  0.65110746240E+03  0.65110746240E+03  0.00000000000E+00 0. -1.
          2   -1    0    0  501    0  0.00000000000E+00 -0.00000000000E+00 -0.21659084181E+04  0.21659084181E+04  0.00000000000E+00 0.  1.
    2000013    1    1    2    0    0 -0.57121628086E+03  0.42597052582E+03 -0.75793818644E+03  0.14087970836E+04  0.95000000000E+03 0.  0.
   -2000013    1    1    2    0    0  0.57121628086E+03 -0.42597052582E+03 -0.75686276928E+03  0.14082187969E+04  0.95000000000E+03 0.  0.
<mgrwt>
<rscale>  0 0.23750698E+04</rscale>
<asrwt>0</asrwt>
<pdfrwt beam="2">  1        2 0.33321669E+00 0.23750698E+04</pdfrwt>
<pdfrwt beam="1">  1       -2 0.10017038E+00 0.23750698E+04</pdfrwt>
<totfact> 0.40001712E+00</totfact>
</mgrwt>
</event>
<event>
 4    1  0.1295381E-008  0.2542057E+04  0.7816531E-02  0.8388154E-01
          2   -1    0    0  501    0  0.00000000000E+00  0.00000000000E+00  0.14730557439E+04  0.14730557439E+04  0.00000000000E+00 0.  1.
         -2   -1    0    0    0  501 -0.00000000000E+00 -0.00000000000E+00 -0.10967093392E+04  0.10967093392E+04  0.00000000000E+00 0. -1.
    2000013    1    1    2    0    0 -0.58977419769E+03  0.98369087347E+02 -0.41456713525E+03  0.11966102086E+04  0.95000000000E+03 0.  0.
   -2000013    1    1    2    0    0  0.58977419769E+03 -0.98369087347E+02  0.79091353993E+03  0.13731548745E+04  0.95000000000E+03 0.  0.
<mgrwt>
<rscale>  0 0.25420574E+04</rscale>
<asrwt>0</asrwt>
<pdfrwt beam="1">  1        2 0.22662396E+00 0.25420574E+04</pdfrwt>
<pdfrwt beam="2">  1       -2 0.16872451E+00 0.25420574E+04</pdfrwt>
<totfact> 0.25437172E+00</totfact>
</mgrwt>
</event>
<event>
 4    1  0.1295381E-008  0.2181073E+04  0.7816531E-02  0.8526347E-01
         -2   -1    0    0    0  501 -0.00000000000E+00  0.00000000000E+00  0.10576716110E+04  0.10576716110E+04  0.00000000000E+00 0. -1.
          2   -1    0    0  501    0  0.00000000000E+00 -0.00000000000E+00 -0.11244227309E+04  0.11244227309E+04  0.00000000000E+00 0.  1.
    2000013    1    1    2    0    0 -0.19513800538E+03 -0.49653357712E+03 -0.79717512575E+02  0.10924647894E+04  0.95000000000E+03 0.  0.
   -2000013    1    1    2    0    0  0.19513800538E+03  0.49653357712E+03  0.12966392690E+02  0.10896295525E+04  0.95000000000E+03 0.  0.
<mgrwt>
<rscale>  0 0.21810731E+04</rscale>
<asrwt>0</asrwt>
<pdfrwt beam="2">  1        2 0.17298811E+00 0.21810731E+04</pdfrwt>
<pdfrwt beam="1">  1       -2 0.16271871E+00 0.21810731E+04</pdfrwt>
<totfact> 0.46343945E+00</totfact>
</mgrwt>
</event>
<event>
 4    1  0.1295381E-008  0.2974878E+04  0.7816531E-02  0.8250941E-01
         -2   -1    0    0    0  501 -0.00000000000E+00  0.00000000000E+00  0.10694941450E+04  0.10694941450E+04  0.00000000000E+00 0. -1.
          2   -1    0    0  501    0  0.00000000000E+00 -0.00000000000E+00 -0.20687119515E+04  0.20687119515E+04  0.00000000000E+00 0.  1.
    2000013    1    1    2    0    0  0.16417393257E+03  0.95238170156E+03 -0.11464553047E+04  0.17750616190E+04  0.95000000000E+03 0.  0.
   -2000013    1    1    2    0    0 -0.16417393257E+03 -0.95238170156E+03  0.14723749824E+03  0.13631444775E+04  0.95000000000E+03 0.  0.
<mgrwt>
<rscale>  0 0.29748784E+04</rscale>
<asrwt>0</asrwt>
<pdfrwt beam="2">  1        2 0.31826338E+00 0.29748784E+04</pdfrwt>
<pdfrwt beam="1">  1       -2 0.16453756E+00 0.29748784E+04</pdfrwt>
<totfact> 0.12243244E+00</totfact>
</mgrwt>
</event>
<event>
 4    1  0.1295381E-008  0.2296373E+04  0.7816531E-02  0.8479353E-01
          2   -1    0    0  501    0  0.00000000000E+00  0.00000000000E+00  0.42877210836E+04  0.42877210836E+04  0.00000000000E+00 0.  1.
         -2   -1    0    0    0  501 -0.00000000000E+00 -0.00000000000E+00 -0.30746688720E+03  0.30746688720E+03  0.00000000000E+00 0. -1.
    2000013    1    1    2    0    0 -0.16939624490E+03 -0.52144355239E+03  0.26694101314E+04  0.28859745175E+04  0.95000000000E+03 0.  0.
   -2000013    1    1    2    0    0  0.16939624490E+03  0.52144355239E+03  0.13108440650E+04  0.17092134532E+04  0.95000000000E+03 0.  0.
<mgrwt>
<rscale>  0 0.22963730E+04</rscale>
<asrwt>0</asrwt>
<pdfrwt beam="1">  1        2 0.65964935E+00 0.22963730E+04</pdfrwt>
<pdfrwt beam="2">  1       -2 0.47302601E-01 0.22963730E+04</pdfrwt>
<totfact> 0.75333755E-01</totfact>
</mgrwt>
</event>
<event>
 4    1  0.1295381E-008  0.2277675E+04  0.7816531E-02  0.8486776E-01
         -2   -1    0    0    0  501 -0.00000000000E+00  0.00000000000E+00  0.15642176644E+04  0.15642176644E+04  0.00000000000E+00 0. -1.
          2   -1    0    0  501    0  0.00000000000E+00 -0.00000000000E+00 -0.82913684124E+03  0.82913684124E+03  0.00000000000E+00 0.  1.
    2000013    1    1    2    0    0 -0.47751278965E+03  0.40215400124E+03  0.43961093627E+03  0.12188125698E+04  0.95000000000E+03 0.  0.
   -2000013    1    1    2    0    0  0.47751278965E+03 -0.40215400124E+03  0.29546988690E+03  0.11745419358E+04  0.95000000000E+03 0.  0.
<mgrwt>
<rscale>  0 0.22776747E+04</rscale>
<asrwt>0</asrwt>
<pdfrwt beam="2">  1        2 0.12755951E+00 0.22776747E+04</pdfrwt>
<pdfrwt beam="1">  1       -2 0.24064887E+00 0.22776747E+04</pdfrwt>
<totfact> 0.21879384E+00</totfact>
</mgrwt>
</event>
<event>
 4    1  0.1295381E-008  0.3991718E+04  0.7816531E-02  0.8006219E-01
          2   -1    0    0  501    0  0.00000000000E+00  0.00000000000E+00  0.29997623223E+04  0.29997623223E+04  0.00000000000E+00 0.  1.
         -2   -1    0    0    0  501 -0.00000000000E+00 -0.00000000000E+00 -0.13279227010E+04  0.13279227010E+04  0.00000000000E+00 0. -1.
    2000013    1    1    2    0    0 -0.83556520257E+03 -0.11957835454E+04 -0.22239791764E+03  0.17550009484E+04  0.95000000000E+03 0.  0.
   -2000013    1    1    2    0    0  0.83556520257E+03  0.11957835454E+04  0.18942375389E+04  0.25726840749E+04  0.95000000000E+03 0.  0.
<mgrwt>
<rscale>  0 0.39917177E+04</rscale>
<asrwt>0</asrwt>
<pdfrwt beam="1">  1        2 0.46150189E+00 0.39917177E+04</pdfrwt>
<pdfrwt beam="2">  1       -2 0.20429580E+00 0.39917177E+04</pdfrwt>
<totfact> 0.17130954E-01</totfact>
</mgrwt>
</event>
<event>
 4    1  0.1295381E-008  0.3182982E+04  0.7816531E-02  0.8193326E-01
          2   -1    0    0  501    0  0.00000000000E+00  0.00000000000E+00  0.27357286341E+04  0.27357286341E+04  0.00000000000E+00 0.  1.
         -2   -1    0    0    0  501 -0.00000000000E+00 -0.00000000000E+00 -0.92583849010E+03  0.92583849010E+03  0.00000000000E+00 0. -1.
    2000013    1    1    2    0    0  0.14377996361E+03 -0.12073753687E+04  0.13533114925E+04  0.20524083304E+04  0.95000000000E+03 0.  0.
   -2000013    1    1    2    0    0 -0.14377996361E+03  0.12073753687E+04  0.45657865154E+03  0.16091587939E+04  0.95000000000E+03 0.  0.
<mgrwt>
<rscale>  0 0.31829815E+04</rscale>
<asrwt>0</asrwt>
<pdfrwt beam="1">  1        2 0.42088132E+00 0.31829815E+04</pdfrwt>
<pdfrwt beam="2">  1       -2 0.14243669E+00 0.31829815E+04</pdfrwt>
<totfact> 0.73165900E-01</totfact>
</mgrwt>
</event>
<event>
 4    1  0.1295381E-008  0.2153055E+04  0.7816531E-02  0.8538226E-01
         -2   -1    0    0    0  501 -0.00000000000E+00  0.00000000000E+00  0.10166136260E+04  0.10166136260E+04  0.00000000000E+00 0. -1.
          2   -1    0    0  501    0  0.00000000000E+00 -0.00000000000E+00 -0.11399721804E+04  0.11399721804E+04  0.00000000000E+00 0.  1.
    2000013    1    1    2    0    0  0.36791464932E+03 -0.32161079403E+03  0.71265784088E+02  0.10706883319E+04  0.95000000000E+03 0.  0.
   -2000013    1    1    2    0    0 -0.36791464932E+03  0.32161079403E+03 -0.19462433853E+03  0.10858974745E+04  0.95000000000E+03 0.  0.
<mgrwt>
<rscale>  0 0.21530548E+04</rscale>
<asrwt>0</asrwt>
<pdfrwt beam="2">  1        2 0.17538034E+00 0.21530548E+04</pdfrwt>
<pdfrwt beam="1">  1       -2 0.15640210E+00 0.21530548E+04</pdfrwt>
<totfact> 0.50619934E+00</totfact>
</mgrwt>
</event>
<event>
 4    1  0.1295381E-008  0.2502007E+04  0.7816531E-02  0.8402271E-01
         -2   -1    0    0    0  501 -0.00000000000E+00  0.00000000000E+00  0.27760961676E+04  0.27760961676E+04  0.00000000000E+00 0. -1.
          2   -1    0    0  501    0  0.00000000000E+00 -0.00000000000E+00 -0.56374470658E+03  0.56374470658E+03  0.00000000000E+00 0.  1.
    2000013    1    1    2    0    0  0.72052438846E+03  0.14076578887E+03  0.63699568205E+03  0.13591298321E+04  0.95000000000E+03 0.  0.
   -2000013    1    1    2    0    0 -0.72052438846E+03 -0.14076578887E+03  0.15753557790E+04  0.19807110420E+04  0.95000000000E+03 0.  0.
<mgrwt>
<rscale>  0 0.25020068E+04</rscale>
<asrwt>0</asrwt>
<pdfrwt beam="2">  1        2 0.86729956E-01 0.25020068E+04</pdfrwt>
<pdfrwt beam="1">  1       -2 0.42709171E+00 0.25020068E+04</pdfrwt>
<totfact> 0.23458993E-01</totfact>
</mgrwt>
</event>
<event>
 4    1  0.1295381E-008  0.1991307E+04  0.7816531E-02  0.8610696E-01
          2   -1    0    0  501    0  0.00000000000E+00  0.00000000000E+00  0.17631864749E+04  0.17631864749E+04  0.00000000000E+00 0.  1.
         -2   -1    0    0    0  501 -0.00000000000E+00 -0.00000000000E+00 -0.56223563308E+03  0.56223563308E+03  0.00000000000E+00 0. -1.
    2000013    1    1    2    0    0  0.21063630530E+03 -0.45620649406E+02  0.36007762535E+03  0.10385589983E+04  0.95000000000E+03 0.  0.
   -2000013    1    1    2    0    0 -0.21063630530E+03  0.45620649406E+02  0.84087321648E+03  0.12868631096E+04  0.95000000000E+03 0.  0.
<mgrwt>
<rscale>  0 0.19913074E+04</rscale>
<asrwt>0</asrwt>
<pdfrwt beam="1">  1        2 0.27125946E+00 0.19913074E+04</pdfrwt>
<pdfrwt beam="2">  1       -2 0.86497790E-01 0.19913074E+04</pdfrwt>
<totfact> 0.97353906E+00</totfact>
</mgrwt>
</event>
<event>
 4    1  0.1295381E-008  0.2273919E+04  0.7816531E-02  0.8488276E-01
          2   -1    0    0  501    0  0.00000000000E+00  0.00000000000E+00  0.19987187776E+04  0.19987187776E+04  0.00000000000E+00 0.  1.
         -2   -1    0    0    0  501 -0.00000000000E+00 -0.00000000000E+00 -0.64675300773E+03  0.64675300773E+03  0.00000000000E+00 0. -1.
    2000013    1    1    2    0    0 -0.19672565600E+03  0.89057907979E+02 -0.59159275752E+01  0.97425217110E+03  0.95000000000E+03 0.  0.
   -2000013    1    1    2    0    0  0.19672565600E+03 -0.89057907979E+02  0.13578816974E+04  0.16712196142E+04  0.95000000000E+03 0.  0.
<mgrwt>
<rscale>  0 0.22739194E+04</rscale>
<asrwt>0</asrwt>
<pdfrwt beam="1">  1        2 0.30749519E+00 0.22739194E+04</pdfrwt>
<pdfrwt beam="2">  1       -2 0.99500464E-01 0.22739194E+04</pdfrwt>
<totfact> 0.50818626E+00</totfact>
</mgrwt>
</event>
<event>
 4    1  0.1295381E-008  0.3222492E+04  0.7816531E-02  0.8182902E-01
          2   -1    0    0  501    0  0.00000000000E+00  0.00000000000E+00  0.18009900994E+04  0.18009900994E+04  0.00000000000E+00 0.  1.
         -2   -1    0    0    0  501 -0.00000000000E+00 -0.00000000000E+00 -0.14414925016E+04  0.14414925016E+04  0.00000000000E+00 0. -1.
    2000013    1    1    2    0    0 -0.96475138939E+03 -0.29746627740E+03  0.10060509473E+04  0.17128543248E+04  0.95000000000E+03 0.  0.
   -2000013    1    1    2    0    0  0.96475138939E+03  0.29746627740E+03 -0.64655334957E+03  0.15296282762E+04  0.95000000000E+03 0.  0.
<mgrwt>
<rscale>  0 0.32224920E+04</rscale>
<asrwt>0</asrwt>
<pdfrwt beam="1">  1        2 0.27707540E+00 0.32224920E+04</pdfrwt>
<pdfrwt beam="2">  1       -2 0.22176808E+00 0.32224920E+04</pdfrwt>
<totfact> 0.69774024E-01</totfact>
</mgrwt>
</event>
<event>
 4    1  0.1295381E-008  0.2715895E+04  0.7816531E-02  0.8329866E-01
          2   -1    0    0  501    0  0.00000000000E+00  0.00000000000E+00  0.13450053438E+04  0.13450053438E+04  0.00000000000E+00 0.  1.
         -2   -1    0    0    0  501 -0.00000000000E+00 -0.00000000000E+00 -0.13710142918E+04  0.13710142918E+04  0.00000000000E+00 0. -1.
    2000013    1    1    2    0    0 -0.84216590185E+03  0.42330034019E+03 -0.24343848639E+03  0.13602164831E+04  0.95000000000E+03 0.  0.
   -2000013    1    1    2    0    0  0.84216590185E+03 -0.42330034019E+03  0.21742953837E+03  0.13558031525E+04  0.95000000000E+03 0.  0.
<mgrwt>
<rscale>  0 0.27158951E+04</rscale>
<asrwt>0</asrwt>
<pdfrwt beam="1">  1        2 0.20692390E+00 0.27158951E+04</pdfrwt>
<pdfrwt beam="2">  1       -2 0.21092528E+00 0.27158951E+04</pdfrwt>
<totfact> 0.15404178E+00</totfact>
</mgrwt>
</event>
<event>
 4    1  0.1295381E-008  0.2430667E+04  0.7816531E-02  0.8428111E-01
         -2   -1    0    0    0  501 -0.00000000000E+00  0.00000000000E+00  0.41825513074E+03  0.41825513074E+03  0.00000000000E+00 0. -1.
          2   -1    0    0  501    0  0.00000000000E+00 -0.00000000000E+00 -0.35314228325E+04  0.35314228325E+04  0.00000000000E+00 0.  1.
    2000013    1    1    2    0    0  0.21348391100E+03 -0.53619775633E+03 -0.75812623137E+03  0.13454883117E+04  0.95000000000E+03 0.  0.
   -2000013    1    1    2    0    0 -0.21348391100E+03  0.53619775633E+03 -0.23550414704E+04  0.26041896516E+04  0.95000000000E+03 0.  0.
<mgrwt>
<rscale>  0 0.24306672E+04</rscale>
<asrwt>0</asrwt>
<pdfrwt beam="2">  1        2 0.54329586E+00 0.24306672E+04</pdfrwt>
<pdfrwt beam="1">  1       -2 0.64346939E-01 0.24306672E+04</pdfrwt>
<totfact> 0.15491028E+00</totfact>
</mgrwt>
</event>
<event>
 4    1  0.1295381E-008  0.2691904E+04  0.7816531E-02  0.8337636E-01
         -2   -1    0    0    0  501 -0.00000000000E+00  0.00000000000E+00  0.19717095376E+04  0.19717095376E+04  0.00000000000E+00 0. -1.
          2   -1    0    0  501    0  0.00000000000E+00 -0.00000000000E+00 -0.91879020076E+03  0.91879020076E+03  0.00000000000E+00 0.  1.
    2000013    1    1    2    0    0  0.47508972162E+03  0.78110513121E+03  0.23584145039E+03  0.13393866728E+04  0.95000000000E+03 0.  0.
   -2000013    1    1    2    0    0 -0.47508972162E+03 -0.78110513121E+03  0.81707788647E+03  0.15511130656E+04  0.95000000000E+03 0.  0.
<mgrwt>
<rscale>  0 0.26919045E+04</rscale>
<asrwt>0</asrwt>
<pdfrwt beam="2">  1        2 0.14135234E+00 0.26919045E+04</pdfrwt>
<pdfrwt beam="1">  1       -2 0.30333993E+00 0.26919045E+04</pdfrwt>
<totfact> 0.75807101E-01</totfact>
</mgrwt>
</event>
<event>
 4    1  0.1295381E-008  0.2524393E+04  0.7816531E-02  0.8394347E-01
          2   -1    0    0  501    0  0.00000000000E+00  0.00000000000E+00  0.15709900180E+04  0.15709900180E+04  0.00000000000E+00 0.  1.
         -2   -1    0    0    0  501 -0.00000000000E+00 -0.00000000000E+00 -0.10140995211E+04  0.10140995211E+04  0.00000000000E+00 0. -1.
    2000013    1    1    2    0    0 -0.27571715014E+03 -0.35089142056E+03  0.99636906523E+03  0.14472028365E+04  0.95000000000E+03 0.  0.
   -2000013    1    1    2    0    0  0.27571715014E+03  0.35089142056E+03 -0.43947856826E+03  0.11378867026E+04  0.95000000000E+03 0.  0.
<mgrwt>
<rscale>  0 0.25243932E+04</rscale>
<asrwt>0</asrwt>
<pdfrwt beam="1">  1        2 0.24169077E+00 0.25243932E+04</pdfrwt>
<pdfrwt beam="2">  1       -2 0.15601531E+00 0.25243932E+04</pdfrwt>
<totfact> 0.27800611E+00</totfact>
</mgrwt>
</event>
<event>
 4    1  0.1295381E-008  0.2314352E+04  0.7816531E-02  0.8472284E-01
          2   -1    0    0  501    0  0.00000000000E+00  0.00000000000E+00  0.64964885480E+03  0.64964885480E+03  0.00000000000E+00 0.  1.
         -2   -1    0    0    0  501 -0.00000000000E+00 -0.00000000000E+00 -0.20612001821E+04  0.20612001821E+04  0.00000000000E+00 0. -1.
    2000013    1    1    2    0    0 -0.63582887409E+03  0.17935284580E+03 -0.69346077468E+03  0.13490121002E+04  0.95000000000E+03 0.  0.
   -2000013    1    1    2    0    0  0.63582887409E+03 -0.17935284580E+03 -0.71809055262E+03  0.13618369367E+04  0.95000000000E+03 0.  0.
<mgrwt>
<rscale>  0 0.23143520E+04</rscale>
<asrwt>0</asrwt>
<pdfrwt beam="1">  1        2 0.99945979E-01 0.23143520E+04</pdfrwt>
<pdfrwt beam="2">  1       -2 0.31710772E+00 0.23143520E+04</pdfrwt>
<totfact> 0.10171379E+00</totfact>
</mgrwt>
</event>
<event>
 4    1  0.1295381E-008  0.2534128E+04  0.7816531E-02  0.8390927E-01
          1   -1    0    0  501    0  0.00000000000E+00  0.00000000000E+00  0.10781323020E+04  0.10781323020E+04  0.00000000000E+00 0.  1.
         -1   -1    0    0    0  501 -0.00000000000E+00 -0.00000000000E+00 -0.14891036289E+04  0.14891036289E+04  0.00000000000E+00 0. -1.
    2000013    1    1    2    0    0  0.34517314991E+03  0.52539515397E+03  0.35652909994E+03  0.11936488472E+04  0.95000000000E+03 0.  0.
   -2000013    1    1    2    0    0 -0.34517314991E+03 -0.52539515397E+03 -0.76750042684E+03  0.13735870837E+04  0.95000000000E+03 0.  0.
<mgrwt>
<rscale>  0 0.25341276E+04</rscale>
<asrwt>0</asrwt>
<pdfrwt beam="1">  1        1 0.16586651E+00 0.25341276E+04</pdfrwt>
<pdfrwt beam="2">  1       -1 0.22909287E+00 0.25341276E+04</pdfrwt>
<totfact> 0.11166121E+00</totfact>
</mgrwt>
</event>
<event>
 4    1  0.1295381E-008  0.2774513E+04  0.7816531E-02  0.8311225E-01
          2   -1    0    0  501    0  0.00000000000E+00  0.00000000000E+00  0.91728129283E+03  0.91728129283E+03  0.00000000000E+00 0.  1.
         -2   -1    0    0    0  501 -0.00000000000E+00 -0.00000000000E+00 -0.20980262313E+04  0.20980262313E+04  0.00000000000E+00 0. -1.
    2000013    1    1    2    0    0  0.94810426713E+03  0.16894163018E+03 -0.25621871431E+03  0.13768046359E+04  0.95000000000E+03 0.  0.
   -2000013    1    1    2    0    0 -0.94810426713E+03 -0.16894163018E+03 -0.92452622419E+03  0.16385028883E+04  0.95000000000E+03 0.  0.
<mgrwt>
<rscale>  0 0.27745127E+04</rscale>
<asrwt>0</asrwt>
<pdfrwt beam="1">  1        2 0.14112020E+00 0.27745127E+04</pdfrwt>
<pdfrwt beam="2">  1       -2 0.32277326E+00 0.27745127E+04</pdfrwt>
<totfact> 0.57290747E-01</totfact>
</mgrwt>
</event>
<event>
 4    1  0.1295381E-008  0.3050943E+04  0.7816531E-02  0.8229332E-01
         -1   -1    0    0    0  501 -0.00000000000E+00  0.00000000000E+00  0.10820358670E+04  0.10820358670E+04  0.00000000000E+00 0. -1.
          1   -1    0    0  501    0  0.00000000000E+00 -0.00000000000E+00 -0.21506345986E+04  0.21506345986E+04  0.00000000000E+00 0.  1.
    2000013    1    1    2    0    0 -0.95311115925E+03 -0.28110898912E+03  0.16623258406E+03  0.13847658350E+04  0.95000000000E+03 0.  0.
   -2000013    1    1    2    0    0  0.95311115925E+03  0.28110898912E+03 -0.12348313157E+04  0.18479046306E+04  0.95000000000E+03 0.  0.
<mgrwt>
<rscale>  0 0.30509433E+04</rscale>
<asrwt>0</asrwt>
<pdfrwt beam="2">  1        1 0.33086686E+00 0.30509433E+04</pdfrwt>
<pdfrwt beam="1">  1       -1 0.16646706E+00 0.30509433E+04</pdfrwt>
<totfact> 0.52122622E-01</totfact>
</mgrwt>
</event>
<event>
 4    1  0.1295381E-008  0.4677628E+04  0.7816531E-02  0.7880257E-01
          2   -1    0    0  501    0  0.00000000000E+00  0.00000000000E+00  0.35679724970E+04  0.35679724970E+04  0.00000000000E+00 0.  1.
         -2   -1    0    0    0  501 -0.00000000000E+00 -0.00000000000E+00 -0.15330976267E+04  0.15330976267E+04  0.00000000000E+00 0. -1.
    2000013    1    1    2    0    0 -0.16274424025E+03 -0.10297992335E+04  0.30519544673E+04  0.33621270380E+04  0.95000000000E+03 0.  0.
   -2000013    1    1    2    0    0  0.16274424025E+03  0.10297992335E+04 -0.10170795969E+04  0.17389430858E+04  0.95000000000E+03 0.  0.
<mgrwt>
<rscale>  0 0.46776277E+04</rscale>
<asrwt>0</asrwt>
<pdfrwt beam="1">  1        2 0.54891884E+00 0.46776277E+04</pdfrwt>
<pdfrwt beam="2">  1       -2 0.23586117E+00 0.46776277E+04</pdfrwt>
<totfact> 0.42630620E-02</totfact>
</mgrwt>
</event>
<event>
 4    1  0.1295381E-008  0.2984407E+04  0.7816531E-02  0.8248198E-01
         -1   -1    0    0    0  501 -0.00000000000E+00  0.00000000000E+00  0.13067878121E+04  0.13067878121E+04  0.00000000000E+00 0. -1.
          1   -1    0    0  501    0  0.00000000000E+00 -0.00000000000E+00 -0.17039275267E+04  0.17039275267E+04  0.00000000000E+00 0.  1.
    2000013    1    1    2    0    0  0.41323014663E+03 -0.80953385200E+03 -0.91053004683E+03  0.15992714522E+04  0.95000000000E+03 0.  0.
   -2000013    1    1    2    0    0 -0.41323014663E+03  0.80953385200E+03  0.51339033222E+03  0.14114438865E+04  0.95000000000E+03 0.  0.
<mgrwt>
<rscale>  0 0.29844073E+04</rscale>
<asrwt>0</asrwt>
<pdfrwt beam="2">  1        1 0.26214270E+00 0.29844073E+04</pdfrwt>
<pdfrwt beam="1">  1       -1 0.20104428E+00 0.29844073E+04</pdfrwt>
<totfact> 0.59755654E-01</totfact>
</mgrwt>
</event>
<event>
 4    1  0.1295381E-008  0.2354818E+04  0.7816531E-02  0.8456615E-01
          2   -1    0    0  501    0  0.00000000000E+00  0.00000000000E+00  0.13106722725E+04  0.13106722725E+04  0.00000000000E+00 0.  1.
         -2   -1    0    0    0  501 -0.00000000000E+00 -0.00000000000E+00 -0.10576954006E+04  0.10576954006E+04  0.00000000000E+00 0. -1.
    2000013    1    1    2    0    0  0.56864116336E+03  0.37776623536E+03 -0.74390778954E+01  0.11698783873E+04  0.95000000000E+03 0.  0.
   -2000013    1    1    2    0    0 -0.56864116336E+03 -0.37776623536E+03  0.26041594973E+03  0.11984892858E+04  0.95000000000E+03 0.  0.
<mgrwt>
<rscale>  0 0.23548181E+04</rscale>
<asrwt>0</asrwt>
<pdfrwt beam="1">  1        2 0.20164189E+00 0.23548181E+04</pdfrwt>
<pdfrwt beam="2">  1       -2 0.16272237E+00 0.23548181E+04</pdfrwt>
<totfact> 0.35382666E+00</totfact>
</mgrwt>
</event>
<event>
 4    1  0.1295381E-008  0.2070046E+04  0.7816531E-02  0.8574555E-01
         -2   -1    0    0    0  501 -0.00000000000E+00  0.00000000000E+00  0.39440370994E+03  0.39440370994E+03  0.00000000000E+00 0. -1.
          2   -1    0    0  501    0  0.00000000000E+00 -0.00000000000E+00 -0.27161817412E+04  0.27161817412E+04  0.00000000000E+00 0.  1.
    2000013    1    1    2    0    0  0.19311346650E+03  0.89854535938E+02 -0.16887620809E+04  0.19493034690E+04  0.95000000000E+03 0.  0.
   -2000013    1    1    2    0    0 -0.19311346650E+03 -0.89854535938E+02 -0.63301595041E+03  0.11612819821E+04  0.95000000000E+03 0.  0.
<mgrwt>
<rscale>  0 0.20700456E+04</rscale>
<asrwt>0</asrwt>
<pdfrwt beam="2">  1        2 0.41787411E+00 0.20700456E+04</pdfrwt>
<pdfrwt beam="1">  1       -2 0.60677494E-01 0.20700456E+04</pdfrwt>
<totfact> 0.60732213E+00</totfact>
</mgrwt>
</event>
<event>
 4    1  0.1295381E-008  0.3193588E+04  0.7816531E-02  0.8190513E-01
          2   -1    0    0  501    0  0.00000000000E+00  0.00000000000E+00  0.32846085947E+04  0.32846085947E+04  0.00000000000E+00 0.  1.
         -2   -1    0    0    0  501 -0.00000000000E+00 -0.00000000000E+00 -0.77627221207E+03  0.77627221207E+03  0.00000000000E+00 0. -1.
    2000013    1    1    2    0    0  0.45290301677E+03 -0.10985778297E+04  0.63741449849E+03  0.16494822319E+04  0.95000000000E+03 0.  0.
   -2000013    1    1    2    0    0 -0.45290301677E+03  0.10985778297E+04  0.18709218842E+04  0.24113985749E+04  0.95000000000E+03 0.  0.
<mgrwt>
<rscale>  0 0.31935876E+04</rscale>
<asrwt>0</asrwt>
<pdfrwt beam="1">  1        2 0.50532439E+00 0.31935876E+04</pdfrwt>
<pdfrwt beam="2">  1       -2 0.11942650E+00 0.31935876E+04</pdfrwt>
<totfact> 0.51580245E-01</totfact>
</mgrwt>
</event>
<event>
 4    1  0.1295381E-008  0.2422240E+04  0.7816531E-02  0.8431224E-01
          2   -1    0    0  501    0  0.00000000000E+00  0.00000000000E+00  0.14634794680E+04  0.14634794680E+04  0.00000000000E+00 0.  1.
         -2   -1    0    0    0  501 -0.00000000000E+00 -0.00000000000E+00 -0.10022766777E+04  0.10022766777E+04  0.00000000000E+00 0. -1.
    2000013    1    1    2    0    0 -0.32164667561E+03  0.31390654864E+02 -0.45971827246E+03  0.11037585094E+04  0.95000000000E+03 0.  0.
   -2000013    1    1    2    0    0  0.32164667561E+03 -0.31390654864E+02  0.92092106283E+03  0.13619976362E+04  0.95000000000E+03 0.  0.
<mgrwt>
<rscale>  0 0.24222397E+04</rscale>
<asrwt>0</asrwt>
<pdfrwt beam="1">  1        2 0.22515069E+00 0.24222397E+04</pdfrwt>
<pdfrwt beam="2">  1       -2 0.15419641E+00 0.24222397E+04</pdfrwt>
<totfact> 0.33270665E+00</totfact>
</mgrwt>
</event>
<event>
 4    1  0.1295381E-008  0.2739837E+04  0.7816531E-02  0.8322194E-01
         -2   -1    0    0    0  501 -0.00000000000E+00  0.00000000000E+00  0.86126348891E+03  0.86126348891E+03  0.00000000000E+00 0. -1.
          2   -1    0    0  501    0  0.00000000000E+00 -0.00000000000E+00 -0.21789801620E+04  0.21789801620E+04  0.00000000000E+00 0.  1.
    2000013    1    1    2    0    0  0.71633435781E+02 -0.82331566724E+03 -0.12576509786E+04  0.17796533429E+04  0.95000000000E+03 0.  0.
   -2000013    1    1    2    0    0 -0.71633435781E+02  0.82331566724E+03 -0.60065694568E+02  0.12605903080E+04  0.95000000000E+03 0.  0.
<mgrwt>
<rscale>  0 0.27398365E+04</rscale>
<asrwt>0</asrwt>
<pdfrwt beam="2">  1        2 0.33522772E+00 0.27398365E+04</pdfrwt>
<pdfrwt beam="1">  1       -2 0.13250208E+00 0.27398365E+04</pdfrwt>
<totfact> 0.19198487E+00</totfact>
</mgrwt>
</event>
<event>
 4    1  0.1295381E-008  0.2311735E+04  0.7816531E-02  0.8473308E-01
          1   -1    0    0  501    0  0.00000000000E+00  0.00000000000E+00  0.78776653624E+03  0.78776653624E+03  0.00000000000E+00 0.  1.
         -1   -1    0    0    0  501 -0.00000000000E+00 -0.00000000000E+00 -0.16959722155E+04  0.16959722155E+04  0.00000000000E+00 0. -1.
    2000013    1    1    2    0    0  0.45688395606E+03 -0.44105994789E+03 -0.64097920776E+03  0.13102027216E+04  0.95000000000E+03 0.  0.
   -2000013    1    1    2    0    0 -0.45688395606E+03  0.44105994789E+03 -0.26722647148E+03  0.11735360301E+04  0.95000000000E+03 0.  0.
<mgrwt>
<rscale>  0 0.23117354E+04</rscale>
<asrwt>0</asrwt>
<pdfrwt beam="1">  1        1 0.12119485E+00 0.23117354E+04</pdfrwt>
<pdfrwt beam="2">  1       -1 0.26091880E+00 0.23117354E+04</pdfrwt>
<totfact> 0.12110698E+00</totfact>
</mgrwt>
</event>
<event>
 4    1  0.1295381E-008  0.2535401E+04  0.7816531E-02  0.8390481E-01
          2   -1    0    0  501    0  0.00000000000E+00  0.00000000000E+00  0.23418286493E+04  0.23418286493E+04  0.00000000000E+00 0.  1.
         -2   -1    0    0    0  501 -0.00000000000E+00 -0.00000000000E+00 -0.68624359567E+03  0.68624359567E+03  0.00000000000E+00 0. -1.
    2000013    1    1    2    0    0 -0.81757808062E+03 -0.18812415852E+03  0.79529710552E+03  0.14962693952E+04  0.95000000000E+03 0.  0.
   -2000013    1    1    2    0    0  0.81757808062E+03  0.18812415852E+03  0.86028794811E+03  0.15318028498E+04  0.95000000000E+03 0.  0.
<mgrwt>
<rscale>  0 0.25354013E+04</rscale>
<asrwt>0</asrwt>
<pdfrwt beam="1">  1        2 0.36028133E+00 0.25354013E+04</pdfrwt>
<pdfrwt beam="2">  1       -2 0.10557594E+00 0.25354013E+04</pdfrwt>
<totfact> 0.27684772E+00</totfact>
</mgrwt>
</event>
<event>
 4    1  0.1295381E-008  0.1996994E+04  0.7816531E-02  0.8608028E-01
          2   -1    0    0  501    0  0.00000000000E+00  0.00000000000E+00  0.38592517495E+04  0.38592517495E+04  0.00000000000E+00 0.  1.
         -2   -1    0    0    0  501 -0.00000000000E+00 -0.00000000000E+00 -0.25833917539E+03  0.25833917539E+03  0.00000000000E+00 0. -1.
    2000013    1    1    2    0    0  0.12589946742E+03 -0.27593681233E+03  0.19036358275E+04  0.21490279580E+04  0.95000000000E+03 0.  0.
   -2000013    1    1    2    0    0 -0.12589946742E+03  0.27593681233E+03  0.16972767466E+04  0.19685629670E+04  0.95000000000E+03 0.  0.
<mgrwt>
<rscale>  0 0.19969937E+04</rscale>
<asrwt>0</asrwt>
<pdfrwt beam="1">  1        2 0.59373100E+00 0.19969937E+04</pdfrwt>
<pdfrwt beam="2">  1       -2 0.39744491E-01 0.19969937E+04</pdfrwt>
<totfact> 0.24838435E+00</totfact>
</mgrwt>
</event>
<event>
 4    1  0.1295381E-008  0.2402934E+04  0.7816531E-02  0.8438406E-01
         -2   -1    0    0    0  501 -0.00000000000E+00  0.00000000000E+00  0.67249830857E+03  0.67249830857E+03  0.00000000000E+00 0. -1.
          2   -1    0    0  501    0  0.00000000000E+00 -0.00000000000E+00 -0.21465083019E+04  0.21465083019E+04  0.00000000000E+00 0.  1.
    2000013    1    1    2    0    0 -0.26788856665E+03 -0.65828318088E+03 -0.51465582896E+03  0.12932407559E+04  0.95000000000E+03 0.  0.
   -2000013    1    1    2    0    0  0.26788856665E+03  0.65828318088E+03 -0.95935416436E+03  0.15257658546E+04  0.95000000000E+03 0.  0.
<mgrwt>
<rscale>  0 0.24029342E+04</rscale>
<asrwt>0</asrwt>
<pdfrwt beam="2">  1        2 0.33023206E+00 0.24029342E+04</pdfrwt>
<pdfrwt beam="1">  1       -2 0.10346127E+00 0.24029342E+04</pdfrwt>
<totfact> 0.37884844E+00</totfact>
</mgrwt>
</event>
<event>
 4    1  0.1295381E-008  0.2629348E+04  0.7816531E-02  0.8358300E-01
         -3   -1    0    0    0  501 -0.00000000000E+00  0.00000000000E+00  0.10901526027E+04  0.10901526027E+04  0.00000000000E+00 0. -1.
          3   -1    0    0  501    0  0.00000000000E+00 -0.00000000000E+00 -0.15854367510E+04  0.15854367510E+04  0.00000000000E+00 0.  1.
    2000013    1    1    2    0    0 -0.18929937383E+03  0.88878457426E+03 -0.23768592546E+03  0.13359516726E+04  0.95000000000E+03 0.  0.
   -2000013    1    1    2    0    0  0.18929937383E+03 -0.88878457426E+03 -0.25759822283E+03  0.13396376812E+04  0.95000000000E+03 0.  0.
<mgrwt>
<rscale>  0 0.26293482E+04</rscale>
<asrwt>0</asrwt>
<pdfrwt beam="2">  1        3 0.24391335E+00 0.26293482E+04</pdfrwt>
<pdfrwt beam="1">  1       -3 0.16771578E+00 0.26293482E+04</pdfrwt>
<totfact> 0.44127084E-02</totfact>
</mgrwt>
</event>
<event>
 4    1  0.1295381E-008  0.2381717E+04  0.7816531E-02  0.8446380E-01
          2   -1    0    0  501    0  0.00000000000E+00  0.00000000000E+00  0.19347155389E+04  0.19347155389E+04  0.00000000000E+00 0.  1.
         -2   -1    0    0    0  501 -0.00000000000E+00 -0.00000000000E+00 -0.73299841464E+03  0.73299841464E+03  0.00000000000E+00 0. -1.
    2000013    1    1    2    0    0 -0.26926183476E+03  0.54836078872E+03  0.10235934739E+04  0.15242851079E+04  0.95000000000E+03 0.  0.
   -2000013    1    1    2    0    0  0.26926183476E+03 -0.54836078872E+03  0.17812365035E+03  0.11434288457E+04  0.95000000000E+03 0.  0.
<mgrwt>
<rscale>  0 0.23817165E+04</rscale>
<asrwt>0</asrwt>
<pdfrwt beam="1">  1        2 0.29764854E+00 0.23817165E+04</pdfrwt>
<pdfrwt beam="2">  1       -2 0.11276899E+00 0.23817165E+04</pdfrwt>
<totfact> 0.40460201E+00</totfact>
</mgrwt>
</event>
<event>
 4    1  0.1295381E-008  0.2207759E+04  0.7816531E-02  0.8515206E-01
         -2   -1    0    0    0  501 -0.00000000000E+00  0.00000000000E+00  0.68743536945E+03  0.68743536945E+03  0.00000000000E+00 0. -1.
          2   -1    0    0  501    0  0.00000000000E+00 -0.00000000000E+00 -0.17726029680E+04  0.17726029680E+04  0.00000000000E+00 0.  1.
    2000013    1    1    2    0    0  0.39788202834E+03 -0.22788519795E+03 -0.90503528040E+03  0.13899031012E+04  0.95000000000E+03 0.  0.
   -2000013    1    1    2    0    0 -0.39788202834E+03  0.22788519795E+03 -0.18013231819E+03  0.10701352363E+04  0.95000000000E+03 0.  0.
<mgrwt>
<rscale>  0 0.22077590E+04</rscale>
<asrwt>0</asrwt>
<pdfrwt beam="2">  1        2 0.27270814E+00 0.22077590E+04</pdfrwt>
<pdfrwt beam="1">  1       -2 0.10575929E+00 0.22077590E+04</pdfrwt>
<totfact> 0.58976917E+00</totfact>
</mgrwt>
</event>
<event>
 4    1  0.1295381E-008  0.2051077E+04  0.7816531E-02  0.8583106E-01
         -2   -1    0    0    0  501 -0.00000000000E+00  0.00000000000E+00  0.61438110973E+03  0.61438110973E+03  0.00000000000E+00 0.  1.
          2   -1    0    0  501    0  0.00000000000E+00 -0.00000000000E+00 -0.17118513163E+04  0.17118513163E+04  0.00000000000E+00 0. -1.
    2000013    1    1    2    0    0  0.12776244507E+03  0.35362263043E+03 -0.64926538356E+03  0.12105444004E+04  0.95000000000E+03 0.  0.
   -2000013    1    1    2    0    0 -0.12776244507E+03 -0.35362263043E+03 -0.44820482304E+03  0.11156880256E+04  0.95000000000E+03 0.  0.
<mgrwt>
<rscale>  0 0.20510769E+04</rscale>
<asrwt>0</asrwt>
<pdfrwt beam="2">  1        2 0.26336174E+00 0.20510769E+04</pdfrwt>
<pdfrwt beam="1">  1       -2 0.94520169E-01 0.20510769E+04</pdfrwt>
<totfact> 0.84284773E+00</totfact>
</mgrwt>
</event>
<event>
 4    1  0.1295381E-008  0.3063508E+04  0.7816531E-02  0.8225825E-01
         -2   -1    0    0    0  501 -0.00000000000E+00  0.00000000000E+00  0.17196417046E+04  0.17196417046E+04  0.00000000000E+00 0. -1.
          2   -1    0    0  501    0  0.00000000000E+00 -0.00000000000E+00 -0.13643944479E+04  0.13643944479E+04  0.00000000000E+00 0.  1.
    2000013    1    1    2    0    0 -0.11065600536E+04  0.18327260504E+03 -0.25619979963E+03  0.14920463590E+04  0.95000000000E+03 0.  0.
   -2000013    1    1    2    0    0  0.11065600536E+04 -0.18327260504E+03  0.61144705633E+03  0.15919897935E+04  0.95000000000E+03 0.  0.
<mgrwt>
<rscale>  0 0.30635075E+04</rscale>
<asrwt>0</asrwt>
<pdfrwt beam="2">  1        2 0.20990684E+00 0.30635075E+04</pdfrwt>
<pdfrwt beam="1">  1       -2 0.26456026E+00 0.30635075E+04</pdfrwt>
<totfact> 0.67586330E-01</totfact>
</mgrwt>
</event>
<event>
 4    1  0.1295381E-008  0.2235284E+04  0.7816531E-02  0.8503884E-01
          2   -1    0    0  501    0  0.00000000000E+00  0.00000000000E+00  0.21959992201E+04  0.21959992201E+04  0.00000000000E+00 0.  1.
         -2   -1    0    0    0  501 -0.00000000000E+00 -0.00000000000E+00 -0.56881809070E+03  0.56881809070E+03  0.00000000000E+00 0. -1.
    2000013    1    1    2    0    0 -0.43176173024E+03 -0.21859459494E+03  0.39886588860E+03  0.11383302622E+04  0.95000000000E+03 0.  0.
   -2000013    1    1    2    0    0  0.43176173024E+03  0.21859459494E+03  0.12283152408E+04  0.16264870487E+04  0.95000000000E+03 0.  0.
<mgrwt>
<rscale>  0 0.22352844E+04</rscale>
<asrwt>0</asrwt>
<pdfrwt beam="1">  1        2 0.33784603E+00 0.22352844E+04</pdfrwt>
<pdfrwt beam="2">  1       -2 0.87510476E-01 0.22352844E+04</pdfrwt>
<totfact> 0.53323818E+00</totfact>
</mgrwt>
</event>
<event>
 4    1  0.1295381E-008  0.2717778E+04  0.7816531E-02  0.8329259E-01
         -2   -1    0    0    0  501 -0.00000000000E+00  0.00000000000E+00  0.92689640673E+03  0.92689640673E+03  0.00000000000E+00 0. -1.
          2   -1    0    0  501    0  0.00000000000E+00 -0.00000000000E+00 -0.19922182466E+04  0.19922182466E+04  0.00000000000E+00 0.  1.
    2000013    1    1    2    0    0 -0.96398350738E+03  0.76549724230E+02 -0.43101474839E+03  0.14224618716E+04  0.95000000000E+03 0.  0.
   -2000013    1    1    2    0    0  0.96398350738E+03 -0.76549724230E+02 -0.63430709149E+03  0.14966527817E+04  0.95000000000E+03 0.  0.
<mgrwt>
<rscale>  0 0.27177785E+04</rscale>
<asrwt>0</asrwt>
<pdfrwt beam="2">  1        2 0.30649511E+00 0.27177785E+04</pdfrwt>
<pdfrwt beam="1">  1       -2 0.14259945E+00 0.27177785E+04</pdfrwt>
<totfact> 0.20238625E+00</totfact>
</mgrwt>
</event>
<event>
 4    1  0.1295381E-008  0.2694939E+04  0.7816531E-02  0.8336649E-01
         -2   -1    0    0    0  501 -0.00000000000E+00  0.00000000000E+00  0.70301403853E+03  0.70301403853E+03  0.00000000000E+00 0. -1.
          2   -1    0    0  501    0  0.00000000000E+00 -0.00000000000E+00 -0.25827001947E+04  0.25827001947E+04  0.00000000000E+00 0.  1.
    2000013    1    1    2    0    0  0.47373297929E+03 -0.80988241286E+03 -0.71889214876E+03  0.15164558615E+04  0.95000000000E+03 0.  0.
   -2000013    1    1    2    0    0 -0.47373297929E+03  0.80988241286E+03 -0.11607940074E+04  0.17692583717E+04  0.95000000000E+03 0.  0.
<mgrwt>
<rscale>  0 0.26949393E+04</rscale>
<asrwt>0</asrwt>
<pdfrwt beam="2">  1        2 0.39733850E+00 0.26949393E+04</pdfrwt>
<pdfrwt beam="1">  1       -2 0.10815600E+00 0.26949393E+04</pdfrwt>
<totfact> 0.18708678E+00</totfact>
</mgrwt>
</event>
<event>
 4    1  0.1295381E-008  0.3103152E+04  0.7816531E-02  0.8214873E-01
          2   -1    0    0  501    0  0.00000000000E+00  0.00000000000E+00  0.11903907475E+04  0.11903907475E+04  0.00000000000E+00 0.  1.
         -2   -1    0    0    0  501 -0.00000000000E+00 -0.00000000000E+00 -0.20223509161E+04  0.20223509161E+04  0.00000000000E+00 0. -1.
    2000013    1    1    2    0    0  0.73946484185E+03 -0.55166283034E+03  0.42112092069E+03  0.13895981292E+04  0.95000000000E+03 0.  0.
   -2000013    1    1    2    0    0 -0.73946484185E+03  0.55166283034E+03 -0.12530810894E+04  0.18231435345E+04  0.95000000000E+03 0.  0.
<mgrwt>
<rscale>  0 0.31031518E+04</rscale>
<asrwt>0</asrwt>
<pdfrwt beam="1">  1        2 0.18313704E+00 0.31031518E+04</pdfrwt>
<pdfrwt beam="2">  1       -2 0.31113091E+00 0.31031518E+04</pdfrwt>
<totfact> 0.44236654E-01</totfact>
</mgrwt>
</event>
<event>
 4    1  0.1295381E-008  0.3371974E+04  0.7816531E-02  0.8144819E-01
          1   -1    0    0  501    0  0.00000000000E+00  0.00000000000E+00  0.19963292077E+04  0.19963292077E+04  0.00000000000E+00 0. -1.
         -1   -1    0    0    0  501 -0.00000000000E+00 -0.00000000000E+00 -0.14238894059E+04  0.14238894059E+04  0.00000000000E+00 0.  1.
    2000013    1    1    2    0    0  0.91074464228E+03  0.87106090391E+03  0.88787539619E+03  0.18108080022E+04  0.95000000000E+03 0.  0.
   -2000013    1    1    2    0    0 -0.91074464228E+03 -0.87106090391E+03 -0.31543559436E+03  0.16094106114E+04  0.95000000000E+03 0.  0.
<mgrwt>
<rscale>  0 0.33719739E+04</rscale>
<asrwt>0</asrwt>
<pdfrwt beam="1">  1        1 0.30712757E+00 0.33719739E+04</pdfrwt>
<pdfrwt beam="2">  1       -1 0.21905991E+00 0.33719739E+04</pdfrwt>
<totfact> 0.27599208E-01</totfact>
</mgrwt>
</event>
<event>
 4    1  0.1295381E-008  0.2387581E+04  0.7816531E-02  0.8444168E-01
          2   -1    0    0  501    0  0.00000000000E+00  0.00000000000E+00  0.21654710403E+04  0.21654710403E+04  0.00000000000E+00 0. -1.
         -2   -1    0    0    0  501 -0.00000000000E+00 -0.00000000000E+00 -0.65811804079E+03  0.65811804079E+03  0.00000000000E+00 0.  1.
    2000013    1    1    2    0    0 -0.67153648135E+03 -0.26124343234E+03  0.82289921118E+03  0.14487485940E+04  0.95000000000E+03 0.  0.
   -2000013    1    1    2    0    0  0.67153648135E+03  0.26124343234E+03  0.68445378833E+03  0.13748404871E+04  0.95000000000E+03 0.  0.
<mgrwt>
<rscale>  0 0.23875808E+04</rscale>
<asrwt>0</asrwt>
<pdfrwt beam="1">  1        2 0.33314939E+00 0.23875808E+04</pdfrwt>
<pdfrwt beam="2">  1       -2 0.10124893E+00 0.23875808E+04</pdfrwt>
<totfact> 0.38976480E+00</totfact>
</mgrwt>
</event>
<event>
 4    1  0.1295381E-008  0.2181600E+04  0.7816531E-02  0.8526126E-01
          1   -1    0    0  501    0  0.00000000000E+00  0.00000000000E+00  0.32272220794E+04  0.32272220794E+04  0.00000000000E+00 0.  1.
         -1   -1    0    0    0  501 -0.00000000000E+00 -0.00000000000E+00 -0.36868997820E+03  0.36868997820E+03  0.00000000000E+00 0. -1.
    2000013    1    1    2    0    0 -0.52635069775E+03 -0.24721899507E+02  0.12670268797E+04  0.16689857229E+04  0.95000000000E+03 0.  0.
   -2000013    1    1    2    0    0  0.52635069775E+03  0.24721899507E+02  0.15915052215E+04  0.19269263347E+04  0.95000000000E+03 0.  0.
<mgrwt>
<rscale>  0 0.21815998E+04</rscale>
<asrwt>0</asrwt>
<pdfrwt beam="1">  1        1 0.49649569E+00 0.21815998E+04</pdfrwt>
<pdfrwt beam="2">  1       -1 0.56721537E-01 0.21815998E+04</pdfrwt>
<totfact> 0.11670285E+00</totfact>
</mgrwt>
</event>
<event>
 4    1  0.1295381E-008  0.2237333E+04  0.7816531E-02  0.8503048E-01
          2   -1    0    0  501    0  0.00000000000E+00  0.00000000000E+00  0.30982531781E+04  0.30982531781E+04  0.00000000000E+00 0.  1.
         -2   -1    0    0    0  501 -0.00000000000E+00 -0.00000000000E+00 -0.40390960975E+03  0.40390960975E+03  0.00000000000E+00 0. -1.
    2000013    1    1    2    0    0 -0.18251120394E+03  0.56173840265E+03  0.13586595862E+04  0.17599193856E+04  0.95000000000E+03 0.  0.
   -2000013    1    1    2    0    0  0.18251120394E+03 -0.56173840265E+03  0.13356839821E+04  0.17422434022E+04  0.95000000000E+03 0.  0.
<mgrwt>
<rscale>  0 0.22373325E+04</rscale>
<asrwt>0</asrwt>
<pdfrwt beam="1">  1        2 0.47665432E+00 0.22373325E+04</pdfrwt>
<pdfrwt beam="2">  1       -2 0.62139942E-01 0.22373325E+04</pdfrwt>
<totfact> 0.33097952E+00</totfact>
</mgrwt>
</event>
<event>
 4    1  0.1295381E-008  0.2309439E+04  0.7816531E-02  0.8474209E-01
         -1   -1    0    0    0  501 -0.00000000000E+00  0.00000000000E+00  0.76855788999E+03  0.76855788999E+03  0.00000000000E+00 0. -1.
          1   -1    0    0  501    0  0.00000000000E+00 -0.00000000000E+00 -0.17349080908E+04  0.17349080908E+04  0.00000000000E+00 0.  1.
    2000013    1    1    2    0    0  0.56838338051E+03 -0.14396167438E+03 -0.16326645722E+03  0.11282466783E+04  0.95000000000E+03 0.  0.
   -2000013    1    1    2    0    0 -0.56838338051E+03  0.14396167438E+03 -0.80308374363E+03  0.13752193026E+04  0.95000000000E+03 0.  0.
<mgrwt>
<rscale>  0 0.23094392E+04</rscale>
<asrwt>0</asrwt>
<pdfrwt beam="2">  1        1 0.26690894E+00 0.23094392E+04</pdfrwt>
<pdfrwt beam="1">  1       -1 0.11823968E+00 0.23094392E+04</pdfrwt>
<totfact> 0.26152410E+00</totfact>
</mgrwt>
</event>
<event>
 4    1  0.1295381E-008  0.2313735E+04  0.7816531E-02  0.8472525E-01
         -2   -1    0    0    0  501 -0.00000000000E+00  0.00000000000E+00  0.98299531001E+03  0.98299531001E+03  0.00000000000E+00 0. -1.
          2   -1    0    0  501    0  0.00000000000E+00 -0.00000000000E+00 -0.13614940761E+04  0.13614940761E+04  0.00000000000E+00 0.  1.
    2000013    1    1    2    0    0  0.16196946916E+03 -0.58075345633E+03 -0.46177336793E+03  0.12162414766E+04  0.95000000000E+03 0.  0.
   -2000013    1    1    2    0    0 -0.16196946916E+03  0.58075345633E+03  0.83274601884E+02  0.11282479095E+04  0.95000000000E+03 0.  0.
<mgrwt>
<rscale>  0 0.23137349E+04</rscale>
<asrwt>0</asrwt>
<pdfrwt beam="2">  1        2 0.20946063E+00 0.23137349E+04</pdfrwt>
<pdfrwt beam="1">  1       -2 0.15123005E+00 0.23137349E+04</pdfrwt>
<totfact> 0.40436057E+00</totfact>
</mgrwt>
</event>
<event>
 4    1  0.1295381E-008  0.3569823E+04  0.7816531E-02  0.8097439E-01
         -1   -1    0    0    0  501 -0.00000000000E+00  0.00000000000E+00  0.20006893978E+04  0.20006893978E+04  0.00000000000E+00 0.  1.
          1   -1    0    0  501    0  0.00000000000E+00 -0.00000000000E+00 -0.15924054183E+04  0.15924054183E+04  0.00000000000E+00 0. -1.
    2000013    1    1    2    0    0  0.12580346672E+04 -0.81920241288E+03  0.37749958891E+03  0.18162460617E+04  0.95000000000E+03 0.  0.
   -2000013    1    1    2    0    0 -0.12580346672E+04  0.81920241288E+03  0.30784390589E+02  0.17768487544E+04  0.95000000000E+03 0.  0.
<mgrwt>
<rscale>  0 0.35698228E+04</rscale>
<asrwt>0</asrwt>
<pdfrwt beam="2">  1        1 0.24498545E+00 0.35698228E+04</pdfrwt>
<pdfrwt beam="1">  1       -1 0.30779837E+00 0.35698228E+04</pdfrwt>
<totfact> 0.13460572E-01</totfact>
</mgrwt>
</event>
<event>
 4    1  0.1295381E-008  0.3104896E+04  0.7816531E-02  0.8214395E-01
          2   -1    0    0  501    0  0.00000000000E+00  0.00000000000E+00  0.20300392613E+04  0.20300392613E+04  0.00000000000E+00 0.  1.
         -2   -1    0    0    0  501 -0.00000000000E+00 -0.00000000000E+00 -0.11872159999E+04  0.11872159999E+04  0.00000000000E+00 0. -1.
    2000013    1    1    2    0    0  0.33809469307E+03  0.77083122985E+03  0.13476882634E+04  0.18512840036E+04  0.95000000000E+03 0.  0.
   -2000013    1    1    2    0    0 -0.33809469307E+03 -0.77083122985E+03 -0.50486500202E+03  0.13659712576E+04  0.95000000000E+03 0.  0.
<mgrwt>
<rscale>  0 0.31048962E+04</rscale>
<asrwt>0</asrwt>
<pdfrwt beam="1">  1        2 0.31231373E+00 0.31048962E+04</pdfrwt>
<pdfrwt beam="2">  1       -2 0.18264862E+00 0.31048962E+04</pdfrwt>
<totfact> 0.94868102E-01</totfact>
</mgrwt>
</event>
<event>
 4    1  0.1295381E-008  0.2577518E+04  0.7816531E-02  0.8375878E-01
          2   -1    0    0  501    0  0.00000000000E+00  0.00000000000E+00  0.25857798355E+04  0.25857798355E+04  0.00000000000E+00 0.  1.
         -2   -1    0    0    0  501 -0.00000000000E+00 -0.00000000000E+00 -0.64232044231E+03  0.64232044231E+03  0.00000000000E+00 0. -1.
    2000013    1    1    2    0    0 -0.93861587031E+02 -0.86140984223E+03  0.86281830658E+03  0.15484806566E+04  0.95000000000E+03 0.  0.
   -2000013    1    1    2    0    0  0.93861587031E+02  0.86140984223E+03  0.10806410866E+04  0.16796196212E+04  0.95000000000E+03 0.  0.
<mgrwt>
<rscale>  0 0.25775176E+04</rscale>
<asrwt>0</asrwt>
<pdfrwt beam="1">  1        2 0.39781228E+00 0.25775176E+04</pdfrwt>
<pdfrwt beam="2">  1       -2 0.98818531E-01 0.25775176E+04</pdfrwt>
<totfact> 0.23351859E+00</totfact>
</mgrwt>
</event>
<event>
 4    1  0.1295381E-008  0.2295172E+04  0.7816531E-02  0.8479827E-01
         -1   -1    0    0    0  501 -0.00000000000E+00  0.00000000000E+00  0.19807558207E+04  0.19807558207E+04  0.00000000000E+00 0. -1.
          1   -1    0    0  501    0  0.00000000000E+00 -0.00000000000E+00 -0.66487423316E+03  0.66487423316E+03  0.00000000000E+00 0.  1.
    2000013    1    1    2    0    0 -0.61558500711E+02 -0.54568511573E+03  0.10452386754E+04  0.15154489708E+04  0.95000000000E+03 0.  0.
   -2000013    1    1    2    0    0  0.61558500711E+02  0.54568511573E+03  0.27064291208E+03  0.11301810830E+04  0.95000000000E+03 0.  0.
<mgrwt>
<rscale>  0 0.22951719E+04</rscale>
<asrwt>0</asrwt>
<pdfrwt beam="2">  1        1 0.10228834E+00 0.22951719E+04</pdfrwt>
<pdfrwt beam="1">  1       -1 0.30473166E+00 0.22951719E+04</pdfrwt>
<totfact> 0.81957218E-01</totfact>
</mgrwt>
</event>
<event>
 4    1  0.1295381E-008  0.2826856E+04  0.7816531E-02  0.8294979E-01
         -2   -1    0    0    0  501 -0.00000000000E+00  0.00000000000E+00  0.39316911639E+03  0.39316911639E+03  0.00000000000E+00 0. -1.
          2   -1    0    0  501    0  0.00000000000E+00 -0.00000000000E+00 -0.50812180715E+04  0.50812180715E+04  0.00000000000E+00 0.  1.
    2000013    1    1    2    0    0  0.84749988187E+03 -0.35151718607E+03 -0.13690694326E+04  0.19022806031E+04  0.95000000000E+03 0.  0.
   -2000013    1    1    2    0    0 -0.84749988187E+03  0.35151718607E+03 -0.33189795225E+04  0.35721065847E+04  0.95000000000E+03 0.  0.
<mgrwt>
<rscale>  0 0.28268555E+04</rscale>
<asrwt>0</asrwt>
<pdfrwt beam="2">  1        2 0.78172588E+00 0.28268555E+04</pdfrwt>
<pdfrwt beam="1">  1       -2 0.60487554E-01 0.28268555E+04</pdfrwt>
<totfact> 0.59708841E-02</totfact>
</mgrwt>
</event>
<event>
 4    1  0.1295381E-008  0.2669813E+04  0.7816531E-02  0.8344867E-01
         -2   -1    0    0    0  501 -0.00000000000E+00  0.00000000000E+00  0.16584282142E+04  0.16584282142E+04  0.00000000000E+00 0. -1.
          2   -1    0    0  501    0  0.00000000000E+00 -0.00000000000E+00 -0.10744965063E+04  0.10744965063E+04  0.00000000000E+00 0.  1.
    2000013    1    1    2    0    0  0.31156468542E+03  0.42692721661E+03 -0.50103132374E+03  0.11970262273E+04  0.95000000000E+03 0.  0.
   -2000013    1    1    2    0    0 -0.31156468542E+03 -0.42692721661E+03  0.10849630316E+04  0.15358984932E+04  0.95000000000E+03 0.  0.
<mgrwt>
<rscale>  0 0.26698130E+04</rscale>
<asrwt>0</asrwt>
<pdfrwt beam="2">  1        2 0.16530716E+00 0.26698130E+04</pdfrwt>
<pdfrwt beam="1">  1       -2 0.25514280E+00 0.26698130E+04</pdfrwt>
<totfact> 0.11872954E+00</totfact>
</mgrwt>
</event>
<event>
 4    1  0.1295381E-008  0.2398658E+04  0.7816531E-02  0.8440006E-01
          2   -1    0    0  501    0  0.00000000000E+00  0.00000000000E+00  0.19637349042E+04  0.19637349042E+04  0.00000000000E+00 0.  1.
         -2   -1    0    0    0  501 -0.00000000000E+00 -0.00000000000E+00 -0.73247685919E+03  0.73247685919E+03  0.00000000000E+00 0. -1.
    2000013    1    1    2    0    0  0.15455233921E+03  0.70478524572E+03  0.75458318163E+03  0.14115609963E+04  0.95000000000E+03 0.  0.
   -2000013    1    1    2    0    0 -0.15455233921E+03 -0.70478524572E+03  0.47667486339E+03  0.12846507671E+04  0.95000000000E+03 0.  0.
<mgrwt>
<rscale>  0 0.23986583E+04</rscale>
<asrwt>0</asrwt>
<pdfrwt beam="1">  1        2 0.30211306E+00 0.23986583E+04</pdfrwt>
<pdfrwt beam="2">  1       -2 0.11268875E+00 0.23986583E+04</pdfrwt>
<totfact> 0.38998152E+00</totfact>
</mgrwt>
</event>
<event>
 4    1  0.1295381E-008  0.2205908E+04  0.7816531E-02  0.8515973E-01
          2   -1    0    0  501    0  0.00000000000E+00  0.00000000000E+00  0.80462401247E+03  0.80462401247E+03  0.00000000000E+00 0.  1.
         -2   -1    0    0    0  501 -0.00000000000E+00 -0.00000000000E+00 -0.15118962480E+04  0.15118962480E+04  0.00000000000E+00 0. -1.
    2000013    1    1    2    0    0 -0.49412201990E+03 -0.26415657702E+03 -0.34467858638E+03  0.11555252466E+04  0.95000000000E+03 0.  0.
   -2000013    1    1    2    0    0  0.49412201990E+03  0.26415657702E+03 -0.36259364916E+03  0.11609950138E+04  0.95000000000E+03 0.  0.
<mgrwt>
<rscale>  0 0.22059085E+04</rscale>
<asrwt>0</asrwt>
<pdfrwt beam="1">  1        2 0.12378831E+00 0.22059085E+04</pdfrwt>
<pdfrwt beam="2">  1       -2 0.23259942E+00 0.22059085E+04</pdfrwt>
<totfact> 0.25710923E+00</totfact>
</mgrwt>
</event>
<event>
 4    1  0.1295381E-008  0.3433087E+04  0.7816531E-02  0.8129833E-01
         -2   -1    0    0    0  501 -0.00000000000E+00  0.00000000000E+00  0.16986908705E+04  0.16986908705E+04  0.00000000000E+00 0. -1.
          2   -1    0    0  501    0  0.00000000000E+00 -0.00000000000E+00 -0.17345836227E+04  0.17345836227E+04  0.00000000000E+00 0.  1.
    2000013    1    1    2    0    0 -0.65876056946E+03  0.10053370357E+04  0.75627506106E+03  0.17085432424E+04  0.95000000000E+03 0.  0.
   -2000013    1    1    2    0    0  0.65876056946E+03 -0.10053370357E+04 -0.79216781325E+03  0.17247312508E+04  0.95000000000E+03 0.  0.
<mgrwt>
<rscale>  0 0.34330869E+04</rscale>
<asrwt>0</asrwt>
<pdfrwt beam="2">  1        2 0.26685902E+00 0.34330869E+04</pdfrwt>
<pdfrwt beam="1">  1       -2 0.26133706E+00 0.34330869E+04</pdfrwt>
<totfact> 0.42441418E-01</totfact>
</mgrwt>
</event>
<event>
 4    1  0.1295381E-008  0.2384034E+04  0.7816531E-02  0.8445505E-01
         -2   -1    0    0    0  501 -0.00000000000E+00  0.00000000000E+00  0.52147224092E+03  0.52147224092E+03  0.00000000000E+00 0. -1.
          2   -1    0    0  501    0  0.00000000000E+00 -0.00000000000E+00 -0.27247948562E+04  0.27247948562E+04  0.00000000000E+00 0.  1.
    2000013    1    1    2    0    0  0.63997647259E+03  0.32521453502E+03 -0.10262083382E+04  0.15719217324E+04  0.95000000000E+03 0.  0.
   -2000013    1    1    2    0    0 -0.63997647259E+03 -0.32521453502E+03 -0.11771142771E+04  0.16743453648E+04  0.95000000000E+03 0.  0.
<mgrwt>
<rscale>  0 0.23840343E+04</rscale>
<asrwt>0</asrwt>
<pdfrwt beam="2">  1        2 0.41919921E+00 0.23840343E+04</pdfrwt>
<pdfrwt beam="1">  1       -2 0.80226498E-01 0.23840343E+04</pdfrwt>
<totfact> 0.31742996E+00</totfact>
</mgrwt>
</event>
<event>
 4    1  0.1295381E-008  0.2371261E+04  0.7816531E-02  0.8450342E-01
         -2   -1    0    0    0  501 -0.00000000000E+00  0.00000000000E+00  0.14083109431E+04  0.14083109431E+04  0.00000000000E+00 0. -1.
          2   -1    0    0  501    0  0.00000000000E+00 -0.00000000000E+00 -0.99816039629E+03  0.99816039629E+03  0.00000000000E+00 0.  1.
    2000013    1    1    2    0    0 -0.44710467681E+03 -0.44114545538E+02  0.76219990630E+03  0.12981900409E+04  0.95000000000E+03 0.  0.
   -2000013    1    1    2    0    0  0.44710467681E+03  0.44114545538E+02 -0.35204935945E+03  0.11082812985E+04  0.95000000000E+03 0.  0.
<mgrwt>
<rscale>  0 0.23712614E+04</rscale>
<asrwt>0</asrwt>
<pdfrwt beam="2">  1        2 0.15356314E+00 0.23712614E+04</pdfrwt>
<pdfrwt beam="1">  1       -2 0.21666322E+00 0.23712614E+04</pdfrwt>
<totfact> 0.23621721E+00</totfact>
</mgrwt>
</event>
<event>
 4    1  0.1295381E-008  0.2790008E+04  0.7816531E-02  0.8306377E-01
          2   -1    0    0  501    0  0.00000000000E+00  0.00000000000E+00  0.16702014409E+04  0.16702014409E+04  0.00000000000E+00 0.  1.
         -2   -1    0    0    0  501 -0.00000000000E+00 -0.00000000000E+00 -0.11651503619E+04  0.11651503619E+04  0.00000000000E+00 0. -1.
    2000013    1    1    2    0    0 -0.71159697936E+03 -0.46785850227E+02 -0.49078270656E+03  0.12852730612E+04  0.95000000000E+03 0.  0.
   -2000013    1    1    2    0    0  0.71159697936E+03  0.46785850227E+02  0.99583378552E+03  0.15500787416E+04  0.95000000000E+03 0.  0.
<mgrwt>
<rscale>  0 0.27900078E+04</rscale>
<asrwt>0</asrwt>
<pdfrwt beam="1">  1        2 0.25695407E+00 0.27900078E+04</pdfrwt>
<pdfrwt beam="2">  1       -2 0.17925390E+00 0.27900078E+04</pdfrwt>
<totfact> 0.16284710E+00</totfact>
</mgrwt>
</event>
<event>
 4    1  0.1295381E-008  0.2346441E+04  0.7816531E-02  0.8459832E-01
          2   -1    0    0  501    0  0.00000000000E+00  0.00000000000E+00  0.10254495068E+04  0.10254495068E+04  0.00000000000E+00 0.  1.
         -2   -1    0    0    0  501 -0.00000000000E+00 -0.00000000000E+00 -0.13422854972E+04  0.13422854972E+04  0.00000000000E+00 0. -1.
    2000013    1    1    2    0    0  0.31592140086E+02  0.55806773772E+03 -0.56394612393E+03  0.12381328256E+04  0.95000000000E+03 0.  0.
   -2000013    1    1    2    0    0 -0.31592140086E+02 -0.55806773772E+03  0.24711013353E+03  0.11296021783E+04  0.95000000000E+03 0.  0.
<mgrwt>
<rscale>  0 0.23464407E+04</rscale>
<asrwt>0</asrwt>
<pdfrwt beam="1">  1        2 0.15776146E+00 0.23464407E+04</pdfrwt>
<pdfrwt beam="2">  1       -2 0.20650546E+00 0.23464407E+04</pdfrwt>
<totfact> 0.26424637E+00</totfact>
</mgrwt>
</event>
<event>
 4    1  0.1295381E-008  0.2679203E+04  0.7816531E-02  0.8341785E-01
         -2   -1    0    0    0  501 -0.00000000000E+00  0.00000000000E+00  0.17205614485E+04  0.17205614485E+04  0.00000000000E+00 0. -1.
          2   -1    0    0  501    0  0.00000000000E+00 -0.00000000000E+00 -0.10429922214E+04  0.10429922214E+04  0.00000000000E+00 0.  1.
    2000013    1    1    2    0    0 -0.71352862554E+03  0.89680640448E+02 -0.29275498853E+03  0.12269356952E+04  0.95000000000E+03 0.  0.
   -2000013    1    1    2    0    0  0.71352862554E+03 -0.89680640448E+02  0.97032421567E+03  0.15366179747E+04  0.95000000000E+03 0.  0.
<mgrwt>
<rscale>  0 0.26792030E+04</rscale>
<asrwt>0</asrwt>
<pdfrwt beam="2">  1        2 0.16046034E+00 0.26792030E+04</pdfrwt>
<pdfrwt beam="1">  1       -2 0.26470176E+00 0.26792030E+04</pdfrwt>
<totfact> 0.10851336E+00</totfact>
</mgrwt>
</event>
<event>
 4    1  0.1295381E-008  0.3366710E+04  0.7816531E-02  0.8146125E-01
         -2   -1    0    0    0  501 -0.00000000000E+00  0.00000000000E+00  0.35502220483E+04  0.35502220483E+04  0.00000000000E+00 0. -1.
          2   -1    0    0  501    0  0.00000000000E+00 -0.00000000000E+00 -0.79817116711E+03  0.79817116711E+03  0.00000000000E+00 0.  1.
    2000013    1    1    2    0    0 -0.11796419994E+04  0.72750326444E+03  0.15075429910E+04  0.22574326383E+04  0.95000000000E+03 0.  0.
   -2000013    1    1    2    0    0  0.11796419994E+04 -0.72750326444E+03  0.12445078902E+04  0.20909605772E+04  0.95000000000E+03 0.  0.
<mgrwt>
<rscale>  0 0.33667105E+04</rscale>
<asrwt>0</asrwt>
<pdfrwt beam="2">  1        2 0.12279557E+00 0.33667105E+04</pdfrwt>
<pdfrwt beam="1">  1       -2 0.54618800E+00 0.33667105E+04</pdfrwt>
<totfact> 0.25530732E-02</totfact>
</mgrwt>
</event>
<event>
 4    1  0.1295381E-008  0.2249926E+04  0.7816531E-02  0.8497931E-01
         -2   -1    0    0    0  501 -0.00000000000E+00  0.00000000000E+00  0.74858166718E+03  0.74858166718E+03  0.00000000000E+00 0.  1.
          2   -1    0    0  501    0  0.00000000000E+00 -0.00000000000E+00 -0.16905855422E+04  0.16905855422E+04  0.00000000000E+00 0. -1.
    2000013    1    1    2    0    0 -0.15394650494E+03  0.54381438036E+03 -0.69739086585E+03  0.13070147767E+04  0.95000000000E+03 0.  0.
   -2000013    1    1    2    0    0  0.15394650494E+03 -0.54381438036E+03 -0.24461300919E+03  0.11321524327E+04  0.95000000000E+03 0.  0.
<mgrwt>
<rscale>  0 0.22499256E+04</rscale>
<asrwt>0</asrwt>
<pdfrwt beam="2">  1        2 0.26009008E+00 0.22499256E+04</pdfrwt>
<pdfrwt beam="1">  1       -2 0.11516641E+00 0.22499256E+04</pdfrwt>
<totfact> 0.53097169E+00</totfact>
</mgrwt>
</event>
<event>
 4    1  0.1295381E-008  0.2915862E+04  0.7816531E-02  0.8268174E-01
          2   -1    0    0  501    0  0.00000000000E+00  0.00000000000E+00  0.21499812719E+04  0.21499812719E+04  0.00000000000E+00 0.  1.
         -2   -1    0    0    0  501 -0.00000000000E+00 -0.00000000000E+00 -0.98864241290E+03  0.98864241290E+03  0.00000000000E+00 0. -1.
    2000013    1    1    2    0    0 -0.27964500724E+03 -0.10548880777E+04  0.77343905571E+03  0.16406395581E+04  0.95000000000E+03 0.  0.
   -2000013    1    1    2    0    0  0.27964500724E+03  0.10548880777E+04  0.38789980334E+03  0.14979841268E+04  0.95000000000E+03 0.  0.
<mgrwt>
<rscale>  0 0.29158619E+04</rscale>
<asrwt>0</asrwt>
<pdfrwt beam="1">  1        2 0.33076635E+00 0.29158619E+04</pdfrwt>
<pdfrwt beam="2">  1       -2 0.15209883E+00 0.29158619E+04</pdfrwt>
<totfact> 0.13711239E+00</totfact>
</mgrwt>
</event>
<event>
 4    1  0.1295381E-008  0.2505295E+04  0.7816531E-02  0.8401101E-01
          2   -1    0    0  501    0  0.00000000000E+00  0.00000000000E+00  0.16687134668E+04  0.16687134668E+04  0.00000000000E+00 0.  1.
         -2   -1    0    0    0  501 -0.00000000000E+00 -0.00000000000E+00 -0.94032095516E+03  0.94032095516E+03  0.00000000000E+00 0. -1.
    2000013    1    1    2    0    0  0.53272565635E+03  0.55995942808E+03  0.63829642908E+03  0.13810407371E+04  0.95000000000E+03 0.  0.
   -2000013    1    1    2    0    0 -0.53272565635E+03 -0.55995942808E+03  0.90096082532E+02  0.12279936849E+04  0.95000000000E+03 0.  0.
<mgrwt>
<rscale>  0 0.25052954E+04</rscale>
<asrwt>0</asrwt>
<pdfrwt beam="1">  1        2 0.25672515E+00 0.25052954E+04</pdfrwt>
<pdfrwt beam="2">  1       -2 0.14466476E+00 0.25052954E+04</pdfrwt>
<totfact> 0.30007858E+00</totfact>
</mgrwt>
</event>
<event>
 4    1  0.1295381E-008  0.2982382E+04  0.7816531E-02  0.8248780E-01
          2   -1    0    0  501    0  0.00000000000E+00  0.00000000000E+00  0.14560995441E+04  0.14560995441E+04  0.00000000000E+00 0.  1.
         -2   -1    0    0    0  501 -0.00000000000E+00 -0.00000000000E+00 -0.15271284089E+04  0.15271284089E+04  0.00000000000E+00 0. -1.
    2000013    1    1    2    0    0 -0.10525232606E+04  0.29052615748E+03 -0.39469886108E+03  0.15001659419E+04  0.95000000000E+03 0.  0.
   -2000013    1    1    2    0    0  0.10525232606E+04 -0.29052615748E+03  0.32366999631E+03  0.14830620111E+04  0.95000000000E+03 0.  0.
<mgrwt>
<rscale>  0 0.29823823E+04</rscale>
<asrwt>0</asrwt>
<pdfrwt beam="1">  1        2 0.22401531E+00 0.29823823E+04</pdfrwt>
<pdfrwt beam="2">  1       -2 0.23494283E+00 0.29823823E+04</pdfrwt>
<totfact> 0.91768099E-01</totfact>
</mgrwt>
</event>
<event>
 4    1  0.1295381E-008  0.3430220E+04  0.7816531E-02  0.8130529E-01
         -2   -1    0    0    0  501 -0.00000000000E+00  0.00000000000E+00  0.70523481582E+03  0.70523481582E+03  0.00000000000E+00 0. -1.
          2   -1    0    0  501    0  0.00000000000E+00 -0.00000000000E+00 -0.41710964434E+04  0.41710964434E+04  0.00000000000E+00 0.  1.
    2000013    1    1    2    0    0 -0.11250931810E+04 -0.51115604741E+03 -0.27501177985E+04  0.31611331950E+04  0.95000000000E+03 0.  0.
   -2000013    1    1    2    0    0  0.11250931810E+04  0.51115604741E+03 -0.71574382908E+03  0.17151980642E+04  0.95000000000E+03 0.  0.
<mgrwt>
<rscale>  0 0.34302201E+04</rscale>
<asrwt>0</asrwt>
<pdfrwt beam="2">  1        2 0.64170715E+00 0.34302201E+04</pdfrwt>
<pdfrwt beam="1">  1       -2 0.10849766E+00 0.34302201E+04</pdfrwt>
<totfact> 0.13783907E-01</totfact>
</mgrwt>
</event>
<event>
 4    1  0.1295381E-008  0.2478866E+04  0.7816531E-02  0.8410554E-01
          1   -1    0    0  501    0  0.00000000000E+00  0.00000000000E+00  0.17162295365E+04  0.17162295365E+04  0.00000000000E+00 0.  1.
         -1   -1    0    0    0  501 -0.00000000000E+00 -0.00000000000E+00 -0.89509818028E+03  0.89509818028E+03  0.00000000000E+00 0. -1.
    2000013    1    1    2    0    0  0.35774257499E+03 -0.70870374524E+03  0.34866172525E+03  0.12861981757E+04  0.95000000000E+03 0.  0.
   -2000013    1    1    2    0    0 -0.35774257499E+03  0.70870374524E+03  0.47246963096E+03  0.13251295411E+04  0.95000000000E+03 0.  0.
<mgrwt>
<rscale>  0 0.24788658E+04</rscale>
<asrwt>0</asrwt>
<pdfrwt beam="1">  1        1 0.26403531E+00 0.24788658E+04</pdfrwt>
<pdfrwt beam="2">  1       -1 0.13770741E+00 0.24788658E+04</pdfrwt>
<totfact> 0.18095118E+00</totfact>
</mgrwt>
</event>
<event>
 4    1  0.1295381E-008  0.2407054E+04  0.7816531E-02  0.8436868E-01
          1   -1    0    0  501    0  0.00000000000E+00  0.00000000000E+00  0.10752103899E+04  0.10752103899E+04  0.00000000000E+00 0.  1.
         -1   -1    0    0    0  501 -0.00000000000E+00 -0.00000000000E+00 -0.13471565707E+04  0.13471565707E+04  0.00000000000E+00 0. -1.
    2000013    1    1    2    0    0 -0.50723523215E+03  0.44737799937E+02  0.40286550885E+03  0.11506909532E+04  0.95000000000E+03 0.  0.
   -2000013    1    1    2    0    0  0.50723523215E+03 -0.44737799937E+02 -0.67481168966E+03  0.12716760075E+04  0.95000000000E+03 0.  0.
<mgrwt>
<rscale>  0 0.24070536E+04</rscale>
<asrwt>0</asrwt>
<pdfrwt beam="1">  1        1 0.16541698E+00 0.24070536E+04</pdfrwt>
<pdfrwt beam="2">  1       -1 0.20725486E+00 0.24070536E+04</pdfrwt>
<totfact> 0.15912003E+00</totfact>
</mgrwt>
</event>
<event>
 4    1  0.1295381E-008  0.2679868E+04  0.7816531E-02  0.8341567E-01
          2   -1    0    0  501    0  0.00000000000E+00  0.00000000000E+00  0.38996059849E+04  0.38996059849E+04  0.00000000000E+00 0.  1.
         -2   -1    0    0    0  501 -0.00000000000E+00 -0.00000000000E+00 -0.46041152419E+03  0.46041152419E+03  0.00000000000E+00 0. -1.
    2000013    1    1    2    0    0  0.37722332632E+03  0.15325746990E+03  0.33225605942E+03  0.10856700139E+04  0.95000000000E+03 0.  0.
   -2000013    1    1    2    0    0 -0.37722332632E+03 -0.15325746990E+03  0.31069384012E+04  0.32743474952E+04  0.95000000000E+03 0.  0.
<mgrwt>
<rscale>  0 0.26798683E+04</rscale>
<asrwt>0</asrwt>
<pdfrwt beam="1">  1        2 0.59993936E+00 0.26798683E+04</pdfrwt>
<pdfrwt beam="2">  1       -2 0.70832545E-01 0.26798683E+04</pdfrwt>
<totfact> 0.65564861E-01</totfact>
</mgrwt>
</event>
<event>
 4    1  0.1295381E-008  0.2222062E+04  0.7816531E-02  0.8509301E-01
         -2   -1    0    0    0  501 -0.00000000000E+00  0.00000000000E+00  0.63753410926E+03  0.63753410926E+03  0.00000000000E+00 0. -1.
          2   -1    0    0  501    0  0.00000000000E+00 -0.00000000000E+00 -0.19361938339E+04  0.19361938339E+04  0.00000000000E+00 0.  1.
    2000013    1    1    2    0    0 -0.49933086091E+03  0.28732897484E+03 -0.65002753634E+03  0.12872160061E+04  0.95000000000E+03 0.  0.
   -2000013    1    1    2    0    0  0.49933086091E+03 -0.28732897484E+03 -0.64863218832E+03  0.12865119370E+04  0.95000000000E+03 0.  0.
<mgrwt>
<rscale>  0 0.22220618E+04</rscale>
<asrwt>0</asrwt>
<pdfrwt beam="2">  1        2 0.29787597E+00 0.22220618E+04</pdfrwt>
<pdfrwt beam="1">  1       -2 0.98082173E-01 0.22220618E+04</pdfrwt>
<totfact> 0.57194181E+00</totfact>
</mgrwt>
</event>
<event>
 4    1  0.1295381E-008  0.3359156E+04  0.7816531E-02  0.8148004E-01
         -2   -1    0    0    0  501 -0.00000000000E+00  0.00000000000E+00  0.87109067751E+03  0.87109067751E+03  0.00000000000E+00 0. -1.
          2   -1    0    0  501    0  0.00000000000E+00 -0.00000000000E+00 -0.32384476776E+04  0.32384476776E+04  0.00000000000E+00 0.  1.
    2000013    1    1    2    0    0  0.59805921424E+03 -0.78952790005E+03  0.82825578821E+00  0.13724175074E+04  0.95000000000E+03 0.  0.
   -2000013    1    1    2    0    0 -0.59805921424E+03  0.78952790005E+03 -0.23681852559E+04  0.27371208477E+04  0.95000000000E+03 0.  0.
<mgrwt>
<rscale>  0 0.33591556E+04</rscale>
<asrwt>0</asrwt>
<pdfrwt beam="2">  1        2 0.49822273E+00 0.33591556E+04</pdfrwt>
<pdfrwt beam="1">  1       -2 0.13401395E+00 0.33591556E+04</pdfrwt>
<totfact> 0.40839491E-01</totfact>
</mgrwt>
</event>
<event>
 4    1  0.1295381E-008  0.2557955E+04  0.7816531E-02  0.8382625E-01
          2   -1    0    0  501    0  0.00000000000E+00  0.00000000000E+00  0.13369200367E+04  0.13369200367E+04  0.00000000000E+00 0.  1.
         -2   -1    0    0    0  501 -0.00000000000E+00 -0.00000000000E+00 -0.12235462327E+04  0.12235462327E+04  0.00000000000E+00 0. -1.
    2000013    1    1    2    0    0  0.79288733220E+03 -0.29306831369E+03 -0.80283528305E+02  0.12741682789E+04  0.95000000000E+03 0.  0.
   -2000013    1    1    2    0    0 -0.79288733220E+03  0.29306831369E+03  0.19365733222E+03  0.12862979905E+04  0.95000000000E+03 0.  0.
<mgrwt>
<rscale>  0 0.25579550E+04</rscale>
<asrwt>0</asrwt>
<pdfrwt beam="1">  1        2 0.20568001E+00 0.25579550E+04</pdfrwt>
<pdfrwt beam="2">  1       -2 0.18823788E+00 0.25579550E+04</pdfrwt>
<totfact> 0.22248279E+00</totfact>
</mgrwt>
</event>
<event>
 4    1  0.1295381E-008  0.2182547E+04  0.7816531E-02  0.8525728E-01
         -2   -1    0    0    0  501 -0.00000000000E+00  0.00000000000E+00  0.83220704666E+03  0.83220704666E+03  0.00000000000E+00 0. -1.
          2   -1    0    0  501    0  0.00000000000E+00 -0.00000000000E+00 -0.14309871130E+04  0.14309871130E+04  0.00000000000E+00 0.  1.
    2000013    1    1    2    0    0 -0.27933816266E+03 -0.28254421555E+03  0.75230000769E+02  0.10324827339E+04  0.95000000000E+03 0.  0.
   -2000013    1    1    2    0    0  0.27933816266E+03  0.28254421555E+03 -0.67401006714E+03  0.12307114257E+04  0.95000000000E+03 0.  0.
<mgrwt>
<rscale>  0 0.21825467E+04</rscale>
<asrwt>0</asrwt>
<pdfrwt beam="2">  1        2 0.22015186E+00 0.21825467E+04</pdfrwt>
<pdfrwt beam="1">  1       -2 0.12803185E+00 0.21825467E+04</pdfrwt>
<totfact> 0.57410769E+00</totfact>
</mgrwt>
</event>
<event>
 4    1  0.1295381E-008  0.2882663E+04  0.7816531E-02  0.8278055E-01
          2   -1    0    0  501    0  0.00000000000E+00  0.00000000000E+00  0.27769009592E+04  0.27769009592E+04  0.00000000000E+00 0.  1.
         -2   -1    0    0    0  501 -0.00000000000E+00 -0.00000000000E+00 -0.74811304451E+03  0.74811304451E+03  0.00000000000E+00 0. -1.
    2000013    1    1    2    0    0 -0.29166123041E+03  0.75518256569E+03  0.18958255140E+04  0.22698064588E+04  0.95000000000E+03 0.  0.
   -2000013    1    1    2    0    0  0.29166123041E+03 -0.75518256569E+03  0.13296240070E+03  0.12552075449E+04  0.95000000000E+03 0.  0.
<mgrwt>
<rscale>  0 0.28826625E+04</rscale>
<asrwt>0</asrwt>
<pdfrwt beam="1">  1        2 0.42721553E+00 0.28826625E+04</pdfrwt>
<pdfrwt beam="2">  1       -2 0.11509432E+00 0.28826625E+04</pdfrwt>
<totfact> 0.12140532E+00</totfact>
</mgrwt>
</event>
<event>
 4    1  0.1295381E-008  0.2224038E+04  0.7816531E-02  0.8508489E-01
         -2   -1    0    0    0  501 -0.00000000000E+00  0.00000000000E+00  0.71030740571E+03  0.71030740571E+03  0.00000000000E+00 0. -1.
          2   -1    0    0  501    0  0.00000000000E+00 -0.00000000000E+00 -0.17409177782E+04  0.17409177782E+04  0.00000000000E+00 0.  1.
    2000013    1    1    2    0    0 -0.38123174846E+02  0.48505718423E+03 -0.17141842782E+03  0.10810264224E+04  0.95000000000E+03 0.  0.
   -2000013    1    1    2    0    0  0.38123174846E+02 -0.48505718423E+03 -0.85919194469E+03  0.13701987616E+04  0.95000000000E+03 0.  0.
<mgrwt>
<rscale>  0 0.22240385E+04</rscale>
<asrwt>0</asrwt>
<pdfrwt beam="2">  1        2 0.26783350E+00 0.22240385E+04</pdfrwt>
<pdfrwt beam="1">  1       -2 0.10927806E+00 0.22240385E+04</pdfrwt>
<totfact> 0.56677455E+00</totfact>
</mgrwt>
</event>
<event>
 4    1  0.1295381E-008  0.3094678E+04  0.7816531E-02  0.8217200E-01
         -2   -1    0    0    0  501 -0.00000000000E+00  0.00000000000E+00  0.10603879884E+04  0.10603879884E+04  0.00000000000E+00 0. -1.
          2   -1    0    0  501    0  0.00000000000E+00 -0.00000000000E+00 -0.22579075079E+04  0.22579075079E+04  0.00000000000E+00 0.  1.
    2000013    1    1    2    0    0 -0.75268522390E+03  0.65856548884E+03 -0.13504998882E+04  0.19304386800E+04  0.95000000000E+03 0.  0.
   -2000013    1    1    2    0    0  0.75268522390E+03 -0.65856548884E+03  0.15298036869E+03  0.13878568163E+04  0.95000000000E+03 0.  0.
<mgrwt>
<rscale>  0 0.30946780E+04</rscale>
<asrwt>0</asrwt>
<pdfrwt beam="2">  1        2 0.34737038E+00 0.30946780E+04</pdfrwt>
<pdfrwt beam="1">  1       -2 0.16313662E+00 0.30946780E+04</pdfrwt>
<totfact> 0.97170924E-01</totfact>
</mgrwt>
</event>
<event>
 4    1  0.1295381E-008  0.2494699E+04  0.7816531E-02  0.8404877E-01
          2   -1    0    0  501    0  0.00000000000E+00  0.00000000000E+00  0.86575133607E+03  0.86575133607E+03  0.00000000000E+00 0.  1.
         -2   -1    0    0    0  501 -0.00000000000E+00 -0.00000000000E+00 -0.17971448346E+04  0.17971448346E+04  0.00000000000E+00 0. -1.
    2000013    1    1    2    0    0  0.96716826286E+02 -0.50015124152E+03  0.20421160539E+03  0.10971361760E+04  0.95000000000E+03 0.  0.
   -2000013    1    1    2    0    0 -0.96716826286E+02  0.50015124152E+03 -0.11356051039E+04  0.15657599946E+04  0.95000000000E+03 0.  0.
<mgrwt>
<rscale>  0 0.24946988E+04</rscale>
<asrwt>0</asrwt>
<pdfrwt beam="1">  1        2 0.13319251E+00 0.24946988E+04</pdfrwt>
<pdfrwt beam="2">  1       -2 0.27648382E+00 0.24946988E+04</pdfrwt>
<totfact> 0.12217884E+00</totfact>
</mgrwt>
</event>
<event>
 4    1  0.1295381E-008  0.2234750E+04  0.7816531E-02  0.8504102E-01
          2   -1    0    0  501    0  0.00000000000E+00  0.00000000000E+00  0.19218282443E+04  0.19218282443E+04  0.00000000000E+00 0.  1.
         -2   -1    0    0    0  501 -0.00000000000E+00 -0.00000000000E+00 -0.64965569449E+03  0.64965569449E+03  0.00000000000E+00 0. -1.
    2000013    1    1    2    0    0  0.33480175559E+01 -0.51914563990E+03  0.31781688227E+03  0.11282867434E+04  0.95000000000E+03 0.  0.
   -2000013    1    1    2    0    0 -0.33480175559E+01  0.51914563990E+03  0.95435566753E+03  0.14431971954E+04  0.95000000000E+03 0.  0.
<mgrwt>
<rscale>  0 0.22347498E+04</rscale>
<asrwt>0</asrwt>
<pdfrwt beam="1">  1        2 0.29566588E+00 0.22347498E+04</pdfrwt>
<pdfrwt beam="2">  1       -2 0.99947031E-01 0.22347498E+04</pdfrwt>
<totfact> 0.55662765E+00</totfact>
</mgrwt>
</event>
<event>
 4    1  0.1295381E-008  0.3890531E+04  0.7816531E-02  0.8027001E-01
         -2   -1    0    0    0  501 -0.00000000000E+00  0.00000000000E+00  0.13652090276E+04  0.13652090276E+04  0.00000000000E+00 0. -1.
          2   -1    0    0  501    0  0.00000000000E+00 -0.00000000000E+00 -0.27717795338E+04  0.27717795338E+04  0.00000000000E+00 0.  1.
    2000013    1    1    2    0    0 -0.19923866915E+03 -0.15245006792E+04 -0.14684231021E+04  0.23286401128E+04  0.95000000000E+03 0.  0.
   -2000013    1    1    2    0    0  0.19923866915E+03  0.15245006792E+04  0.61852595861E+02  0.18083484486E+04  0.95000000000E+03 0.  0.
<mgrwt>
<rscale>  0 0.38905313E+04</rscale>
<asrwt>0</asrwt>
<pdfrwt beam="2">  1        2 0.42642762E+00 0.38905313E+04</pdfrwt>
<pdfrwt beam="1">  1       -2 0.21003216E+00 0.38905313E+04</pdfrwt>
<totfact> 0.21902261E-01</totfact>
</mgrwt>
</event>
<event>
 4    1  0.1295381E-008  0.2252605E+04  0.7816531E-02  0.8496846E-01
         -2   -1    0    0    0  501 -0.00000000000E+00  0.00000000000E+00  0.87831813074E+03  0.87831813074E+03  0.00000000000E+00 0. -1.
          2   -1    0    0  501    0  0.00000000000E+00 -0.00000000000E+00 -0.14443029454E+04  0.14443029454E+04  0.00000000000E+00 0.  1.
    2000013    1    1    2    0    0 -0.49323527445E+03 -0.21163392448E+03 -0.57093493955E+03  0.12314774294E+04  0.95000000000E+03 0.  0.
   -2000013    1    1    2    0    0  0.49323527445E+03  0.21163392448E+03  0.49501249375E+01  0.10911436467E+04  0.95000000000E+03 0.  0.
<mgrwt>
<rscale>  0 0.22526051E+04</rscale>
<asrwt>0</asrwt>
<pdfrwt beam="2">  1        2 0.22220045E+00 0.22526051E+04</pdfrwt>
<pdfrwt beam="1">  1       -2 0.13512587E+00 0.22526051E+04</pdfrwt>
<totfact> 0.48909111E+00</totfact>
</mgrwt>
</event>
<event>
 4    1  0.1295381E-008  0.3051498E+04  0.7816531E-02  0.8229176E-01
          2   -1    0    0  501    0  0.00000000000E+00  0.00000000000E+00  0.19104314760E+04  0.19104314760E+04  0.00000000000E+00 0.  1.
         -2   -1    0    0    0  501 -0.00000000000E+00 -0.00000000000E+00 -0.12185260377E+04  0.12185260377E+04  0.00000000000E+00 0. -1.
    2000013    1    1    2    0    0 -0.86624742893E+03 -0.49825895000E+03 -0.32390161641E+03  0.14163540682E+04  0.95000000000E+03 0.  0.
   -2000013    1    1    2    0    0  0.86624742893E+03  0.49825895000E+03  0.10158070547E+04  0.17126034456E+04  0.95000000000E+03 0.  0.
<mgrwt>
<rscale>  0 0.30514983E+04</rscale>
<asrwt>0</asrwt>
<pdfrwt beam="1">  1        2 0.29391254E+00 0.30514983E+04</pdfrwt>
<pdfrwt beam="2">  1       -2 0.18746554E+00 0.30514983E+04</pdfrwt>
<totfact> 0.10298020E+00</totfact>
</mgrwt>
</event>
<event>
 4    1  0.1295381E-008  0.3228905E+04  0.7816531E-02  0.8181225E-01
          1   -1    0    0  501    0  0.00000000000E+00  0.00000000000E+00  0.33069044301E+04  0.33069044301E+04  0.00000000000E+00 0.  1.
         -1   -1    0    0    0  501 -0.00000000000E+00 -0.00000000000E+00 -0.78818645238E+03  0.78818645238E+03  0.00000000000E+00 0. -1.
    2000013    1    1    2    0    0 -0.11090797683E+04  0.66319850482E+03  0.14934451346E+04  0.21915219733E+04  0.95000000000E+03 0.  0.
   -2000013    1    1    2    0    0  0.11090797683E+04 -0.66319850482E+03  0.10252728431E+04  0.19035689092E+04  0.95000000000E+03 0.  0.
<mgrwt>
<rscale>  0 0.32289052E+04</rscale>
<asrwt>0</asrwt>
<pdfrwt beam="1">  1        1 0.50875452E+00 0.32289052E+04</pdfrwt>
<pdfrwt beam="2">  1       -1 0.12125946E+00 0.32289052E+04</pdfrwt>
<totfact> 0.17747237E-01</totfact>
</mgrwt>
</event>
<event>
 4    1  0.1295381E-008  0.2183921E+04  0.7816531E-02  0.8525150E-01
          2   -1    0    0  501    0  0.00000000000E+00  0.00000000000E+00  0.29366794001E+04  0.29366794001E+04  0.00000000000E+00 0.  1.
         -2   -1    0    0    0  501 -0.00000000000E+00 -0.00000000000E+00 -0.40602938378E+03  0.40602938378E+03  0.00000000000E+00 0. -1.
    2000013    1    1    2    0    0 -0.49196125582E+03  0.20617014856E+03  0.11534119175E+04  0.15866288346E+04  0.95000000000E+03 0.  0.
   -2000013    1    1    2    0    0  0.49196125582E+03 -0.20617014856E+03  0.13772380988E+04  0.17560799493E+04  0.95000000000E+03 0.  0.
<mgrwt>
<rscale>  0 0.21839214E+04</rscale>
<asrwt>0</asrwt>
<pdfrwt beam="1">  1        2 0.45179682E+00 0.21839214E+04</pdfrwt>
<pdfrwt beam="2">  1       -2 0.62466061E-01 0.21839214E+04</pdfrwt>
<totfact> 0.41538190E+00</totfact>
</mgrwt>
</event>
<event>
 4    1  0.1295381E-008  0.2802739E+04  0.7816531E-02  0.8302418E-01
         -2   -1    0    0    0  501 -0.00000000000E+00  0.00000000000E+00  0.84893222532E+03  0.84893222532E+03  0.00000000000E+00 0. -1.
          2   -1    0    0  501    0  0.00000000000E+00 -0.00000000000E+00 -0.23133021115E+04  0.23133021115E+04  0.00000000000E+00 0.  1.
    2000013    1    1    2    0    0  0.98863996381E+03  0.17941978884E+03 -0.98881583154E+03  0.16999579958E+04  0.95000000000E+03 0.  0.
   -2000013    1    1    2    0    0 -0.98863996381E+03 -0.17941978884E+03 -0.47555405463E+03  0.14622763410E+04  0.95000000000E+03 0.  0.
<mgrwt>
<rscale>  0 0.28027392E+04</rscale>
<asrwt>0</asrwt>
<pdfrwt beam="2">  1        2 0.35589263E+00 0.28027392E+04</pdfrwt>
<pdfrwt beam="1">  1       -2 0.13060496E+00 0.28027392E+04</pdfrwt>
<totfact> 0.16634596E+00</totfact>
</mgrwt>
</event>
<event>
 4    1  0.1295381E-008  0.2070121E+04  0.7816531E-02  0.8574521E-01
         -2   -1    0    0    0  501 -0.00000000000E+00  0.00000000000E+00  0.82162655701E+03  0.82162655701E+03  0.00000000000E+00 0. -1.
          2   -1    0    0  501    0  0.00000000000E+00 -0.00000000000E+00 -0.13039377990E+04  0.13039377990E+04  0.00000000000E+00 0.  1.
    2000013    1    1    2    0    0  0.29605843233E+03 -0.28423549948E+03 -0.26193395661E+03  0.10674969846E+04  0.95000000000E+03 0.  0.
   -2000013    1    1    2    0    0 -0.29605843233E+03  0.28423549948E+03 -0.22037728538E+03  0.10580673714E+04  0.95000000000E+03 0.  0.
<mgrwt>
<rscale>  0 0.20701207E+04</rscale>
<asrwt>0</asrwt>
<pdfrwt beam="2">  1        2 0.20060582E+00 0.20701207E+04</pdfrwt>
<pdfrwt beam="1">  1       -2 0.12640409E+00 0.20701207E+04</pdfrwt>
<totfact> 0.70832447E+00</totfact>
</mgrwt>
</event>
<event>
 4    1  0.1295381E-008  0.2365502E+04  0.7816531E-02  0.8452533E-01
         -2   -1    0    0    0  501 -0.00000000000E+00  0.00000000000E+00  0.45959201763E+03  0.45959201763E+03  0.00000000000E+00 0. -1.
          2   -1    0    0  501    0  0.00000000000E+00 -0.00000000000E+00 -0.30437852291E+04  0.30437852291E+04  0.00000000000E+00 0.  1.
    2000013    1    1    2    0    0  0.37099536631E+03 -0.53347917151E+03 -0.88877283562E+03  0.14541852501E+04  0.95000000000E+03 0.  0.
   -2000013    1    1    2    0    0 -0.37099536631E+03  0.53347917151E+03 -0.16954203759E+04  0.20491919967E+04  0.95000000000E+03 0.  0.
<mgrwt>
<rscale>  0 0.23655015E+04</rscale>
<asrwt>0</asrwt>
<pdfrwt beam="2">  1        2 0.46827466E+00 0.23655015E+04</pdfrwt>
<pdfrwt beam="1">  1       -2 0.70706462E-01 0.23655015E+04</pdfrwt>
<totfact> 0.26813922E+00</totfact>
</mgrwt>
</event>
<event>
 4    1  0.1295381E-008  0.2687687E+04  0.7816531E-02  0.8339011E-01
         -2   -1    0    0    0  501 -0.00000000000E+00  0.00000000000E+00  0.13246910841E+04  0.13246910841E+04  0.00000000000E+00 0. -1.
          2   -1    0    0  501    0  0.00000000000E+00 -0.00000000000E+00 -0.13632727974E+04  0.13632727974E+04  0.00000000000E+00 0.  1.
    2000013    1    1    2    0    0 -0.93461125453E+03 -0.34822385034E+02  0.15015069465E+03  0.13415498599E+04  0.95000000000E+03 0.  0.
   -2000013    1    1    2    0    0  0.93461125453E+03  0.34822385034E+02 -0.18873240798E+03  0.13464140215E+04  0.95000000000E+03 0.  0.
<mgrwt>
<rscale>  0 0.26876870E+04</rscale>
<asrwt>0</asrwt>
<pdfrwt beam="2">  1        2 0.20973428E+00 0.26876870E+04</pdfrwt>
<pdfrwt beam="1">  1       -2 0.20379863E+00 0.26876870E+04</pdfrwt>
<totfact> 0.16757322E+00</totfact>
</mgrwt>
</event>
<event>
 4    1  0.1295381E-008  0.1997481E+04  0.7816531E-02  0.8607799E-01
         -2   -1    0    0    0  501 -0.00000000000E+00  0.00000000000E+00  0.45902850880E+03  0.45902850880E+03  0.00000000000E+00 0. -1.
          2   -1    0    0  501    0  0.00000000000E+00 -0.00000000000E+00 -0.21730300667E+04  0.21730300667E+04  0.00000000000E+00 0.  1.
    2000013    1    1    2    0    0 -0.17342187789E+03  0.21680617991E+03 -0.10333087417E+04  0.14308413689E+04  0.95000000000E+03 0.  0.
   -2000013    1    1    2    0    0  0.17342187789E+03 -0.21680617991E+03 -0.68069281628E+03  0.12012172066E+04  0.95000000000E+03 0.  0.
<mgrwt>
<rscale>  0 0.19974812E+04</rscale>
<asrwt>0</asrwt>
<pdfrwt beam="2">  1        2 0.33431233E+00 0.19974812E+04</pdfrwt>
<pdfrwt beam="1">  1       -2 0.70619768E-01 0.19974812E+04</pdfrwt>
<totfact> 0.90605670E+00</totfact>
</mgrwt>
</event>
<event>
 4    1  0.1295381E-008  0.2654178E+04  0.7816531E-02  0.8350028E-01
          2   -1    0    0  501    0  0.00000000000E+00  0.00000000000E+00  0.36888581220E+04  0.36888581220E+04  0.00000000000E+00 0.  1.
         -2   -1    0    0    0  501 -0.00000000000E+00 -0.00000000000E+00 -0.47742811033E+03  0.47742811033E+03  0.00000000000E+00 0. -1.
    2000013    1    1    2    0    0 -0.30385220650E+03  0.84688441276E+03  0.12578015206E+04  0.18149666766E+04  0.95000000000E+03 0.  0.
   -2000013    1    1    2    0    0  0.30385220650E+03 -0.84688441276E+03  0.19536284911E+04  0.23513195557E+04  0.95000000000E+03 0.  0.
<mgrwt>
<rscale>  0 0.26541775E+04</rscale>
<asrwt>0</asrwt>
<pdfrwt beam="1">  1        2 0.56751662E+00 0.26541775E+04</pdfrwt>
<pdfrwt beam="2">  1       -2 0.73450481E-01 0.26541775E+04</pdfrwt>
<totfact> 0.87681262E-01</totfact>
</mgrwt>
</event>
<event>
 4    1  0.1295381E-008  0.3065403E+04  0.7816531E-02  0.8225297E-01
          1   -1    0    0  501    0  0.00000000000E+00  0.00000000000E+00  0.23379058756E+04  0.23379058756E+04  0.00000000000E+00 0. -1.
         -1   -1    0    0    0  501 -0.00000000000E+00 -0.00000000000E+00 -0.10048198765E+04  0.10048198765E+04  0.00000000000E+00 0.  1.
    2000013    1    1    2    0    0  0.43840495637E+03 -0.10398014687E+04  0.11204822574E+04  0.18523947985E+04  0.95000000000E+03 0.  0.
   -2000013    1    1    2    0    0 -0.43840495637E+03  0.10398014687E+04  0.21260374171E+03  0.14903309536E+04  0.95000000000E+03 0.  0.
<mgrwt>
<rscale>  0 0.30654033E+04</rscale>
<asrwt>0</asrwt>
<pdfrwt beam="1">  1        1 0.35967783E+00 0.30654033E+04</pdfrwt>
<pdfrwt beam="2">  1       -1 0.15458767E+00 0.30654033E+04</pdfrwt>
<totfact> 0.47680216E-01</totfact>
</mgrwt>
</event>
<event>
 4    1  0.1295381E-008  0.2439714E+04  0.7816531E-02  0.8424783E-01
         -2   -1    0    0    0  501 -0.00000000000E+00  0.00000000000E+00  0.10288569203E+04  0.10288569203E+04  0.00000000000E+00 0. -1.
          2   -1    0    0  501    0  0.00000000000E+00 -0.00000000000E+00 -0.14463151512E+04  0.14463151512E+04  0.00000000000E+00 0.  1.
    2000013    1    1    2    0    0  0.72970825595E+03  0.22777445292E+03 -0.24381514387E+03  0.12435035845E+04  0.95000000000E+03 0.  0.
   -2000013    1    1    2    0    0 -0.72970825595E+03 -0.22777445292E+03 -0.17364308708E+03  0.12316684870E+04  0.95000000000E+03 0.  0.
<mgrwt>
<rscale>  0 0.24397142E+04</rscale>
<asrwt>0</asrwt>
<pdfrwt beam="2">  1        2 0.22251002E+00 0.24397142E+04</pdfrwt>
<pdfrwt beam="1">  1       -2 0.15828568E+00 0.24397142E+04</pdfrwt>
<totfact> 0.31659590E+00</totfact>
</mgrwt>
</event>
<event>
 4    1  0.1295381E-008  0.2278772E+04  0.7816531E-02  0.8486338E-01
          2   -1    0    0  501    0  0.00000000000E+00  0.00000000000E+00  0.24696371017E+04  0.24696371017E+04  0.00000000000E+00 0.  1.
         -2   -1    0    0    0  501 -0.00000000000E+00 -0.00000000000E+00 -0.52566458490E+03  0.52566458490E+03  0.00000000000E+00 0. -1.
    2000013    1    1    2    0    0 -0.98731877535E+02 -0.62101492219E+03  0.99449518273E+03  0.15122592984E+04  0.95000000000E+03 0.  0.
   -2000013    1    1    2    0    0  0.98731877535E+02  0.62101492219E+03  0.94947733412E+03  0.14830423882E+04  0.95000000000E+03 0.  0.
<mgrwt>
<rscale>  0 0.22787723E+04</rscale>
<asrwt>0</asrwt>
<pdfrwt beam="1">  1        2 0.37994416E+00 0.22787723E+04</pdfrwt>
<pdfrwt beam="2">  1       -2 0.80871476E-01 0.22787723E+04</pdfrwt>
<totfact> 0.44407696E+00</totfact>
</mgrwt>
</event>
<event>
 4    1  0.1295381E-008  0.2605886E+04  0.7816531E-02  0.8366205E-01
         -2   -1    0    0    0  501 -0.00000000000E+00  0.00000000000E+00  0.93938373919E+03  0.93938373919E+03  0.00000000000E+00 0. -1.
          2   -1    0    0  501    0  0.00000000000E+00 -0.00000000000E+00 -0.18072062490E+04  0.18072062490E+04  0.00000000000E+00 0.  1.
    2000013    1    1    2    0    0 -0.22472856936E+02 -0.83173261685E+03 -0.77197256381E+03  0.14801100684E+04  0.95000000000E+03 0.  0.
   -2000013    1    1    2    0    0  0.22472856936E+02  0.83173261685E+03 -0.95849946038E+02  0.12664799199E+04  0.95000000000E+03 0.  0.
<mgrwt>
<rscale>  0 0.26058858E+04</rscale>
<asrwt>0</asrwt>
<pdfrwt beam="2">  1        2 0.27803173E+00 0.26058858E+04</pdfrwt>
<pdfrwt beam="1">  1       -2 0.14452058E+00 0.26058858E+04</pdfrwt>
<totfact> 0.24988875E+00</totfact>
</mgrwt>
</event>
<event>
 4    1  0.1295381E-008  0.2911724E+04  0.7816531E-02  0.8269398E-01
          2   -1    0    0  501    0  0.00000000000E+00  0.00000000000E+00  0.22677432266E+04  0.22677432266E+04  0.00000000000E+00 0.  1.
         -2   -1    0    0    0  501 -0.00000000000E+00 -0.00000000000E+00 -0.93464475338E+03  0.93464475338E+03  0.00000000000E+00 0. -1.
    2000013    1    1    2    0    0 -0.39719231354E+03 -0.10017515970E+04  0.92627180621E+03  0.17093119829E+04  0.95000000000E+03 0.  0.
   -2000013    1    1    2    0    0  0.39719231354E+03  0.10017515970E+04  0.40682666705E+03  0.14930759971E+04  0.95000000000E+03 0.  0.
<mgrwt>
<rscale>  0 0.29117241E+04</rscale>
<asrwt>0</asrwt>
<pdfrwt beam="1">  1        2 0.34888357E+00 0.29117241E+04</pdfrwt>
<pdfrwt beam="2">  1       -2 0.14379150E+00 0.29117241E+04</pdfrwt>
<totfact> 0.13655589E+00</totfact>
</mgrwt>
</event>
<event>
 4    1  0.1295381E-008  0.2764000E+04  0.7816531E-02  0.8314533E-01
          1   -1    0    0  501    0  0.00000000000E+00  0.00000000000E+00  0.12592071698E+04  0.12592071698E+04  0.00000000000E+00 0.  1.
         -1   -1    0    0    0  501 -0.00000000000E+00 -0.00000000000E+00 -0.15167671846E+04  0.15167671846E+04  0.00000000000E+00 0. -1.
    2000013    1    1    2    0    0 -0.15476196341E+02  0.49851853765E+03  0.74600654575E+03  0.13068228692E+04  0.95000000000E+03 0.  0.
   -2000013    1    1    2    0    0  0.15476196341E+02 -0.49851853765E+03 -0.10035665606E+04  0.14691514852E+04  0.95000000000E+03 0.  0.
<mgrwt>
<rscale>  0 0.27640001E+04</rscale>
<asrwt>0</asrwt>
<pdfrwt beam="1">  1        1 0.19372418E+00 0.27640001E+04</pdfrwt>
<pdfrwt beam="2">  1       -1 0.23334880E+00 0.27640001E+04</pdfrwt>
<totfact> 0.75373418E-01</totfact>
</mgrwt>
</event>
<event>
 4    1  0.1295381E-008  0.2629498E+04  0.7816531E-02  0.8358250E-01
         -2   -1    0    0    0  501 -0.00000000000E+00  0.00000000000E+00  0.98463122608E+03  0.98463122608E+03  0.00000000000E+00 0. -1.
          2   -1    0    0  501    0  0.00000000000E+00 -0.00000000000E+00 -0.17555455367E+04  0.17555455367E+04  0.00000000000E+00 0.  1.
    2000013    1    1    2    0    0 -0.85681623698E+03 -0.30011292896E+03 -0.34047646057E+03  0.13574336279E+04  0.95000000000E+03 0.  0.
   -2000013    1    1    2    0    0  0.85681623698E+03  0.30011292896E+03 -0.43043785000E+03  0.13827431348E+04  0.95000000000E+03 0.  0.
<mgrwt>
<rscale>  0 0.26294980E+04</rscale>
<asrwt>0</asrwt>
<pdfrwt beam="2">  1        2 0.27008392E+00 0.26294980E+04</pdfrwt>
<pdfrwt beam="1">  1       -2 0.15148173E+00 0.26294980E+04</pdfrwt>
<totfact> 0.23528707E+00</totfact>
</mgrwt>
</event>
<event>
 4    1  0.1295381E-008  0.3477681E+04  0.7816531E-02  0.8119100E-01
          2   -1    0    0  501    0  0.00000000000E+00  0.00000000000E+00  0.14200524975E+04  0.14200524975E+04  0.00000000000E+00 0.  1.
         -2   -1    0    0    0  501 -0.00000000000E+00 -0.00000000000E+00 -0.21291932442E+04  0.21291932442E+04  0.00000000000E+00 0. -1.
    2000013    1    1    2    0    0  0.94416054791E+03 -0.10803040490E+04 -0.60985821159E+03  0.18256294850E+04  0.95000000000E+03 0.  0.
   -2000013    1    1    2    0    0 -0.94416054791E+03  0.10803040490E+04 -0.99282535153E+02  0.17236162567E+04  0.95000000000E+03 0.  0.
<mgrwt>
<rscale>  0 0.34776809E+04</rscale>
<asrwt>0</asrwt>
<pdfrwt beam="1">  1        2 0.21846961E+00 0.34776809E+04</pdfrwt>
<pdfrwt beam="2">  1       -2 0.32756819E+00 0.34776809E+04</pdfrwt>
<totfact> 0.24929912E-01</totfact>
</mgrwt>
</event>
<event>
 4    1  0.1295381E-008  0.2455331E+04  0.7816531E-02  0.8419074E-01
         -2   -1    0    0    0  501 -0.00000000000E+00  0.00000000000E+00  0.12087600903E+04  0.12087600903E+04  0.00000000000E+00 0. -1.
          2   -1    0    0  501    0  0.00000000000E+00 -0.00000000000E+00 -0.12468665544E+04  0.12468665544E+04  0.00000000000E+00 0.  1.
    2000013    1    1    2    0    0  0.35094589176E+03  0.69390151378E+03 -0.19499436825E+02  0.12278202465E+04  0.95000000000E+03 0.  0.
   -2000013    1    1    2    0    0 -0.35094589176E+03 -0.69390151378E+03 -0.18607027235E+02  0.12278063981E+04  0.95000000000E+03 0.  0.
<mgrwt>
<rscale>  0 0.24553310E+04</rscale>
<asrwt>0</asrwt>
<pdfrwt beam="2">  1        2 0.19182562E+00 0.24553310E+04</pdfrwt>
<pdfrwt beam="1">  1       -2 0.18596309E+00 0.24553310E+04</pdfrwt>
<totfact> 0.26244112E+00</totfact>
</mgrwt>
</event>
<event>
 4    1  0.1295381E-008  0.3098379E+04  0.7816531E-02  0.8216183E-01
         -2   -1    0    0    0  501 -0.00000000000E+00  0.00000000000E+00  0.18759736234E+04  0.18759736234E+04  0.00000000000E+00 0. -1.
          2   -1    0    0  501    0  0.00000000000E+00 -0.00000000000E+00 -0.12793289902E+04  0.12793289902E+04  0.00000000000E+00 0.  1.
    2000013    1    1    2    0    0  0.40827145159E+03  0.68014011952E+03  0.12472197003E+04  0.17570808579E+04  0.95000000000E+03 0.  0.
   -2000013    1    1    2    0    0 -0.40827145159E+03 -0.68014011952E+03 -0.65057506709E+03  0.13982217558E+04  0.95000000000E+03 0.  0.
<mgrwt>
<rscale>  0 0.30983786E+04</rscale>
<asrwt>0</asrwt>
<pdfrwt beam="2">  1        2 0.19681984E+00 0.30983786E+04</pdfrwt>
<pdfrwt beam="1">  1       -2 0.28861133E+00 0.30983786E+04</pdfrwt>
<totfact> 0.53851707E-01</totfact>
</mgrwt>
</event>
<event>
 4    1  0.1295381E-008  0.3915900E+04  0.7816531E-02  0.8021730E-01
          4   -1    0    0  501    0  0.00000000000E+00  0.00000000000E+00  0.20685752017E+04  0.20685752017E+04  0.00000000000E+00 0.  1.
         -4   -1    0    0    0  501 -0.00000000000E+00 -0.00000000000E+00 -0.18532410951E+04  0.18532410951E+04  0.00000000000E+00 0. -1.
    2000013    1    1    2    0    0  0.41960391709E+03 -0.14283650597E+04 -0.73905353970E+03  0.19144174898E+04  0.95000000000E+03 0.  0.
   -2000013    1    1    2    0    0 -0.41960391709E+03  0.14283650597E+04  0.95438764628E+03  0.20073988070E+04  0.95000000000E+03 0.  0.
<mgrwt>
<rscale>  0 0.39159002E+04</rscale>
<asrwt>0</asrwt>
<pdfrwt beam="1">  1        4 0.31824234E+00 0.39159002E+04</pdfrwt>
<pdfrwt beam="2">  1       -4 0.28511401E+00 0.39159002E+04</pdfrwt>
<totfact> 0.14117630E-03</totfact>
</mgrwt>
</event>
<event>
 4    1  0.1295381E-008  0.2882945E+04  0.7816531E-02  0.8277970E-01
         -2   -1    0    0    0  501 -0.00000000000E+00  0.00000000000E+00  0.14406169148E+04  0.14406169148E+04  0.00000000000E+00 0. -1.
          2   -1    0    0  501    0  0.00000000000E+00 -0.00000000000E+00 -0.14423285576E+04  0.14423285576E+04  0.00000000000E+00 0.  1.
    2000013    1    1    2    0    0 -0.74319449996E+03  0.11648933407E+03  0.77980755151E+03  0.14410092460E+04  0.95000000000E+03 0.  0.
   -2000013    1    1    2    0    0  0.74319449996E+03 -0.11648933407E+03 -0.78151919434E+03  0.14419362263E+04  0.95000000000E+03 0.  0.
<mgrwt>
<rscale>  0 0.28829450E+04</rscale>
<asrwt>0</asrwt>
<pdfrwt beam="2">  1        2 0.22189670E+00 0.28829450E+04</pdfrwt>
<pdfrwt beam="1">  1       -2 0.22163337E+00 0.28829450E+04</pdfrwt>
<totfact> 0.11417049E+00</totfact>
</mgrwt>
</event>
<event>
 4    1  0.1295381E-008  0.3047631E+04  0.7816531E-02  0.8230259E-01
         -2   -1    0    0    0  501 -0.00000000000E+00  0.00000000000E+00  0.12973708839E+04  0.12973708839E+04  0.00000000000E+00 0. -1.
          2   -1    0    0  501    0  0.00000000000E+00 -0.00000000000E+00 -0.17897838716E+04  0.17897838716E+04  0.00000000000E+00 0.  1.
    2000013    1    1    2    0    0  0.73551277583E+03  0.81197471683E+03  0.22808737792E+03  0.14679256916E+04  0.95000000000E+03 0.  0.
   -2000013    1    1    2    0    0 -0.73551277583E+03 -0.81197471683E+03 -0.72050036563E+03  0.16192290638E+04  0.95000000000E+03 0.  0.
<mgrwt>
<rscale>  0 0.30476309E+04</rscale>
<asrwt>0</asrwt>
<pdfrwt beam="2">  1        2 0.27535136E+00 0.30476309E+04</pdfrwt>
<pdfrwt beam="1">  1       -2 0.19959552E+00 0.30476309E+04</pdfrwt>
<totfact> 0.99762226E-01</totfact>
</mgrwt>
</event>
<event>
 4    1  0.1295381E-008  0.3218352E+04  0.7816531E-02  0.8183987E-01
         -2   -1    0    0    0  501 -0.00000000000E+00  0.00000000000E+00  0.95058049217E+03  0.95058049217E+03  0.00000000000E+00 0. -1.
          2   -1    0    0  501    0  0.00000000000E+00 -0.00000000000E+00 -0.27240693113E+04  0.27240693113E+04  0.00000000000E+00 0.  1.
    2000013    1    1    2    0    0  0.11582350579E+01 -0.12987619331E+04 -0.87215612672E+03  0.18302841882E+04  0.95000000000E+03 0.  0.
   -2000013    1    1    2    0    0 -0.11582350579E+01  0.12987619331E+04 -0.90133269239E+03  0.18443656152E+04  0.95000000000E+03 0.  0.
<mgrwt>
<rscale>  0 0.32183518E+04</rscale>
<asrwt>0</asrwt>
<pdfrwt beam="2">  1        2 0.41908758E+00 0.32183518E+04</pdfrwt>
<pdfrwt beam="1">  1       -2 0.14624315E+00 0.32183518E+04</pdfrwt>
<totfact> 0.69179261E-01</totfact>
</mgrwt>
</event>
<event>
 4    1  0.1295381E-008  0.2503057E+04  0.7816531E-02  0.8401897E-01
         -2   -1    0    0    0  501 -0.00000000000E+00  0.00000000000E+00  0.14653543599E+04  0.14653543599E+04  0.00000000000E+00 0. -1.
          2   -1    0    0  501    0  0.00000000000E+00 -0.00000000000E+00 -0.10689040675E+04  0.10689040675E+04  0.00000000000E+00 0.  1.
    2000013    1    1    2    0    0 -0.36622581596E+03 -0.72780618404E+03  0.19844180476E+03  0.12671631070E+04  0.95000000000E+03 0.  0.
   -2000013    1    1    2    0    0  0.36622581596E+03  0.72780618404E+03  0.19800848766E+03  0.12670953204E+04  0.95000000000E+03 0.  0.
<mgrwt>
<rscale>  0 0.25030567E+04</rscale>
<asrwt>0</asrwt>
<pdfrwt beam="2">  1        2 0.16444678E+00 0.25030567E+04</pdfrwt>
<pdfrwt beam="1">  1       -2 0.22543913E+00 0.25030567E+04</pdfrwt>
<totfact> 0.18544774E+00</totfact>
</mgrwt>
</event>
<event>
 4    1  0.1295381E-008  0.2702131E+04  0.7816531E-02  0.8334314E-01
         -2   -1    0    0    0  501 -0.00000000000E+00  0.00000000000E+00  0.86205753914E+03  0.86205753914E+03  0.00000000000E+00 0. -1.
          2   -1    0    0  501    0  0.00000000000E+00 -0.00000000000E+00 -0.21174662100E+04  0.21174662100E+04  0.00000000000E+00 0.  1.
    2000013    1    1    2    0    0  0.33606823297E+03 -0.87367842497E+03 -0.38961754804E+03  0.13894450983E+04  0.95000000000E+03 0.  0.
   -2000013    1    1    2    0    0 -0.33606823297E+03  0.87367842497E+03 -0.86579112281E+03  0.15900786508E+04  0.95000000000E+03 0.  0.
<mgrwt>
<rscale>  0 0.27021308E+04</rscale>
<asrwt>0</asrwt>
<pdfrwt beam="2">  1        2 0.32576403E+00 0.27021308E+04</pdfrwt>
<pdfrwt beam="1">  1       -2 0.13262424E+00 0.27021308E+04</pdfrwt>
<totfact> 0.20801919E+00</totfact>
</mgrwt>
</event>
<event>
 4    1  0.1295381E-008  0.2436312E+04  0.7816531E-02  0.8426033E-01
          2   -1    0    0  501    0  0.00000000000E+00  0.00000000000E+00  0.70544349533E+03  0.70544349533E+03  0.00000000000E+00 0.  1.
         -2   -1    0    0    0  501 -0.00000000000E+00 -0.00000000000E+00 -0.21035059691E+04  0.21035059691E+04  0.00000000000E+00 0. -1.
    2000013    1    1    2    0    0 -0.20299716778E+03  0.59152070717E+03 -0.19607483505E+03  0.11541446781E+04  0.95000000000E+03 0.  0.
   -2000013    1    1    2    0    0  0.20299716778E+03 -0.59152070717E+03 -0.12019876387E+04  0.16548047863E+04  0.95000000000E+03 0.  0.
<mgrwt>
<rscale>  0 0.24363125E+04</rscale>
<asrwt>0</asrwt>
<pdfrwt beam="1">  1        2 0.10852977E+00 0.24363125E+04</pdfrwt>
<pdfrwt beam="2">  1       -2 0.32361630E+00 0.24363125E+04</pdfrwt>
<totfact> 0.82760935E-01</totfact>
</mgrwt>
</event>
<event>
 4    1  0.1295381E-008  0.2501702E+04  0.7816531E-02  0.8402379E-01
         -2   -1    0    0    0  501 -0.00000000000E+00  0.00000000000E+00  0.42602946008E+03  0.42602946008E+03  0.00000000000E+00 0. -1.
          2   -1    0    0  501    0  0.00000000000E+00 -0.00000000000E+00 -0.36725826191E+04  0.36725826191E+04  0.00000000000E+00 0.  1.
    2000013    1    1    2    0    0  0.67755068188E+03 -0.42867752659E+03 -0.18508159468E+04  0.22295423336E+04  0.95000000000E+03 0.  0.
   -2000013    1    1    2    0    0 -0.67755068188E+03  0.42867752659E+03 -0.13957372122E+04  0.18690697456E+04  0.95000000000E+03 0.  0.
<mgrwt>
<rscale>  0 0.25017021E+04</rscale>
<asrwt>0</asrwt>
<pdfrwt beam="2">  1        2 0.56501270E+00 0.25017021E+04</pdfrwt>
<pdfrwt beam="1">  1       -2 0.65542996E-01 0.25017021E+04</pdfrwt>
<totfact> 0.11715396E+00</totfact>
</mgrwt>
</event>
<event>
 4    1  0.1295381E-008  0.2714615E+04  0.7816531E-02  0.8330278E-01
          2   -1    0    0  501    0  0.00000000000E+00  0.00000000000E+00  0.98277637085E+03  0.98277637085E+03  0.00000000000E+00 0.  1.
         -2   -1    0    0    0  501 -0.00000000000E+00 -0.00000000000E+00 -0.18745703687E+04  0.18745703687E+04  0.00000000000E+00 0. -1.
    2000013    1    1    2    0    0  0.23283856020E+03  0.44998322956E+03 -0.13158424495E+04  0.17001882408E+04  0.95000000000E+03 0.  0.
   -2000013    1    1    2    0    0 -0.23283856020E+03 -0.44998322956E+03  0.42404845168E+03  0.11571584988E+04  0.95000000000E+03 0.  0.
<mgrwt>
<rscale>  0 0.27146149E+04</rscale>
<asrwt>0</asrwt>
<pdfrwt beam="1">  1        2 0.15119637E+00 0.27146149E+04</pdfrwt>
<pdfrwt beam="2">  1       -2 0.28839544E+00 0.27146149E+04</pdfrwt>
<totfact> 0.84746153E-01</totfact>
</mgrwt>
</event>
<event>
 4    1  0.1295381E-008  0.2786771E+04  0.7816531E-02  0.8307387E-01
         -2   -1    0    0    0  501 -0.00000000000E+00  0.00000000000E+00  0.11269747675E+04  0.11269747675E+04  0.00000000000E+00 0. -1.
          2   -1    0    0  501    0  0.00000000000E+00 -0.00000000000E+00 -0.17227740509E+04  0.17227740509E+04  0.00000000000E+00 0.  1.
    2000013    1    1    2    0    0  0.94659673867E+03  0.37064276818E+02  0.86907116059E+02  0.13444225501E+04  0.95000000000E+03 0.  0.
   -2000013    1    1    2    0    0 -0.94659673867E+03 -0.37064276818E+02 -0.68270639951E+03  0.15053262684E+04  0.95000000000E+03 0.  0.
<mgrwt>
<rscale>  0 0.27867708E+04</rscale>
<asrwt>0</asrwt>
<pdfrwt beam="2">  1        2 0.26504216E+00 0.27867708E+04</pdfrwt>
<pdfrwt beam="1">  1       -2 0.17338073E+00 0.27867708E+04</pdfrwt>
<totfact> 0.16738368E+00</totfact>
</mgrwt>
</event>
<event>
 4    1  0.1295381E-008  0.2199528E+04  0.7816531E-02  0.8518624E-01
         -2   -1    0    0    0  501 -0.00000000000E+00  0.00000000000E+00  0.48217265222E+03  0.48217265222E+03  0.00000000000E+00 0. -1.
          2   -1    0    0  501    0  0.00000000000E+00 -0.00000000000E+00 -0.25083988459E+04  0.25083988459E+04  0.00000000000E+00 0.  1.
    2000013    1    1    2    0    0  0.18754001567E+03  0.49338742890E+03 -0.12421589750E+04  0.16504730630E+04  0.95000000000E+03 0.  0.
   -2000013    1    1    2    0    0 -0.18754001567E+03 -0.49338742890E+03 -0.78406721876E+03  0.13400984352E+04  0.95000000000E+03 0.  0.
<mgrwt>
<rscale>  0 0.21995284E+04</rscale>
<asrwt>0</asrwt>
<pdfrwt beam="2">  1        2 0.38590751E+00 0.21995284E+04</pdfrwt>
<pdfrwt beam="1">  1       -2 0.74180409E-01 0.21995284E+04</pdfrwt>
<totfact> 0.51488083E+00</totfact>
</mgrwt>
</event>
<event>
 4    1  0.1295381E-008  0.2198405E+04  0.7816531E-02  0.8519092E-01
         -2   -1    0    0    0  501 -0.00000000000E+00  0.00000000000E+00  0.94954335531E+03  0.94954335531E+03  0.00000000000E+00 0. -1.
          2   -1    0    0  501    0  0.00000000000E+00 -0.00000000000E+00 -0.12724493069E+04  0.12724493069E+04  0.00000000000E+00 0.  1.
    2000013    1    1    2    0    0 -0.49219891462E+03  0.25107829736E+03 -0.18279113551E+03  0.11140972499E+04  0.95000000000E+03 0.  0.
   -2000013    1    1    2    0    0  0.49219891462E+03 -0.25107829736E+03 -0.14011481607E+03  0.11078954123E+04  0.95000000000E+03 0.  0.
<mgrwt>
<rscale>  0 0.21984047E+04</rscale>
<asrwt>0</asrwt>
<pdfrwt beam="2">  1        2 0.19576143E+00 0.21984047E+04</pdfrwt>
<pdfrwt beam="1">  1       -2 0.14608359E+00 0.21984047E+04</pdfrwt>
<totfact> 0.50404330E+00</totfact>
</mgrwt>
</event>
<event>
 4    1  0.1295381E-008  0.2010404E+04  0.7816531E-02  0.8601772E-01
          2   -1    0    0  501    0  0.00000000000E+00  0.00000000000E+00  0.13226287389E+04  0.13226287389E+04  0.00000000000E+00 0.  1.
         -2   -1    0    0    0  501 -0.00000000000E+00 -0.00000000000E+00 -0.76395637588E+03  0.76395637588E+03  0.00000000000E+00 0. -1.
    2000013    1    1    2    0    0  0.26457310488E+03  0.18662289629E+03  0.22151493439E+03  0.10278112178E+04  0.95000000000E+03 0.  0.
   -2000013    1    1    2    0    0 -0.26457310488E+03 -0.18662289629E+03  0.33715742860E+03  0.10587738970E+04  0.95000000000E+03 0.  0.
<mgrwt>
<rscale>  0 0.20104036E+04</rscale>
<asrwt>0</asrwt>
<pdfrwt beam="1">  1        2 0.20348134E+00 0.20104036E+04</pdfrwt>
<pdfrwt beam="2">  1       -2 0.11753175E+00 0.20104036E+04</pdfrwt>
<totfact> 0.83236783E+00</totfact>
</mgrwt>
</event>
<event>
 4    1  0.1295381E-008  0.2047586E+04  0.7816531E-02  0.8584690E-01
          2   -1    0    0  501    0  0.00000000000E+00  0.00000000000E+00  0.18571641050E+04  0.18571641050E+04  0.00000000000E+00 0.  1.
         -2   -1    0    0    0  501 -0.00000000000E+00 -0.00000000000E+00 -0.56438334834E+03  0.56438334834E+03  0.00000000000E+00 0. -1.
    2000013    1    1    2    0    0 -0.20713877406E+03 -0.25626095000E+03  0.41867139439E+03  0.10892024067E+04  0.95000000000E+03 0.  0.
   -2000013    1    1    2    0    0  0.20713877406E+03  0.25626095000E+03  0.87410936230E+03  0.13323450467E+04  0.95000000000E+03 0.  0.
<mgrwt>
<rscale>  0 0.20475864E+04</rscale>
<asrwt>0</asrwt>
<pdfrwt beam="1">  1        2 0.28571755E+00 0.20475864E+04</pdfrwt>
<pdfrwt beam="2">  1       -2 0.86828208E-01 0.20475864E+04</pdfrwt>
<totfact> 0.85191759E+00</totfact>
</mgrwt>
</event>
<event>
 4    1  0.1295381E-008  0.2220927E+04  0.7816531E-02  0.8509768E-01
         -2   -1    0    0    0  501 -0.00000000000E+00  0.00000000000E+00  0.12511940107E+04  0.12511940107E+04  0.00000000000E+00 0. -1.
          2   -1    0    0  501    0  0.00000000000E+00 -0.00000000000E+00 -0.98556160105E+03  0.98556160105E+03  0.00000000000E+00 0.  1.
    2000013    1    1    2    0    0  0.42535050146E+02 -0.47473842177E+03  0.45673400994E+03  0.11568456057E+04  0.95000000000E+03 0.  0.
   -2000013    1    1    2    0    0 -0.42535050146E+02  0.47473842177E+03 -0.19110160026E+03  0.10799100061E+04  0.95000000000E+03 0.  0.
<mgrwt>
<rscale>  0 0.22209266E+04</rscale>
<asrwt>0</asrwt>
<pdfrwt beam="2">  1        2 0.15162486E+00 0.22209266E+04</pdfrwt>
<pdfrwt beam="1">  1       -2 0.19249139E+00 0.22209266E+04</pdfrwt>
<totfact> 0.35017270E+00</totfact>
</mgrwt>
</event>
<event>
 4    1  0.1295381E-008  0.2136309E+04  0.7816531E-02  0.8545415E-01
         -1   -1    0    0    0  501 -0.00000000000E+00  0.00000000000E+00  0.34740711559E+03  0.34740711559E+03  0.00000000000E+00 0. -1.
          1   -1    0    0  501    0  0.00000000000E+00 -0.00000000000E+00 -0.32841990275E+04  0.32841990275E+04  0.00000000000E+00 0.  1.
    2000013    1    1    2    0    0  0.45669034962E+03 -0.20518196595E+02 -0.17602077960E+04  0.20517842374E+04  0.95000000000E+03 0.  0.
   -2000013    1    1    2    0    0 -0.45669034962E+03  0.20518196595E+02 -0.11765841159E+04  0.15798219057E+04  0.95000000000E+03 0.  0.
<mgrwt>
<rscale>  0 0.21363091E+04</rscale>
<asrwt>0</asrwt>
<pdfrwt beam="2">  1        1 0.50526138E+00 0.21363091E+04</pdfrwt>
<pdfrwt beam="1">  1       -1 0.53447249E-01 0.21363091E+04</pdfrwt>
<totfact> 0.11914547E+00</totfact>
</mgrwt>
</event>
<event>
 4    1  0.1295381E-008  0.2796919E+04  0.7816531E-02  0.8304226E-01
         -2   -1    0    0    0  501 -0.00000000000E+00  0.00000000000E+00  0.69206325505E+03  0.69206325505E+03  0.00000000000E+00 0. -1.
          2   -1    0    0  501    0  0.00000000000E+00 -0.00000000000E+00 -0.28258809424E+04  0.28258809424E+04  0.00000000000E+00 0.  1.
    2000013    1    1    2    0    0  0.10173149597E+04  0.10053658501E+03 -0.11804662339E+04  0.18278506125E+04  0.95000000000E+03 0.  0.
   -2000013    1    1    2    0    0 -0.10173149597E+04 -0.10053658501E+03 -0.95335145348E+03  0.16900935850E+04  0.95000000000E+03 0.  0.
<mgrwt>
<rscale>  0 0.27969186E+04</rscale>
<asrwt>0</asrwt>
<pdfrwt beam="2">  1        2 0.43475091E+00 0.27969186E+04</pdfrwt>
<pdfrwt beam="1">  1       -2 0.10647127E+00 0.27969186E+04</pdfrwt>
<totfact> 0.13794136E+00</totfact>
</mgrwt>
</event>
<event>
 4    1  0.1295381E-008  0.3414637E+04  0.7816531E-02  0.8134323E-01
         -2   -1    0    0    0  501 -0.00000000000E+00  0.00000000000E+00  0.19369328611E+04  0.19369328611E+04  0.00000000000E+00 0. -1.
          2   -1    0    0  501    0  0.00000000000E+00 -0.00000000000E+00 -0.15049236986E+04  0.15049236986E+04  0.00000000000E+00 0.  1.
    2000013    1    1    2    0    0 -0.55616539245E+03  0.13046926911E+04  0.18587983442E+03  0.17171471325E+04  0.95000000000E+03 0.  0.
   -2000013    1    1    2    0    0  0.55616539245E+03 -0.13046926911E+04  0.24612932804E+03  0.17247094271E+04  0.95000000000E+03 0.  0.
<mgrwt>
<rscale>  0 0.34146368E+04</rscale>
<asrwt>0</asrwt>
<pdfrwt beam="2">  1        2 0.23152672E+00 0.34146368E+04</pdfrwt>
<pdfrwt beam="1">  1       -2 0.29798967E+00 0.34146368E+04</pdfrwt>
<totfact> 0.34120690E-01</totfact>
</mgrwt>
</event>
<event>
 4    1  0.1295381E-008  0.2222332E+04  0.7816531E-02  0.8509190E-01
          2   -1    0    0  501    0  0.00000000000E+00  0.00000000000E+00  0.13214477285E+04  0.13214477285E+04  0.00000000000E+00 0.  1.
         -2   -1    0    0    0  501 -0.00000000000E+00 -0.00000000000E+00 -0.93434641734E+03  0.93434641734E+03  0.00000000000E+00 0. -1.
    2000013    1    1    2    0    0 -0.44567644728E+03 -0.11064936645E+03  0.54710423079E+03  0.11885679692E+04  0.95000000000E+03 0.  0.
   -2000013    1    1    2    0    0  0.44567644728E+03  0.11064936645E+03 -0.16000291961E+03  0.10672261767E+04  0.95000000000E+03 0.  0.
<mgrwt>
<rscale>  0 0.22223321E+04</rscale>
<asrwt>0</asrwt>
<pdfrwt beam="1">  1        2 0.20329965E+00 0.22223321E+04</pdfrwt>
<pdfrwt beam="2">  1       -2 0.14374560E+00 0.22223321E+04</pdfrwt>
<totfact> 0.49136033E+00</totfact>
</mgrwt>
</event>
<event>
 4    1  0.1295381E-008  0.2782062E+04  0.7816531E-02  0.8308859E-01
         -2   -1    0    0    0  501 -0.00000000000E+00  0.00000000000E+00  0.66796989063E+03  0.66796989063E+03  0.00000000000E+00 0. -1.
          2   -1    0    0  501    0  0.00000000000E+00 -0.00000000000E+00 -0.28967870843E+04  0.28967870843E+04  0.00000000000E+00 0.  1.
    2000013    1    1    2    0    0 -0.76921009922E+03  0.27721355834E+03 -0.34141637542E+03  0.12990753154E+04  0.95000000000E+03 0.  0.
   -2000013    1    1    2    0    0  0.76921009922E+03 -0.27721355834E+03 -0.18874008183E+04  0.22656816596E+04  0.95000000000E+03 0.  0.
<mgrwt>
<rscale>  0 0.27820615E+04</rscale>
<asrwt>0</asrwt>
<pdfrwt beam="2">  1        2 0.44565955E+00 0.27820615E+04</pdfrwt>
<pdfrwt beam="1">  1       -2 0.10276460E+00 0.27820615E+04</pdfrwt>
<totfact> 0.13607594E+00</totfact>
</mgrwt>
</event>
<event>
 4    1  0.1295381E-008  0.2604982E+04  0.7816531E-02  0.8366511E-01
         -2   -1    0    0    0  501 -0.00000000000E+00  0.00000000000E+00  0.94629065201E+03  0.94629065201E+03  0.00000000000E+00 0. -1.
          2   -1    0    0  501    0  0.00000000000E+00 -0.00000000000E+00 -0.17927709200E+04  0.17927709200E+04  0.00000000000E+00 0.  1.
    2000013    1    1    2    0    0  0.37189252794E+03 -0.53382986446E+03 -0.10634328859E+04  0.15673761129E+04  0.95000000000E+03 0.  0.
   -2000013    1    1    2    0    0 -0.37189252794E+03  0.53382986446E+03  0.21695261795E+03  0.11716854591E+04  0.95000000000E+03 0.  0.
<mgrwt>
<rscale>  0 0.26049817E+04</rscale>
<asrwt>0</asrwt>
<pdfrwt beam="2">  1        2 0.27581091E+00 0.26049817E+04</pdfrwt>
<pdfrwt beam="1">  1       -2 0.14558318E+00 0.26049817E+04</pdfrwt>
<totfact> 0.24970979E+00</totfact>
</mgrwt>
</event>
<event>
 4    1  0.1295381E-008  0.2148067E+04  0.7816531E-02  0.8540360E-01
         -2   -1    0    0    0  501 -0.00000000000E+00  0.00000000000E+00  0.11143164128E+04  0.11143164128E+04  0.00000000000E+00 0.  1.
          2   -1    0    0  501    0  0.00000000000E+00 -0.00000000000E+00 -0.10352068884E+04  0.10352068884E+04  0.00000000000E+00 0. -1.
    2000013    1    1    2    0    0  0.14488813492E+03 -0.32012730075E+03 -0.31786235690E+03  0.10616075255E+04  0.95000000000E+03 0.  0.
   -2000013    1    1    2    0    0 -0.14488813492E+03  0.32012730075E+03  0.39697188126E+03  0.10879157756E+04  0.95000000000E+03 0.  0.
<mgrwt>
<rscale>  0 0.21480671E+04</rscale>
<asrwt>0</asrwt>
<pdfrwt beam="2">  1        2 0.15926260E+00 0.21480671E+04</pdfrwt>
<pdfrwt beam="1">  1       -2 0.17143329E+00 0.21480671E+04</pdfrwt>
<totfact> 0.45702581E+00</totfact>
</mgrwt>
</event>
<event>
 4    1  0.1295381E-008  0.1955635E+04  0.7816531E-02  0.8627648E-01
          2   -1    0    0  501    0  0.00000000000E+00  0.00000000000E+00  0.12792035836E+04  0.12792035836E+04  0.00000000000E+00 0.  1.
         -2   -1    0    0    0  501 -0.00000000000E+00 -0.00000000000E+00 -0.74743946942E+03  0.74743946942E+03  0.00000000000E+00 0. -1.
    2000013    1    1    2    0    0 -0.12378736388E+03  0.14721662143E+03  0.13223750794E+03  0.97825497882E+03  0.95000000000E+03 0.  0.
   -2000013    1    1    2    0    0  0.12378736388E+03 -0.14721662143E+03  0.39952660629E+03  0.10483880742E+04  0.95000000000E+03 0.  0.
<mgrwt>
<rscale>  0 0.19556352E+04</rscale>
<asrwt>0</asrwt>
<pdfrwt beam="1">  1        2 0.19680055E+00 0.19556352E+04</pdfrwt>
<pdfrwt beam="2">  1       -2 0.11499069E+00 0.19556352E+04</pdfrwt>
<totfact> 0.93505336E+00</totfact>
</mgrwt>
</event>
<event>
 4    1  0.1295381E-008  0.3825218E+04  0.7816531E-02  0.8040765E-01
          2   -1    0    0  501    0  0.00000000000E+00  0.00000000000E+00  0.28296643630E+04  0.28296643630E+04  0.00000000000E+00 0.  1.
         -2   -1    0    0    0  501 -0.00000000000E+00 -0.00000000000E+00 -0.12927588366E+04  0.12927588366E+04  0.00000000000E+00 0. -1.
    2000013    1    1    2    0    0  0.12755072915E+04  0.10172749066E+04  0.43837757573E+03  0.19381542728E+04  0.95000000000E+03 0.  0.
   -2000013    1    1    2    0    0 -0.12755072915E+04 -0.10172749066E+04  0.10985279507E+04  0.21842689268E+04  0.95000000000E+03 0.  0.
<mgrwt>
<rscale>  0 0.38252182E+04</rscale>
<asrwt>0</asrwt>
<pdfrwt beam="1">  1        2 0.43533298E+00 0.38252182E+04</pdfrwt>
<pdfrwt beam="2">  1       -2 0.19888598E+00 0.38252182E+04</pdfrwt>
<totfact> 0.24002471E-01</totfact>
</mgrwt>
</event>
<event>
 4    1  0.1295381E-008  0.2022425E+04  0.7816531E-02  0.8596208E-01
         -2   -1    0    0    0  501 -0.00000000000E+00  0.00000000000E+00  0.83106763915E+03  0.83106763915E+03  0.00000000000E+00 0. -1.
          2   -1    0    0  501    0  0.00000000000E+00 -0.00000000000E+00 -0.12304059071E+04  0.12304059071E+04  0.00000000000E+00 0.  1.
    2000013    1    1    2    0    0 -0.26986923451E+03 -0.20107570893E+03 -0.28365965763E+03  0.10470069942E+04  0.95000000000E+03 0.  0.
   -2000013    1    1    2    0    0  0.26986923451E+03  0.20107570893E+03 -0.11567861034E+03  0.10144665521E+04  0.95000000000E+03 0.  0.
<mgrwt>
<rscale>  0 0.20224248E+04</rscale>
<asrwt>0</asrwt>
<pdfrwt beam="2">  1        2 0.18929322E+00 0.20224248E+04</pdfrwt>
<pdfrwt beam="1">  1       -2 0.12785656E+00 0.20224248E+04</pdfrwt>
<totfact> 0.76322946E+00</totfact>
</mgrwt>
</event>
<event>
 4    1  0.1295381E-008  0.2935106E+04  0.7816531E-02  0.8262509E-01
         -2   -1    0    0    0  501 -0.00000000000E+00  0.00000000000E+00  0.10396705248E+04  0.10396705248E+04  0.00000000000E+00 0. -1.
          2   -1    0    0  501    0  0.00000000000E+00 -0.00000000000E+00 -0.20715324922E+04  0.20715324922E+04  0.00000000000E+00 0.  1.
    2000013    1    1    2    0    0 -0.11090276838E+04 -0.20197875688E+02 -0.66902961208E+03  0.16063782180E+04  0.95000000000E+03 0.  0.
   -2000013    1    1    2    0    0  0.11090276838E+04  0.20197875688E+02 -0.36283235526E+03  0.15048247990E+04  0.95000000000E+03 0.  0.
<mgrwt>
<rscale>  0 0.29351056E+04</rscale>
<asrwt>0</asrwt>
<pdfrwt beam="2">  1        2 0.31869731E+00 0.29351056E+04</pdfrwt>
<pdfrwt beam="1">  1       -2 0.15994931E+00 0.29351056E+04</pdfrwt>
<totfact> 0.13224608E+00</totfact>
</mgrwt>
</event>
<event>
 4    1  0.1295381E-008  0.2635102E+04  0.7816531E-02  0.8356375E-01
          2   -1    0    0  501    0  0.00000000000E+00  0.00000000000E+00  0.15177165670E+04  0.15177165670E+04  0.00000000000E+00 0. -1.
         -2   -1    0    0    0  501 -0.00000000000E+00 -0.00000000000E+00 -0.11437845774E+04  0.11437845774E+04  0.00000000000E+00 0.  1.
    2000013    1    1    2    0    0 -0.53858457348E+03  0.58276987387E+03  0.64287118183E+03  0.13948037228E+04  0.95000000000E+03 0.  0.
   -2000013    1    1    2    0    0  0.53858457348E+03 -0.58276987387E+03 -0.26893919229E+03  0.12666974216E+04  0.95000000000E+03 0.  0.
<mgrwt>
<rscale>  0 0.26351021E+04</rscale>
<asrwt>0</asrwt>
<pdfrwt beam="1">  1        2 0.23349486E+00 0.26351021E+04</pdfrwt>
<pdfrwt beam="2">  1       -2 0.17596686E+00 0.26351021E+04</pdfrwt>
<totfact> 0.21166779E+00</totfact>
</mgrwt>
</event>
<event>
 4    1  0.1295381E-008  0.2599983E+04  0.7816531E-02  0.8368207E-01
          2   -1    0    0  501    0  0.00000000000E+00  0.00000000000E+00  0.27853646174E+04  0.27853646174E+04  0.00000000000E+00 0.  1.
         -2   -1    0    0    0  501 -0.00000000000E+00 -0.00000000000E+00 -0.60673504765E+03  0.60673504765E+03  0.00000000000E+00 0. -1.
    2000013    1    1    2    0    0 -0.37112745442E+03 -0.35075926780E+03  0.20361711505E+04  0.23041832838E+04  0.95000000000E+03 0.  0.
   -2000013    1    1    2    0    0  0.37112745442E+03  0.35075926780E+03  0.14245841929E+03  0.10879163813E+04  0.95000000000E+03 0.  0.
<mgrwt>
<rscale>  0 0.25999833E+04</rscale>
<asrwt>0</asrwt>
<pdfrwt beam="1">  1        2 0.42851763E+00 0.25999833E+04</pdfrwt>
<pdfrwt beam="2">  1       -2 0.93343855E-01 0.25999833E+04</pdfrwt>
<totfact> 0.20267791E+00</totfact>
</mgrwt>
</event>
<event>
 4    1  0.1295381E-008  0.3157586E+04  0.7816531E-02  0.8200109E-01
          2   -1    0    0  501    0  0.00000000000E+00  0.00000000000E+00  0.28023580441E+04  0.28023580441E+04  0.00000000000E+00 0. -1.
         -2   -1    0    0    0  501 -0.00000000000E+00 -0.00000000000E+00 -0.88946046749E+03  0.88946046749E+03  0.00000000000E+00 0.  1.
    2000013    1    1    2    0    0 -0.12785533674E+03  0.30228102829E+03  0.23799666389E+04  0.25834980181E+04  0.95000000000E+03 0.  0.
   -2000013    1    1    2    0    0  0.12785533674E+03 -0.30228102829E+03 -0.46706906235E+03  0.11083204934E+04  0.95000000000E+03 0.  0.
<mgrwt>
<rscale>  0 0.31575856E+04</rscale>
<asrwt>0</asrwt>
<pdfrwt beam="1">  1        2 0.43113200E+00 0.31575856E+04</pdfrwt>
<pdfrwt beam="2">  1       -2 0.13684007E+00 0.31575856E+04</pdfrwt>
<totfact> 0.74178963E-01</totfact>
</mgrwt>
</event>
<event>
 4    1  0.1295381E-008  0.3822004E+04  0.7816531E-02  0.8041449E-01
         -2   -1    0    0    0  501 -0.00000000000E+00  0.00000000000E+00  0.16558193959E+04  0.16558193959E+04  0.00000000000E+00 0. -1.
          2   -1    0    0  501    0  0.00000000000E+00 -0.00000000000E+00 -0.22055110896E+04  0.22055110896E+04  0.00000000000E+00 0.  1.
    2000013    1    1    2    0    0 -0.10229063757E+04 -0.11792790851E+04 -0.83951677064E+03  0.20110507259E+04  0.95000000000E+03 0.  0.
   -2000013    1    1    2    0    0  0.10229063757E+04  0.11792790851E+04  0.28982507689E+03  0.18502797597E+04  0.95000000000E+03 0.  0.
<mgrwt>
<rscale>  0 0.38220037E+04</rscale>
<asrwt>0</asrwt>
<pdfrwt beam="2">  1        2 0.33930940E+00 0.38220037E+04</pdfrwt>
<pdfrwt beam="1">  1       -2 0.25474145E+00 0.38220037E+04</pdfrwt>
<totfact> 0.24660250E-01</totfact>
</mgrwt>
</event>
<event>
 4    1  0.1295381E-008  0.2533756E+04  0.7816531E-02  0.8391058E-01
          2   -1    0    0  501    0  0.00000000000E+00  0.00000000000E+00  0.19284225717E+04  0.19284225717E+04  0.00000000000E+00 0.  1.
         -2   -1    0    0    0  501 -0.00000000000E+00 -0.00000000000E+00 -0.83227593174E+03  0.83227593174E+03  0.00000000000E+00 0. -1.
    2000013    1    1    2    0    0  0.67588358111E+03 -0.10598947853E+03  0.20529774978E+02  0.11708859280E+04  0.95000000000E+03 0.  0.
   -2000013    1    1    2    0    0 -0.67588358111E+03  0.10598947853E+03  0.10756168650E+04  0.15898125754E+04  0.95000000000E+03 0.  0.
<mgrwt>
<rscale>  0 0.25337559E+04</rscale>
<asrwt>0</asrwt>
<pdfrwt beam="1">  1        2 0.29668039E+00 0.25337559E+04</pdfrwt>
<pdfrwt beam="2">  1       -2 0.12804245E+00 0.25337559E+04</pdfrwt>
<totfact> 0.29392787E+00</totfact>
</mgrwt>
</event>
<event>
 4    1  0.1295381E-008  0.2352584E+04  0.7816531E-02  0.8457472E-01
          2   -1    0    0  501    0  0.00000000000E+00  0.00000000000E+00  0.11694162087E+04  0.11694162087E+04  0.00000000000E+00 0.  1.
         -2   -1    0    0    0  501 -0.00000000000E+00 -0.00000000000E+00 -0.11832079216E+04  0.11832079216E+04  0.00000000000E+00 0. -1.
    2000013    1    1    2    0    0 -0.37849185748E+03  0.45545966201E+03 -0.36809859108E+03  0.11784295323E+04  0.95000000000E+03 0.  0.
   -2000013    1    1    2    0    0  0.37849185748E+03 -0.45545966201E+03  0.35430687823E+03  0.11741945979E+04  0.95000000000E+03 0.  0.
<mgrwt>
<rscale>  0 0.23525837E+04</rscale>
<asrwt>0</asrwt>
<pdfrwt beam="1">  1        2 0.17991019E+00 0.23525837E+04</pdfrwt>
<pdfrwt beam="2">  1       -2 0.18203199E+00 0.23525837E+04</pdfrwt>
<totfact> 0.31317486E+00</totfact>
</mgrwt>
</event>
<event>
 4    1  0.1295381E-008  0.2567202E+04  0.7816531E-02  0.8379428E-01
          1   -1    0    0  501    0  0.00000000000E+00  0.00000000000E+00  0.19670318817E+04  0.19670318817E+04  0.00000000000E+00 0. -1.
         -1   -1    0    0    0  501 -0.00000000000E+00 -0.00000000000E+00 -0.83762337656E+03  0.83762337656E+03  0.00000000000E+00 0.  1.
    2000013    1    1    2    0    0 -0.66268708897E+03  0.24639779634E+03  0.11057549041E+04  0.16202036785E+04  0.95000000000E+03 0.  0.
   -2000013    1    1    2    0    0  0.66268708897E+03 -0.24639779634E+03  0.23653601044E+02  0.11844515798E+04  0.95000000000E+03 0.  0.
<mgrwt>
<rscale>  0 0.25672023E+04</rscale>
<asrwt>0</asrwt>
<pdfrwt beam="1">  1        1 0.30262029E+00 0.25672023E+04</pdfrwt>
<pdfrwt beam="2">  1       -1 0.12886513E+00 0.25672023E+04</pdfrwt>
<totfact> 0.14366828E+00</totfact>
</mgrwt>
</event>
<event>
 4    1  0.1295381E-008  0.3158987E+04  0.7816531E-02  0.8199733E-01
          2   -1    0    0  501    0  0.00000000000E+00  0.00000000000E+00  0.27224539778E+04  0.27224539778E+04  0.00000000000E+00 0.  1.
         -2   -1    0    0    0  501 -0.00000000000E+00 -0.00000000000E+00 -0.91637913292E+03  0.91637913292E+03  0.00000000000E+00 0. -1.
    2000013    1    1    2    0    0 -0.39862839627E+03  0.11143765048E+04  0.39887883774E+03  0.15691857506E+04  0.95000000000E+03 0.  0.
   -2000013    1    1    2    0    0  0.39862839627E+03 -0.11143765048E+04  0.14071960072E+04  0.20696473601E+04  0.95000000000E+03 0.  0.
<mgrwt>
<rscale>  0 0.31589872E+04</rscale>
<asrwt>0</asrwt>
<pdfrwt beam="1">  1        2 0.41883907E+00 0.31589872E+04</pdfrwt>
<pdfrwt beam="2">  1       -2 0.14098141E+00 0.31589872E+04</pdfrwt>
<totfact> 0.76694476E-01</totfact>
</mgrwt>
</event>
<event>
 4    1  0.1295381E-008  0.2318135E+04  0.7816531E-02  0.8470805E-01
          2   -1    0    0  501    0  0.00000000000E+00  0.00000000000E+00  0.27184720201E+04  0.27184720201E+04  0.00000000000E+00 0.  1.
         -2   -1    0    0    0  501 -0.00000000000E+00 -0.00000000000E+00 -0.49418847260E+03  0.49418847260E+03  0.00000000000E+00 0. -1.
    2000013    1    1    2    0    0 -0.27906747096E+03 -0.54982103471E+03  0.14537431838E+04  0.18428377758E+04  0.95000000000E+03 0.  0.
   -2000013    1    1    2    0    0  0.27906747096E+03  0.54982103471E+03  0.77054036368E+03  0.13698227169E+04  0.95000000000E+03 0.  0.
<mgrwt>
<rscale>  0 0.23181351E+04</rscale>
<asrwt>0</asrwt>
<pdfrwt beam="1">  1        2 0.41822646E+00 0.23181351E+04</pdfrwt>
<pdfrwt beam="2">  1       -2 0.76028997E-01 0.23181351E+04</pdfrwt>
<totfact> 0.36314549E+00</totfact>
</mgrwt>
</event>
<event>
 4    1  0.1295381E-008  0.2091806E+04  0.7816531E-02  0.8564862E-01
          1   -1    0    0  501    0  0.00000000000E+00  0.00000000000E+00  0.66351876841E+03  0.66351876841E+03  0.00000000000E+00 0.  1.
         -1   -1    0    0    0  501 -0.00000000000E+00 -0.00000000000E+00 -0.16486540756E+04  0.16486540756E+04  0.00000000000E+00 0. -1.
    2000013    1    1    2    0    0  0.36989320533E+03  0.96551503720E+02 -0.72774904254E+03  0.12562889179E+04  0.95000000000E+03 0.  0.
   -2000013    1    1    2    0    0 -0.36989320533E+03 -0.96551503720E+02 -0.25738626463E+03  0.10558839261E+04  0.95000000000E+03 0.  0.
<mgrwt>
<rscale>  0 0.20918058E+04</rscale>
<asrwt>0</asrwt>
<pdfrwt beam="1">  1        1 0.10207981E+00 0.20918058E+04</pdfrwt>
<pdfrwt beam="2">  1       -1 0.25363909E+00 0.20918058E+04</pdfrwt>
<totfact> 0.17942620E+00</totfact>
</mgrwt>
</event>
<event>
 4    1  0.1295381E-008  0.2143246E+04  0.7816531E-02  0.8542429E-01
          2   -1    0    0  501    0  0.00000000000E+00  0.00000000000E+00  0.97205443953E+03  0.97205443953E+03  0.00000000000E+00 0. -1.
         -2   -1    0    0    0  501 -0.00000000000E+00 -0.00000000000E+00 -0.11813906636E+04  0.11813906636E+04  0.00000000000E+00 0.  1.
    2000013    1    1    2    0    0  0.49765358608E+02 -0.40311266052E+03  0.18111398555E+03  0.10489416970E+04  0.95000000000E+03 0.  0.
   -2000013    1    1    2    0    0 -0.49765358608E+02  0.40311266052E+03 -0.39045020967E+03  0.11045034062E+04  0.95000000000E+03 0.  0.
<mgrwt>
<rscale>  0 0.21432462E+04</rscale>
<asrwt>0</asrwt>
<pdfrwt beam="1">  1        2 0.14954684E+00 0.21432462E+04</pdfrwt>
<pdfrwt beam="2">  1       -2 0.18175241E+00 0.21432462E+04</pdfrwt>
<totfact> 0.42516822E+00</totfact>
</mgrwt>
</event>
<event>
 4    1  0.1295381E-008  0.3345199E+04  0.7816531E-02  0.8151489E-01
          1   -1    0    0  501    0  0.00000000000E+00  0.00000000000E+00  0.16683916415E+04  0.16683916415E+04  0.00000000000E+00 0.  1.
         -1   -1    0    0    0  501 -0.00000000000E+00 -0.00000000000E+00 -0.16768184147E+04  0.16768184147E+04  0.00000000000E+00 0. -1.
    2000013    1    1    2    0    0  0.11358099217E+04 -0.13531969624E+03 -0.77018855081E+03  0.16745345628E+04  0.95000000000E+03 0.  0.
   -2000013    1    1    2    0    0 -0.11358099217E+04  0.13531969624E+03  0.76176177758E+03  0.16706754934E+04  0.95000000000E+03 0.  0.
<mgrwt>
<rscale>  0 0.33451994E+04</rscale>
<asrwt>0</asrwt>
<pdfrwt beam="1">  1        1 0.25667564E+00 0.33451994E+04</pdfrwt>
<pdfrwt beam="2">  1       -1 0.25797206E+00 0.33451994E+04</pdfrwt>
<totfact> 0.25606325E-01</totfact>
</mgrwt>
</event>
<event>
 4    1  0.1295381E-008  0.2675034E+04  0.7816531E-02  0.8343151E-01
         -2   -1    0    0    0  501 -0.00000000000E+00  0.00000000000E+00  0.12452441188E+04  0.12452441188E+04  0.00000000000E+00 0.  1.
          2   -1    0    0  501    0  0.00000000000E+00 -0.00000000000E+00 -0.14366273793E+04  0.14366273793E+04  0.00000000000E+00 0. -1.
    2000013    1    1    2    0    0 -0.46033776757E+03  0.77708169608E+03 -0.36223764646E+03  0.13599569608E+04  0.95000000000E+03 0.  0.
   -2000013    1    1    2    0    0  0.46033776757E+03 -0.77708169608E+03  0.17085438597E+03  0.13219145373E+04  0.95000000000E+03 0.  0.
<mgrwt>
<rscale>  0 0.26750341E+04</rscale>
<asrwt>0</asrwt>
<pdfrwt beam="2">  1        2 0.22101960E+00 0.26750341E+04</pdfrwt>
<pdfrwt beam="1">  1       -2 0.19157602E+00 0.26750341E+04</pdfrwt>
<totfact> 0.18340490E+00</totfact>
</mgrwt>
</event>
<event>
 4    1  0.1295381E-008  0.2240725E+04  0.7816531E-02  0.8501666E-01
         -1   -1    0    0    0  501 -0.00000000000E+00  0.00000000000E+00  0.72918248678E+03  0.72918248678E+03  0.00000000000E+00 0. -1.
          1   -1    0    0  501    0  0.00000000000E+00 -0.00000000000E+00 -0.17213957980E+04  0.17213957980E+04  0.00000000000E+00 0.  1.
    2000013    1    1    2    0    0  0.12448117058E+03 -0.57999686479E+03 -0.52741925796E+03  0.12379672850E+04  0.95000000000E+03 0.  0.
   -2000013    1    1    2    0    0 -0.12448117058E+03  0.57999686479E+03 -0.46479405330E+03  0.12126109999E+04  0.95000000000E+03 0.  0.
<mgrwt>
<rscale>  0 0.22407246E+04</rscale>
<asrwt>0</asrwt>
<pdfrwt beam="2">  1        1 0.26483012E+00 0.22407246E+04</pdfrwt>
<pdfrwt beam="1">  1       -1 0.11218192E+00 0.22407246E+04</pdfrwt>
<totfact> 0.30493159E+00</totfact>
</mgrwt>
</event>
<event>
 4    1  0.1295381E-008  0.2117027E+04  0.7816531E-02  0.8553780E-01
         -2   -1    0    0    0  501 -0.00000000000E+00  0.00000000000E+00  0.12266600421E+04  0.12266600421E+04  0.00000000000E+00 0. -1.
          2   -1    0    0  501    0  0.00000000000E+00 -0.00000000000E+00 -0.91341555110E+03  0.91341555110E+03  0.00000000000E+00 0.  1.
    2000013    1    1    2    0    0  0.57444533210E+02  0.37886941184E+03  0.42618719557E+03  0.11094942232E+04  0.95000000000E+03 0.  0.
   -2000013    1    1    2    0    0 -0.57444533210E+02 -0.37886941184E+03 -0.11294270460E+03  0.10305813700E+04  0.95000000000E+03 0.  0.
<mgrwt>
<rscale>  0 0.21170266E+04</rscale>
<asrwt>0</asrwt>
<pdfrwt beam="2">  1        2 0.14052547E+00 0.21170266E+04</pdfrwt>
<pdfrwt beam="1">  1       -2 0.18871693E+00 0.21170266E+04</pdfrwt>
<totfact> 0.41769855E+00</totfact>
</mgrwt>
</event>
<event>
 4    1  0.1295381E-008  0.2880728E+04  0.7816531E-02  0.8278635E-01
          2   -1    0    0  501    0  0.00000000000E+00  0.00000000000E+00  0.11403619285E+04  0.11403619285E+04  0.00000000000E+00 0.  1.
         -2   -1    0    0    0  501 -0.00000000000E+00 -0.00000000000E+00 -0.18192894289E+04  0.18192894289E+04  0.00000000000E+00 0. -1.
    2000013    1    1    2    0    0 -0.10367120492E+04 -0.27426096237E+03 -0.49239570045E+03  0.15149074144E+04  0.95000000000E+03 0.  0.
   -2000013    1    1    2    0    0  0.10367120492E+04  0.27426096237E+03 -0.18653179988E+03  0.14447439430E+04  0.95000000000E+03 0.  0.
<mgrwt>
<rscale>  0 0.28807280E+04</rscale>
<asrwt>0</asrwt>
<pdfrwt beam="1">  1        2 0.17544030E+00 0.28807280E+04</pdfrwt>
<pdfrwt beam="2">  1       -2 0.27989068E+00 0.28807280E+04</pdfrwt>
<totfact> 0.75024783E-01</totfact>
</mgrwt>
</event>
<event>
 4    1  0.1295381E-008  0.2298867E+04  0.7816531E-02  0.8478368E-01
          2   -1    0    0  501    0  0.00000000000E+00  0.00000000000E+00  0.10673426262E+04  0.10673426262E+04  0.00000000000E+00 0.  1.
         -2   -1    0    0    0  501 -0.00000000000E+00 -0.00000000000E+00 -0.12378378447E+04  0.12378378447E+04  0.00000000000E+00 0. -1.
    2000013    1    1    2    0    0 -0.60732026115E+02 -0.44428989871E+03 -0.55302125173E+03  0.11871876002E+04  0.95000000000E+03 0.  0.
   -2000013    1    1    2    0    0  0.60732026115E+02  0.44428989871E+03  0.38252603321E+03  0.11179928708E+04  0.95000000000E+03 0.  0.
<mgrwt>
<rscale>  0 0.22988668E+04</rscale>
<asrwt>0</asrwt>
<pdfrwt beam="1">  1        2 0.16420656E+00 0.22988668E+04</pdfrwt>
<pdfrwt beam="2">  1       -2 0.19043659E+00 0.22988668E+04</pdfrwt>
<totfact> 0.31863072E+00</totfact>
</mgrwt>
</event>
<event>
 4    1  0.1295381E-008  0.1953754E+04  0.7816531E-02  0.8628553E-01
         -2   -1    0    0    0  501 -0.00000000000E+00  0.00000000000E+00  0.14317445592E+04  0.14317445592E+04  0.00000000000E+00 0. -1.
          2   -1    0    0  501    0  0.00000000000E+00 -0.00000000000E+00 -0.66652155990E+03  0.66652155990E+03  0.00000000000E+00 0.  1.
    2000013    1    1    2    0    0  0.21699385560E+03  0.65281679294E+02  0.36006879434E+03  0.10409118924E+04  0.95000000000E+03 0.  0.
   -2000013    1    1    2    0    0 -0.21699385560E+03 -0.65281679294E+02  0.40515420499E+03  0.10573542268E+04  0.95000000000E+03 0.  0.
<mgrwt>
<rscale>  0 0.19537539E+04</rscale>
<asrwt>0</asrwt>
<pdfrwt beam="2">  1        2 0.10254178E+00 0.19537539E+04</pdfrwt>
<pdfrwt beam="1">  1       -2 0.22026839E+00 0.19537539E+04</pdfrwt>
<totfact> 0.39986430E+00</totfact>
</mgrwt>
</event>
<event>
 4    1  0.1295381E-008  0.3881955E+04  0.7816531E-02  0.8028793E-01
          4   -1    0    0  501    0  0.00000000000E+00  0.00000000000E+00  0.44833659594E+04  0.44833659594E+04  0.00000000000E+00 0.  1.
         -4   -1    0    0    0  501 -0.00000000000E+00 -0.00000000000E+00 -0.84030483305E+03  0.84030483305E+03  0.00000000000E+00 0. -1.
    2000013    1    1    2    0    0  0.61279079300E+03  0.61589587061E+03  0.38136135890E+04  0.40250452029E+04  0.95000000000E+03 0.  0.
   -2000013    1    1    2    0    0 -0.61279079300E+03 -0.61589587061E+03 -0.17055246259E+03  0.12986255896E+04  0.95000000000E+03 0.  0.
<mgrwt>
<rscale>  0 0.38819552E+04</rscale>
<asrwt>0</asrwt>
<pdfrwt beam="1">  1        4 0.68974860E+00 0.38819552E+04</pdfrwt>
<pdfrwt beam="2">  1       -4 0.12927767E+00 0.38819552E+04</pdfrwt>
<totfact> 0.15626111E-05</totfact>
</mgrwt>
</event>
<event>
 4    1  0.1295381E-008  0.3937758E+04  0.7816531E-02  0.8017222E-01
          2   -1    0    0  501    0  0.00000000000E+00  0.00000000000E+00  0.25829347231E+04  0.25829347231E+04  0.00000000000E+00 0.  1.
         -2   -1    0    0    0  501 -0.00000000000E+00 -0.00000000000E+00 -0.15008060367E+04  0.15008060367E+04  0.00000000000E+00 0. -1.
    2000013    1    1    2    0    0 -0.11860969592E+04 -0.12518614155E+04  0.54001473059E+03  0.20415922486E+04  0.95000000000E+03 0.  0.
   -2000013    1    1    2    0    0  0.11860969592E+04  0.12518614155E+04  0.54211395586E+03  0.20421485111E+04  0.95000000000E+03 0.  0.
<mgrwt>
<rscale>  0 0.39377578E+04</rscale>
<asrwt>0</asrwt>
<pdfrwt beam="1">  1        2 0.39737457E+00 0.39377578E+04</pdfrwt>
<pdfrwt beam="2">  1       -2 0.23089324E+00 0.39377578E+04</pdfrwt>
<totfact> 0.20839380E-01</totfact>
</mgrwt>
</event>
<event>
 4    1  0.1295381E-008  0.2188279E+04  0.7816531E-02  0.8523322E-01
         -2   -1    0    0    0  501 -0.00000000000E+00  0.00000000000E+00  0.86530346938E+03  0.86530346938E+03  0.00000000000E+00 0. -1.
          2   -1    0    0  501    0  0.00000000000E+00 -0.00000000000E+00 -0.13834931945E+04  0.13834931945E+04  0.00000000000E+00 0.  1.
    2000013    1    1    2    0    0 -0.34449272211E+03  0.40205917341E+03 -0.13614224731E+03  0.10960663876E+04  0.95000000000E+03 0.  0.
   -2000013    1    1    2    0    0  0.34449272211E+03 -0.40205917341E+03 -0.38204747778E+03  0.11527302763E+04  0.95000000000E+03 0.  0.
<mgrwt>
<rscale>  0 0.21882792E+04</rscale>
<asrwt>0</asrwt>
<pdfrwt beam="2">  1        2 0.21284511E+00 0.21882792E+04</pdfrwt>
<pdfrwt beam="1">  1       -2 0.13312361E+00 0.21882792E+04</pdfrwt>
<totfact> 0.55335533E+00</totfact>
</mgrwt>
</event>
<event>
 4    1  0.1295381E-008  0.2650862E+04  0.7816531E-02  0.8351127E-01
          2   -1    0    0  501    0  0.00000000000E+00  0.00000000000E+00  0.10124886984E+04  0.10124886984E+04  0.00000000000E+00 0.  1.
         -2   -1    0    0    0  501 -0.00000000000E+00 -0.00000000000E+00 -0.17350983018E+04  0.17350983018E+04  0.00000000000E+00 0. -1.
    2000013    1    1    2    0    0 -0.74353696920E+03  0.47689596400E+03 -0.79367774270E+02  0.12996446548E+04  0.95000000000E+03 0.  0.
   -2000013    1    1    2    0    0  0.74353696920E+03 -0.47689596400E+03 -0.64324182911E+03  0.14479423455E+04  0.95000000000E+03 0.  0.
<mgrwt>
<rscale>  0 0.26508621E+04</rscale>
<asrwt>0</asrwt>
<pdfrwt beam="1">  1        2 0.15576749E+00 0.26508621E+04</pdfrwt>
<pdfrwt beam="2">  1       -2 0.26693820E+00 0.26508621E+04</pdfrwt>
<totfact> 0.11021069E+00</totfact>
</mgrwt>
</event>
<event>
 4    1  0.1295381E-008  0.2272002E+04  0.7816531E-02  0.8489043E-01
          2   -1    0    0  501    0  0.00000000000E+00  0.00000000000E+00  0.15481995003E+04  0.15481995003E+04  0.00000000000E+00 0.  1.
         -2   -1    0    0    0  501 -0.00000000000E+00 -0.00000000000E+00 -0.83354749043E+03  0.83354749043E+03  0.00000000000E+00 0. -1.
    2000013    1    1    2    0    0 -0.53240932118E+03  0.25935243293E+03  0.55971763508E+03  0.12516018539E+04  0.95000000000E+03 0.  0.
   -2000013    1    1    2    0    0  0.53240932118E+03 -0.25935243293E+03  0.15493437479E+03  0.11301451368E+04  0.95000000000E+03 0.  0.
<mgrwt>
<rscale>  0 0.22720016E+04</rscale>
<asrwt>0</asrwt>
<pdfrwt beam="1">  1        2 0.23818454E+00 0.22720016E+04</pdfrwt>
<pdfrwt beam="2">  1       -2 0.12823808E+00 0.22720016E+04</pdfrwt>
<totfact> 0.48718339E+00</totfact>
</mgrwt>
</event>
<event>
 4    1  0.1295381E-008  0.2369805E+04  0.7816531E-02  0.8450895E-01
         -2   -1    0    0    0  501 -0.00000000000E+00  0.00000000000E+00  0.55263357895E+03  0.55263357895E+03  0.00000000000E+00 0. -1.
          2   -1    0    0  501    0  0.00000000000E+00 -0.00000000000E+00 -0.25405507821E+04  0.25405507821E+04  0.00000000000E+00 0.  1.
    2000013    1    1    2    0    0 -0.39857273017E+03  0.57636689937E+03 -0.86062729906E+03  0.14609032726E+04  0.95000000000E+03 0.  0.
   -2000013    1    1    2    0    0  0.39857273017E+03 -0.57636689937E+03 -0.11272899041E+04  0.16322810885E+04  0.95000000000E+03 0.  0.
<mgrwt>
<rscale>  0 0.23698048E+04</rscale>
<asrwt>0</asrwt>
<pdfrwt beam="2">  1        2 0.39085397E+00 0.23698048E+04</pdfrwt>
<pdfrwt beam="1">  1       -2 0.85020551E-01 0.23698048E+04</pdfrwt>
<totfact> 0.35790415E+00</totfact>
</mgrwt>
</event>
<event>
 4    1  0.1295381E-008  0.2312806E+04  0.7816531E-02  0.8472889E-01
          2   -1    0    0  501    0  0.00000000000E+00  0.00000000000E+00  0.35113767844E+04  0.35113767844E+04  0.00000000000E+00 0.  1.
         -2   -1    0    0    0  501 -0.00000000000E+00 -0.00000000000E+00 -0.38083857976E+03  0.38083857976E+03  0.00000000000E+00 0. -1.
    2000013    1    1    2    0    0  0.56586455381E+03 -0.10253303771E+03  0.21081230014E+04  0.23827291718E+04  0.95000000000E+03 0.  0.
   -2000013    1    1    2    0    0 -0.56586455381E+03  0.10253303771E+03  0.10224152032E+04  0.15094861923E+04  0.95000000000E+03 0.  0.
<mgrwt>
<rscale>  0 0.23128059E+04</rscale>
<asrwt>0</asrwt>
<pdfrwt beam="1">  1        2 0.54021179E+00 0.23128059E+04</pdfrwt>
<pdfrwt beam="2">  1       -2 0.58590553E-01 0.23128059E+04</pdfrwt>
<totfact> 0.19738258E+00</totfact>
</mgrwt>
</event>
<event>
 4    1  0.1295381E-008  0.2076402E+04  0.7816531E-02  0.8571710E-01
          2   -1    0    0  501    0  0.00000000000E+00  0.00000000000E+00  0.84954156792E+03  0.84954156792E+03  0.00000000000E+00 0.  1.
         -2   -1    0    0    0  501 -0.00000000000E+00 -0.00000000000E+00 -0.12687569516E+04  0.12687569516E+04  0.00000000000E+00 0. -1.
    2000013    1    1    2    0    0  0.35675072470E+03 -0.89085629256E+02 -0.41403665462E+03  0.10996061478E+04  0.95000000000E+03 0.  0.
   -2000013    1    1    2    0    0 -0.35675072470E+03  0.89085629256E+02 -0.51787290505E+01  0.10186923717E+04  0.95000000000E+03 0.  0.
<mgrwt>
<rscale>  0 0.20764024E+04</rscale>
<asrwt>0</asrwt>
<pdfrwt beam="1">  1        2 0.13069870E+00 0.20764024E+04</pdfrwt>
<pdfrwt beam="2">  1       -2 0.19519338E+00 0.20764024E+04</pdfrwt>
<totfact> 0.41946345E+00</totfact>
</mgrwt>
</event>
<event>
 4    1  0.1295381E-008  0.2567028E+04  0.7816531E-02  0.8379488E-01
          2   -1    0    0  501    0  0.00000000000E+00  0.00000000000E+00  0.81278057043E+03  0.81278057043E+03  0.00000000000E+00 0.  1.
         -2   -1    0    0    0  501 -0.00000000000E+00 -0.00000000000E+00 -0.20268796609E+04  0.20268796609E+04  0.00000000000E+00 0. -1.
    2000013    1    1    2    0    0 -0.42741245553E+03  0.72972643887E+03 -0.79777398600E+03  0.15013745087E+04  0.95000000000E+03 0.  0.
   -2000013    1    1    2    0    0  0.42741245553E+03 -0.72972643887E+03 -0.41632510450E+03  0.13382857226E+04  0.95000000000E+03 0.  0.
<mgrwt>
<rscale>  0 0.25670282E+04</rscale>
<asrwt>0</asrwt>
<pdfrwt beam="1">  1        2 0.12504317E+00 0.25670282E+04</pdfrwt>
<pdfrwt beam="2">  1       -2 0.31182764E+00 0.25670282E+04</pdfrwt>
<totfact> 0.80447994E-01</totfact>
</mgrwt>
</event>
<event>
 4    1  0.1295381E-008  0.2052464E+04  0.7816531E-02  0.8582477E-01
         -1   -1    0    0    0  501 -0.00000000000E+00  0.00000000000E+00  0.40713709428E+03  0.40713709428E+03  0.00000000000E+00 0. -1.
          1   -1    0    0  501    0  0.00000000000E+00 -0.00000000000E+00 -0.25867258415E+04  0.25867258415E+04  0.00000000000E+00 0.  1.
    2000013    1    1    2    0    0  0.26913859821E+03  0.35624550320E+01 -0.68187886563E+03  0.11999612758E+04  0.95000000000E+03 0.  0.
   -2000013    1    1    2    0    0 -0.26913859821E+03 -0.35624550320E+01 -0.14977098816E+04  0.17939016600E+04  0.95000000000E+03 0.  0.
<mgrwt>
<rscale>  0 0.20524639E+04</rscale>
<asrwt>0</asrwt>
<pdfrwt beam="2">  1        1 0.39795783E+00 0.20524639E+04</pdfrwt>
<pdfrwt beam="1">  1       -1 0.62636475E-01 0.20524639E+04</pdfrwt>
<totfact> 0.28156605E+00</totfact>
</mgrwt>
</event>
<event>
 4    1  0.1295381E-008  0.3305978E+04  0.7816531E-02  0.8161376E-01
          2   -1    0    0  501    0  0.00000000000E+00  0.00000000000E+00  0.23196766037E+04  0.23196766037E+04  0.00000000000E+00 0.  1.
         -2   -1    0    0    0  501 -0.00000000000E+00 -0.00000000000E+00 -0.11779110119E+04  0.11779110119E+04  0.00000000000E+00 0. -1.
    2000013    1    1    2    0    0  0.10613835216E+04 -0.62637727407E+03 -0.19102598773E+02  0.15561967674E+04  0.95000000000E+03 0.  0.
   -2000013    1    1    2    0    0 -0.10613835216E+04  0.62637727407E+03  0.11608681906E+04  0.19413908482E+04  0.95000000000E+03 0.  0.
<mgrwt>
<rscale>  0 0.33059780E+04</rscale>
<asrwt>0</asrwt>
<pdfrwt beam="1">  1        2 0.35687332E+00 0.33059780E+04</pdfrwt>
<pdfrwt beam="2">  1       -2 0.18121708E+00 0.33059780E+04</pdfrwt>
<totfact> 0.65597734E-01</totfact>
</mgrwt>
</event>
<event>
 4    1  0.1295381E-008  0.2138574E+04  0.7816531E-02  0.8544439E-01
          2   -1    0    0  501    0  0.00000000000E+00  0.00000000000E+00  0.22412073256E+04  0.22412073256E+04  0.00000000000E+00 0. -1.
         -2   -1    0    0    0  501 -0.00000000000E+00 -0.00000000000E+00 -0.51016019664E+03  0.51016019664E+03  0.00000000000E+00 0.  1.
    2000013    1    1    2    0    0 -0.45071123942E+03 -0.12650100798E+03  0.10551813151E+04  0.14950086067E+04  0.95000000000E+03 0.  0.
   -2000013    1    1    2    0    0  0.45071123942E+03  0.12650100798E+03  0.67586581392E+03  0.12563589156E+04  0.95000000000E+03 0.  0.
<mgrwt>
<rscale>  0 0.21385741E+04</rscale>
<asrwt>0</asrwt>
<pdfrwt beam="1">  1        2 0.34480112E+00 0.21385741E+04</pdfrwt>
<pdfrwt beam="2">  1       -2 0.78486185E-01 0.21385741E+04</pdfrwt>
<totfact> 0.64878191E+00</totfact>
</mgrwt>
</event>
<event>
 4    1  0.1295381E-008  0.2927842E+04  0.7816531E-02  0.8264641E-01
         -2   -1    0    0    0  501 -0.00000000000E+00  0.00000000000E+00  0.10309945746E+04  0.10309945746E+04  0.00000000000E+00 0.  1.
          2   -1    0    0  501    0  0.00000000000E+00 -0.00000000000E+00 -0.20786387078E+04  0.20786387078E+04  0.00000000000E+00 0. -1.
    2000013    1    1    2    0    0  0.43355195904E+03  0.97208238577E+03 -0.17534348103E+03  0.14374132329E+04  0.95000000000E+03 0.  0.
   -2000013    1    1    2    0    0 -0.43355195904E+03 -0.97208238577E+03 -0.87230065221E+03  0.16722200494E+04  0.95000000000E+03 0.  0.
<mgrwt>
<rscale>  0 0.29278424E+04</rscale>
<asrwt>0</asrwt>
<pdfrwt beam="2">  1        2 0.31979056E+00 0.29278424E+04</pdfrwt>
<pdfrwt beam="1">  1       -2 0.15861455E+00 0.29278424E+04</pdfrwt>
<totfact> 0.13414509E+00</totfact>
</mgrwt>
</event>
<event>
 4    1  0.1295381E-008  0.2762673E+04  0.7816531E-02  0.8314951E-01
         -2   -1    0    0    0  501 -0.00000000000E+00  0.00000000000E+00  0.56781739827E+03  0.56781739827E+03  0.00000000000E+00 0. -1.
          2   -1    0    0  501    0  0.00000000000E+00 -0.00000000000E+00 -0.33603947736E+04  0.33603947736E+04  0.00000000000E+00 0.  1.
    2000013    1    1    2    0    0 -0.89486224949E+03 -0.45147171081E+03 -0.13516525786E+04  0.19323741471E+04  0.95000000000E+03 0.  0.
   -2000013    1    1    2    0    0  0.89486224949E+03  0.45147171081E+03 -0.14409247968E+04  0.19958380248E+04  0.95000000000E+03 0.  0.
<mgrwt>
<rscale>  0 0.27626731E+04</rscale>
<asrwt>0</asrwt>
<pdfrwt beam="2">  1        2 0.51698382E+00 0.27626731E+04</pdfrwt>
<pdfrwt beam="1">  1       -2 0.87356521E-01 0.27626731E+04</pdfrwt>
<totfact> 0.10019798E+00</totfact>
</mgrwt>
</event>
<event>
 4    1  0.1295381E-008  0.2466029E+04  0.7816531E-02  0.8415189E-01
         -2   -1    0    0    0  501 -0.00000000000E+00  0.00000000000E+00  0.85221600721E+03  0.85221600721E+03  0.00000000000E+00 0. -1.
          2   -1    0    0  501    0  0.00000000000E+00 -0.00000000000E+00 -0.17839661231E+04  0.17839661231E+04  0.00000000000E+00 0.  1.
    2000013    1    1    2    0    0 -0.69383752263E+03 -0.34981773302E+03 -0.33920192198E+03  0.12733188517E+04  0.95000000000E+03 0.  0.
   -2000013    1    1    2    0    0  0.69383752263E+03  0.34981773302E+03 -0.59254819388E+03  0.13628632786E+04  0.95000000000E+03 0.  0.
<mgrwt>
<rscale>  0 0.24660288E+04</rscale>
<asrwt>0</asrwt>
<pdfrwt beam="2">  1        2 0.27445632E+00 0.24660288E+04</pdfrwt>
<pdfrwt beam="1">  1       -2 0.13111016E+00 0.24660288E+04</pdfrwt>
<totfact> 0.33484470E+00</totfact>
</mgrwt>
</event>
<event>
 4    1  0.1295381E-008  0.1978158E+04  0.7816531E-02  0.8616901E-01
         -1   -1    0    0    0  501 -0.00000000000E+00  0.00000000000E+00  0.49895755311E+03  0.49895755311E+03  0.00000000000E+00 0. -1.
          1   -1    0    0  501    0  0.00000000000E+00 -0.00000000000E+00 -0.19606424130E+04  0.19606424130E+04  0.00000000000E+00 0.  1.
    2000013    1    1    2    0    0 -0.24965645188E+03 -0.33666876261E+02 -0.86882689275E+03  0.13118010413E+04  0.95000000000E+03 0.  0.
   -2000013    1    1    2    0    0  0.24965645188E+03  0.33666876261E+02 -0.59285796720E+03  0.11477989248E+04  0.95000000000E+03 0.  0.
<mgrwt>
<rscale>  0 0.19781581E+04</rscale>
<asrwt>0</asrwt>
<pdfrwt beam="2">  1        1 0.30163729E+00 0.19781581E+04</pdfrwt>
<pdfrwt beam="1">  1       -1 0.76762702E-01 0.19781581E+04</pdfrwt>
<totfact> 0.50146145E+00</totfact>
</mgrwt>
</event>
<event>
 4    1  0.1295381E-008  0.3775211E+04  0.7816531E-02  0.8051496E-01
          2   -1    0    0  501    0  0.00000000000E+00  0.00000000000E+00  0.18065763629E+04  0.18065763629E+04  0.00000000000E+00 0.  1.
         -2   -1    0    0    0  501 -0.00000000000E+00 -0.00000000000E+00 -0.19722688264E+04  0.19722688264E+04  0.00000000000E+00 0. -1.
    2000013    1    1    2    0    0 -0.23716698709E+03 -0.15746493920E+04 -0.43643600689E+03  0.19049265801E+04  0.95000000000E+03 0.  0.
   -2000013    1    1    2    0    0  0.23716698709E+03  0.15746493920E+04  0.27074354337E+03  0.18739186091E+04  0.95000000000E+03 0.  0.
<mgrwt>
<rscale>  0 0.37752109E+04</rscale>
<asrwt>0</asrwt>
<pdfrwt beam="1">  1        2 0.27793483E+00 0.37752109E+04</pdfrwt>
<pdfrwt beam="2">  1       -2 0.30342597E+00 0.37752109E+04</pdfrwt>
<totfact> 0.20818268E-01</totfact>
</mgrwt>
</event>
<event>
 4    1  0.1295381E-008  0.2376812E+04  0.7816531E-02  0.8448236E-01
         -2   -1    0    0    0  501 -0.00000000000E+00  0.00000000000E+00  0.20015212121E+04  0.20015212121E+04  0.00000000000E+00 0. -1.
          2   -1    0    0  501    0  0.00000000000E+00 -0.00000000000E+00 -0.70561743344E+03  0.70561743344E+03  0.00000000000E+00 0.  1.
    2000013    1    1    2    0    0 -0.62796582436E+03  0.59790037678E+02  0.10289439475E+04  0.15359497297E+04  0.95000000000E+03 0.  0.
   -2000013    1    1    2    0    0  0.62796582436E+03 -0.59790037678E+02  0.26695983125E+03  0.11711889159E+04  0.95000000000E+03 0.  0.
<mgrwt>
<rscale>  0 0.23768115E+04</rscale>
<asrwt>0</asrwt>
<pdfrwt beam="2">  1        2 0.10855653E+00 0.23768115E+04</pdfrwt>
<pdfrwt beam="1">  1       -2 0.30792634E+00 0.23768115E+04</pdfrwt>
<totfact> 0.10388124E+00</totfact>
</mgrwt>
</event>
<event>
 4    1  0.1295381E-008  0.3189583E+04  0.7816531E-02  0.8191574E-01
         -2   -1    0    0    0  501 -0.00000000000E+00  0.00000000000E+00  0.89239800958E+03  0.89239800958E+03  0.00000000000E+00 0. -1.
          2   -1    0    0  501    0  0.00000000000E+00 -0.00000000000E+00 -0.28500290320E+04  0.28500290320E+04  0.00000000000E+00 0.  1.
    2000013    1    1    2    0    0  0.49585514596E+02 -0.12287068074E+04 -0.13997134317E+04  0.20913815607E+04  0.95000000000E+03 0.  0.
   -2000013    1    1    2    0    0 -0.49585514596E+02  0.12287068074E+04 -0.55791759072E+03  0.16510454808E+04  0.95000000000E+03 0.  0.
<mgrwt>
<rscale>  0 0.31895832E+04</rscale>
<asrwt>0</asrwt>
<pdfrwt beam="2">  1        2 0.43846600E+00 0.31895832E+04</pdfrwt>
<pdfrwt beam="1">  1       -2 0.13729200E+00 0.31895832E+04</pdfrwt>
<totfact> 0.68614529E-01</totfact>
</mgrwt>
</event>
<event>
 4    1  0.1295381E-008  0.2551784E+04  0.7816531E-02  0.8384766E-01
         -1   -1    0    0    0  501 -0.00000000000E+00  0.00000000000E+00  0.53912064040E+03  0.53912064040E+03  0.00000000000E+00 0. -1.
          1   -1    0    0  501    0  0.00000000000E+00 -0.00000000000E+00 -0.30195465129E+04  0.30195465129E+04  0.00000000000E+00 0.  1.
    2000013    1    1    2    0    0  0.25471802127E+03  0.63413968783E+03 -0.19491008106E+04  0.22734353706E+04  0.95000000000E+03 0.  0.
   -2000013    1    1    2    0    0 -0.25471802127E+03 -0.63413968783E+03 -0.53132506186E+03  0.12852317828E+04  0.95000000000E+03 0.  0.
<mgrwt>
<rscale>  0 0.25517836E+04</rscale>
<asrwt>0</asrwt>
<pdfrwt beam="2">  1        1 0.46454562E+00 0.25517836E+04</pdfrwt>
<pdfrwt beam="1">  1       -1 0.82941637E-01 0.25517836E+04</pdfrwt>
<totfact> 0.73840860E-01</totfact>
</mgrwt>
</event>
<event>
 4    1  0.1295381E-008  0.3023550E+04  0.7816531E-02  0.8237038E-01
          2   -1    0    0  501    0  0.00000000000E+00  0.00000000000E+00  0.31151526201E+04  0.31151526201E+04  0.00000000000E+00 0.  1.
         -2   -1    0    0    0  501 -0.00000000000E+00 -0.00000000000E+00 -0.73366028955E+03  0.73366028955E+03  0.00000000000E+00 0. -1.
    2000013    1    1    2    0    0  0.94621754379E+03  0.27125307343E+03  0.37164004043E+03  0.14175761672E+04  0.95000000000E+03 0.  0.
   -2000013    1    1    2    0    0 -0.94621754379E+03 -0.27125307343E+03  0.20098522901E+04  0.24312367425E+04  0.95000000000E+03 0.  0.
<mgrwt>
<rscale>  0 0.30235501E+04</rscale>
<asrwt>0</asrwt>
<pdfrwt beam="1">  1        2 0.47925424E+00 0.30235501E+04</pdfrwt>
<pdfrwt beam="2">  1       -2 0.11287082E+00 0.30235501E+04</pdfrwt>
<totfact> 0.77538545E-01</totfact>
</mgrwt>
</event>
<event>
 4    1  0.1295381E-008  0.2580256E+04  0.7816531E-02  0.8374939E-01
          2   -1    0    0  501    0  0.00000000000E+00  0.00000000000E+00  0.19973120062E+04  0.19973120062E+04  0.00000000000E+00 0.  1.
         -2   -1    0    0    0  501 -0.00000000000E+00 -0.00000000000E+00 -0.83333502616E+03  0.83333502616E+03  0.00000000000E+00 0. -1.
    2000013    1    1    2    0    0  0.51135580804E+03 -0.35288462103E+03  0.12546078382E+04  0.16919081376E+04  0.95000000000E+03 0.  0.
   -2000013    1    1    2    0    0 -0.51135580804E+03  0.35288462103E+03 -0.90630858162E+02  0.11387388948E+04  0.95000000000E+03 0.  0.
<mgrwt>
<rscale>  0 0.25802558E+04</rscale>
<asrwt>0</asrwt>
<pdfrwt beam="1">  1        2 0.30727877E+00 0.25802558E+04</pdfrwt>
<pdfrwt beam="2">  1       -2 0.12820539E+00 0.25802558E+04</pdfrwt>
<totfact> 0.26721863E+00</totfact>
</mgrwt>
</event>
<event>
 4    1  0.1295381E-008  0.2341910E+04  0.7816531E-02  0.8461577E-01
         -2   -1    0    0    0  501 -0.00000000000E+00  0.00000000000E+00  0.12445007306E+04  0.12445007306E+04  0.00000000000E+00 0. -1.
          2   -1    0    0  501    0  0.00000000000E+00 -0.00000000000E+00 -0.11017559738E+04  0.11017559738E+04  0.00000000000E+00 0.  1.
    2000013    1    1    2    0    0 -0.35587477783E+03 -0.27137084181E+03  0.59035607819E+03  0.12047029884E+04  0.95000000000E+03 0.  0.
   -2000013    1    1    2    0    0  0.35587477783E+03  0.27137084181E+03 -0.44761132138E+03  0.11415537159E+04  0.95000000000E+03 0.  0.
<mgrwt>
<rscale>  0 0.23419104E+04</rscale>
<asrwt>0</asrwt>
<pdfrwt beam="2">  1        2 0.16950092E+00 0.23419104E+04</pdfrwt>
<pdfrwt beam="1">  1       -2 0.19146165E+00 0.23419104E+04</pdfrwt>
<totfact> 0.29752262E+00</totfact>
</mgrwt>
</event>
<event>
 4    1  0.1295381E-008  0.2050660E+04  0.7816531E-02  0.8583295E-01
         -2   -1    0    0    0  501 -0.00000000000E+00  0.00000000000E+00  0.28363826109E+03  0.28363826109E+03  0.00000000000E+00 0. -1.
          2   -1    0    0  501    0  0.00000000000E+00 -0.00000000000E+00 -0.37064887881E+04  0.37064887881E+04  0.00000000000E+00 0.  1.
    2000013    1    1    2    0    0 -0.23415343182E+03 -0.30026101339E+03 -0.18316473163E+04  0.20981936034E+04  0.95000000000E+03 0.  0.
   -2000013    1    1    2    0    0  0.23415343182E+03  0.30026101339E+03 -0.15912032107E+04  0.18919334459E+04  0.95000000000E+03 0.  0.
<mgrwt>
<rscale>  0 0.20506604E+04</rscale>
<asrwt>0</asrwt>
<pdfrwt beam="2">  1        2 0.57022900E+00 0.20506604E+04</pdfrwt>
<pdfrwt beam="1">  1       -2 0.43636659E-01 0.20506604E+04</pdfrwt>
<totfact> 0.26780131E+00</totfact>
</mgrwt>
</event>
<event>
 4    1  0.1295381E-008  0.3174881E+04  0.7816531E-02  0.8195483E-01
         -2   -1    0    0    0  501 -0.00000000000E+00  0.00000000000E+00  0.14550284917E+04  0.14550284917E+04  0.00000000000E+00 0. -1.
          2   -1    0    0  501    0  0.00000000000E+00 -0.00000000000E+00 -0.17319018705E+04  0.17319018705E+04  0.00000000000E+00 0.  1.
    2000013    1    1    2    0    0 -0.41199219588E+02  0.11903243362E+04 -0.58610822918E+03  0.16323578827E+04  0.95000000000E+03 0.  0.
   -2000013    1    1    2    0    0  0.41199219588E+02 -0.11903243362E+04  0.30923485042E+03  0.15545724794E+04  0.95000000000E+03 0.  0.
<mgrwt>
<rscale>  0 0.31748805E+04</rscale>
<asrwt>0</asrwt>
<pdfrwt beam="2">  1        2 0.26644644E+00 0.31748805E+04</pdfrwt>
<pdfrwt beam="1">  1       -2 0.22385054E+00 0.31748805E+04</pdfrwt>
<totfact> 0.74239010E-01</totfact>
</mgrwt>
</event>
<event>
 4    1  0.1295381E-008  0.3103907E+04  0.7816531E-02  0.8214667E-01
         -2   -1    0    0    0  501 -0.00000000000E+00  0.00000000000E+00  0.80484610924E+03  0.80484610924E+03  0.00000000000E+00 0. -1.
          2   -1    0    0  501    0  0.00000000000E+00 -0.00000000000E+00 -0.29925709626E+04  0.29925709626E+04  0.00000000000E+00 0.  1.
    2000013    1    1    2    0    0  0.97974695562E+03 -0.69200990226E+03 -0.77653039881E+03  0.17158908072E+04  0.95000000000E+03 0.  0.
   -2000013    1    1    2    0    0 -0.97974695562E+03  0.69200990226E+03 -0.14111944545E+04  0.20815262646E+04  0.95000000000E+03 0.  0.
<mgrwt>
<rscale>  0 0.31039066E+04</rscale>
<asrwt>0</asrwt>
<pdfrwt beam="2">  1        2 0.46039554E+00 0.31039066E+04</pdfrwt>
<pdfrwt beam="1">  1       -2 0.12382248E+00 0.31039066E+04</pdfrwt>
<totfact> 0.73294432E-01</totfact>
</mgrwt>
</event>
<event>
 4    1  0.1295381E-008  0.2182367E+04  0.7816531E-02  0.8525803E-01
          2   -1    0    0  501    0  0.00000000000E+00  0.00000000000E+00  0.13292274928E+04  0.13292274928E+04  0.00000000000E+00 0. -1.
         -2   -1    0    0    0  501 -0.00000000000E+00 -0.00000000000E+00 -0.89576964882E+03  0.89576964882E+03  0.00000000000E+00 0.  1.
    2000013    1    1    2    0    0  0.41215808595E+03 -0.10880142455E+03  0.54939954943E+03  0.11773070554E+04  0.95000000000E+03 0.  0.
   -2000013    1    1    2    0    0 -0.41215808595E+03  0.10880142455E+03 -0.11594170541E+03  0.10476900863E+04  0.95000000000E+03 0.  0.
<mgrwt>
<rscale>  0 0.21823672E+04</rscale>
<asrwt>0</asrwt>
<pdfrwt beam="1">  1        2 0.20449654E+00 0.21823672E+04</pdfrwt>
<pdfrwt beam="2">  1       -2 0.13781071E+00 0.21823672E+04</pdfrwt>
<totfact> 0.54452041E+00</totfact>
</mgrwt>
</event>
<event>
 4    1  0.1295381E-008  0.3138632E+04  0.7816531E-02  0.8205215E-01
         -2   -1    0    0    0  501 -0.00000000000E+00  0.00000000000E+00  0.81887705673E+03  0.81887705673E+03  0.00000000000E+00 0. -1.
          2   -1    0    0  501    0  0.00000000000E+00 -0.00000000000E+00 -0.30074748662E+04  0.30074748662E+04  0.00000000000E+00 0.  1.
    2000013    1    1    2    0    0  0.88393399949E+03  0.83967829961E+03 -0.76299295736E+03  0.17236754959E+04  0.95000000000E+03 0.  0.
   -2000013    1    1    2    0    0 -0.88393399949E+03 -0.83967829961E+03 -0.14256048521E+04  0.21026764270E+04  0.95000000000E+03 0.  0.
<mgrwt>
<rscale>  0 0.31386317E+04</rscale>
<asrwt>0</asrwt>
<pdfrwt beam="2">  1        2 0.46268843E+00 0.31386317E+04</pdfrwt>
<pdfrwt beam="1">  1       -2 0.12598109E+00 0.31386317E+04</pdfrwt>
<totfact> 0.68487980E-01</totfact>
</mgrwt>
</event>
<event>
 4    1  0.1295381E-008  0.2394488E+04  0.7816531E-02  0.8441570E-01
         -2   -1    0    0    0  501 -0.00000000000E+00  0.00000000000E+00  0.48016791798E+03  0.48016791798E+03  0.00000000000E+00 0. -1.
          2   -1    0    0  501    0  0.00000000000E+00 -0.00000000000E+00 -0.29851910881E+04  0.29851910881E+04  0.00000000000E+00 0.  1.
    2000013    1    1    2    0    0  0.68221356475E+03 -0.12368394105E+03 -0.15767023214E+04  0.19670290480E+04  0.95000000000E+03 0.  0.
   -2000013    1    1    2    0    0 -0.68221356475E+03  0.12368394105E+03 -0.92832084866E+03  0.14983299581E+04  0.95000000000E+03 0.  0.
<mgrwt>
<rscale>  0 0.23944878E+04</rscale>
<asrwt>0</asrwt>
<pdfrwt beam="2">  1        2 0.45926017E+00 0.23944878E+04</pdfrwt>
<pdfrwt beam="1">  1       -2 0.73871986E-01 0.23944878E+04</pdfrwt>
<totfact> 0.26437100E+00</totfact>
</mgrwt>
</event>
<event>
 4    1  0.1295381E-008  0.2669776E+04  0.7816531E-02  0.8344879E-01
          2   -1    0    0  501    0  0.00000000000E+00  0.00000000000E+00  0.18334257078E+04  0.18334257078E+04  0.00000000000E+00 0.  1.
         -2   -1    0    0    0  501 -0.00000000000E+00 -0.00000000000E+00 -0.97191084989E+03  0.97191084989E+03  0.00000000000E+00 0. -1.
    2000013    1    1    2    0    0  0.47148109911E+03  0.77157691313E+03  0.16953661595E+03  0.13224477396E+04  0.95000000000E+03 0.  0.
   -2000013    1    1    2    0    0 -0.47148109911E+03 -0.77157691313E+03  0.69197824199E+03  0.14828888182E+04  0.95000000000E+03 0.  0.
<mgrwt>
<rscale>  0 0.26697763E+04</rscale>
<asrwt>0</asrwt>
<pdfrwt beam="1">  1        2 0.28206549E+00 0.26697763E+04</pdfrwt>
<pdfrwt beam="2">  1       -2 0.14952475E+00 0.26697763E+04</pdfrwt>
<totfact> 0.21973497E+00</totfact>
</mgrwt>
</event>
<event>
 4    1  0.1295381E-008  0.3672287E+04  0.7816531E-02  0.8074131E-01
          2   -1    0    0  501    0  0.00000000000E+00  0.00000000000E+00  0.19003986779E+04  0.19003986779E+04  0.00000000000E+00 0.  1.
         -2   -1    0    0    0  501 -0.00000000000E+00 -0.00000000000E+00 -0.17740608672E+04  0.17740608672E+04  0.00000000000E+00 0. -1.
    2000013    1    1    2    0    0  0.14974204644E+04 -0.46762808199E+03 -0.26208384241E+02  0.18341567407E+04  0.95000000000E+03 0.  0.
   -2000013    1    1    2    0    0 -0.14974204644E+04  0.46762808199E+03  0.15254619485E+03  0.18403028044E+04  0.95000000000E+03 0.  0.
<mgrwt>
<rscale>  0 0.36722870E+04</rscale>
<asrwt>0</asrwt>
<pdfrwt beam="1">  1        2 0.29236903E+00 0.36722870E+04</pdfrwt>
<pdfrwt beam="2">  1       -2 0.27293244E+00 0.36722870E+04</pdfrwt>
<totfact> 0.28601146E-01</totfact>
</mgrwt>
</event>
<event>
 4    1  0.1295381E-008  0.1946247E+04  0.7816531E-02  0.8632173E-01
          2   -1    0    0  501    0  0.00000000000E+00  0.00000000000E+00  0.27046771477E+04  0.27046771477E+04  0.00000000000E+00 0.  1.
         -2   -1    0    0    0  501 -0.00000000000E+00 -0.00000000000E+00 -0.35012277582E+03  0.35012277582E+03  0.00000000000E+00 0. -1.
    2000013    1    1    2    0    0  0.16176216746E+03 -0.70115753520E+02  0.99568050660E+03  0.13874303186E+04  0.95000000000E+03 0.  0.
   -2000013    1    1    2    0    0 -0.16176216746E+03  0.70115753520E+02  0.13588738653E+04  0.16673696050E+04  0.95000000000E+03 0.  0.
<mgrwt>
<rscale>  0 0.19462467E+04</rscale>
<asrwt>0</asrwt>
<pdfrwt beam="1">  1        2 0.41610416E+00 0.19462467E+04</pdfrwt>
<pdfrwt beam="2">  1       -2 0.53865044E-01 0.19462467E+04</pdfrwt>
<totfact> 0.80040837E+00</totfact>
</mgrwt>
</event>
<event>
 4    1  0.1295381E-008  0.2096673E+04  0.7816531E-02  0.8562710E-01
          2   -1    0    0  501    0  0.00000000000E+00  0.00000000000E+00  0.92034686049E+03  0.92034686049E+03  0.00000000000E+00 0.  1.
         -2   -1    0    0    0  501 -0.00000000000E+00 -0.00000000000E+00 -0.11941250586E+04  0.11941250586E+04  0.00000000000E+00 0. -1.
    2000013    1    1    2    0    0  0.41889427755E+03  0.13247519734E+03 -0.77335655551E+02  0.10495250818E+04  0.95000000000E+03 0.  0.
   -2000013    1    1    2    0    0 -0.41889427755E+03 -0.13247519734E+03 -0.19644254252E+03  0.10649468373E+04  0.95000000000E+03 0.  0.
<mgrwt>
<rscale>  0 0.20966728E+04</rscale>
<asrwt>0</asrwt>
<pdfrwt beam="1">  1        2 0.14159182E+00 0.20966728E+04</pdfrwt>
<pdfrwt beam="2">  1       -2 0.18371155E+00 0.20966728E+04</pdfrwt>
<totfact> 0.44762458E+00</totfact>
</mgrwt>
</event>
<event>
 4    1  0.1295381E-008  0.2906686E+04  0.7816531E-02  0.8270891E-01
          2   -1    0    0  501    0  0.00000000000E+00  0.00000000000E+00  0.33548282788E+04  0.33548282788E+04  0.00000000000E+00 0.  1.
         -2   -1    0    0    0  501 -0.00000000000E+00 -0.00000000000E+00 -0.62960187487E+03  0.62960187487E+03  0.00000000000E+00 0. -1.
    2000013    1    1    2    0    0  0.95208168342E+03 -0.43270399587E+03  0.89571406504E+03  0.16728705767E+04  0.95000000000E+03 0.  0.
   -2000013    1    1    2    0    0 -0.95208168342E+03  0.43270399587E+03  0.18295123389E+04  0.23115595770E+04  0.95000000000E+03 0.  0.
<mgrwt>
<rscale>  0 0.29066862E+04</rscale>
<asrwt>0</asrwt>
<pdfrwt beam="1">  1        2 0.51612741E+00 0.29066862E+04</pdfrwt>
<pdfrwt beam="2">  1       -2 0.96861829E-01 0.29066862E+04</pdfrwt>
<totfact> 0.78560193E-01</totfact>
</mgrwt>
</event>
<event>
 4    1  0.1295381E-008  0.2250128E+04  0.7816531E-02  0.8497849E-01
         -2   -1    0    0    0  501 -0.00000000000E+00  0.00000000000E+00  0.12046655487E+04  0.12046655487E+04  0.00000000000E+00 0. -1.
          2   -1    0    0  501    0  0.00000000000E+00 -0.00000000000E+00 -0.10507221542E+04  0.10507221542E+04  0.00000000000E+00 0.  1.
    2000013    1    1    2    0    0  0.38147529507E+03  0.93047606248E+02 -0.38135808769E+03  0.10964101645E+04  0.95000000000E+03 0.  0.
   -2000013    1    1    2    0    0 -0.38147529507E+03 -0.93047606248E+02  0.53530148215E+03  0.11589775384E+04  0.95000000000E+03 0.  0.
<mgrwt>
<rscale>  0 0.22501278E+04</rscale>
<asrwt>0</asrwt>
<pdfrwt beam="2">  1        2 0.16164956E+00 0.22501278E+04</pdfrwt>
<pdfrwt beam="1">  1       -2 0.18533316E+00 0.22501278E+04</pdfrwt>
<totfact> 0.35474654E+00</totfact>
</mgrwt>
</event>
<event>
 4    1  0.1295381E-008  0.2140789E+04  0.7816531E-02  0.8543486E-01
         -2   -1    0    0    0  501 -0.00000000000E+00  0.00000000000E+00  0.11529395874E+04  0.11529395874E+04  0.00000000000E+00 0. -1.
          2   -1    0    0  501    0  0.00000000000E+00 -0.00000000000E+00 -0.99375879821E+03  0.99375879821E+03  0.00000000000E+00 0.  1.
    2000013    1    1    2    0    0 -0.37745385225E+02  0.37721813209E+03  0.39593812480E+03  0.10968068344E+04  0.95000000000E+03 0.  0.
   -2000013    1    1    2    0    0  0.37745385225E+02 -0.37721813209E+03 -0.23675733564E+03  0.10498915512E+04  0.95000000000E+03 0.  0.
<mgrwt>
<rscale>  0 0.21407885E+04</rscale>
<asrwt>0</asrwt>
<pdfrwt beam="2">  1        2 0.15288597E+00 0.21407885E+04</pdfrwt>
<pdfrwt beam="1">  1       -2 0.17737532E+00 0.21407885E+04</pdfrwt>
<totfact> 0.44146319E+00</totfact>
</mgrwt>
</event>
<event>
 4    1  0.1295381E-008  0.2691439E+04  0.7816531E-02  0.8337788E-01
         -2   -1    0    0    0  501 -0.00000000000E+00  0.00000000000E+00  0.10753621788E+04  0.10753621788E+04  0.00000000000E+00 0. -1.
          2   -1    0    0  501    0  0.00000000000E+00 -0.00000000000E+00 -0.16840478190E+04  0.16840478190E+04  0.00000000000E+00 0.  1.
    2000013    1    1    2    0    0 -0.86699897095E+03 -0.13971817772E+01  0.10160117904E+03  0.12901596674E+04  0.95000000000E+03 0.  0.
   -2000013    1    1    2    0    0  0.86699897095E+03  0.13971817772E+01 -0.71028681923E+03  0.14692503304E+04  0.95000000000E+03 0.  0.
<mgrwt>
<rscale>  0 0.26914393E+04</rscale>
<asrwt>0</asrwt>
<pdfrwt beam="2">  1        2 0.25908428E+00 0.26914393E+04</pdfrwt>
<pdfrwt beam="1">  1       -2 0.16544034E+00 0.26914393E+04</pdfrwt>
<totfact> 0.20199053E+00</totfact>
</mgrwt>
</event>
<event>
 4    1  0.1295381E-008  0.2576834E+04  0.7816531E-02  0.8376113E-01
          2   -1    0    0  501    0  0.00000000000E+00  0.00000000000E+00  0.26470225760E+04  0.26470225760E+04  0.00000000000E+00 0.  1.
         -2   -1    0    0    0  501 -0.00000000000E+00 -0.00000000000E+00 -0.62712667774E+03  0.62712667774E+03  0.00000000000E+00 0. -1.
    2000013    1    1    2    0    0  0.43443714538E+03  0.23103275589E+03  0.19221416090E+04  0.21998272961E+04  0.95000000000E+03 0.  0.
   -2000013    1    1    2    0    0 -0.43443714538E+03 -0.23103275589E+03  0.97754289238E+02  0.10743219576E+04  0.95000000000E+03 0.  0.
<mgrwt>
<rscale>  0 0.25768341E+04</rscale>
<asrwt>0</asrwt>
<pdfrwt beam="1">  1        2 0.40723424E+00 0.25768341E+04</pdfrwt>
<pdfrwt beam="2">  1       -2 0.96481029E-01 0.25768341E+04</pdfrwt>
<totfact> 0.22737991E+00</totfact>
</mgrwt>
</event>
<event>
 4    1  0.1295381E-008  0.2518155E+04  0.7816531E-02  0.8396546E-01
          2   -1    0    0  501    0  0.00000000000E+00  0.00000000000E+00  0.10212455457E+04  0.10212455457E+04  0.00000000000E+00 0.  1.
         -2   -1    0    0    0  501 -0.00000000000E+00 -0.00000000000E+00 -0.15522966046E+04  0.15522966046E+04  0.00000000000E+00 0. -1.
    2000013    1    1    2    0    0  0.35041516457E+03 -0.68171663726E+03 -0.58093588080E+03  0.13518560791E+04  0.95000000000E+03 0.  0.
   -2000013    1    1    2    0    0 -0.35041516457E+03  0.68171663726E+03  0.49884821890E+02  0.12216860712E+04  0.95000000000E+03 0.  0.
<mgrwt>
<rscale>  0 0.25181549E+04</rscale>
<asrwt>0</asrwt>
<pdfrwt beam="1">  1        2 0.15711470E+00 0.25181549E+04</pdfrwt>
<pdfrwt beam="2">  1       -2 0.23881486E+00 0.25181549E+04</pdfrwt>
<totfact> 0.16376271E+00</totfact>
</mgrwt>
</event>
<event>
 4    1  0.1295381E-008  0.3078205E+04  0.7816531E-02  0.8221745E-01
         -2   -1    0    0    0  501 -0.00000000000E+00  0.00000000000E+00  0.11527365821E+04  0.11527365821E+04  0.00000000000E+00 0. -1.
          2   -1    0    0  501    0  0.00000000000E+00 -0.00000000000E+00 -0.20549678465E+04  0.20549678465E+04  0.00000000000E+00 0.  1.
    2000013    1    1    2    0    0 -0.24399019923E+03  0.11450233175E+04 -0.77352972108E+03  0.16945376492E+04  0.95000000000E+03 0.  0.
   -2000013    1    1    2    0    0  0.24399019923E+03 -0.11450233175E+04 -0.12870154338E+03  0.15131667794E+04  0.95000000000E+03 0.  0.
<mgrwt>
<rscale>  0 0.30782051E+04</rscale>
<asrwt>0</asrwt>
<pdfrwt beam="2">  1        2 0.31614890E+00 0.30782051E+04</pdfrwt>
<pdfrwt beam="1">  1       -2 0.17734409E+00 0.30782051E+04</pdfrwt>
<totfact> 0.10019687E+00</totfact>
</mgrwt>
</event>
<event>
 4    1  0.1295381E-008  0.2369233E+04  0.7816531E-02  0.8451113E-01
          2   -1    0    0  501    0  0.00000000000E+00  0.00000000000E+00  0.18889440102E+04  0.18889440102E+04  0.00000000000E+00 0.  1.
         -2   -1    0    0    0  501 -0.00000000000E+00 -0.00000000000E+00 -0.74291066816E+03  0.74291066816E+03  0.00000000000E+00 0. -1.
    2000013    1    1    2    0    0  0.36251525161E+03 -0.54590604583E+03  0.27621905682E+03  0.11866876952E+04  0.95000000000E+03 0.  0.
   -2000013    1    1    2    0    0 -0.36251525161E+03  0.54590604583E+03  0.86981428521E+03  0.14451669832E+04  0.95000000000E+03 0.  0.
<mgrwt>
<rscale>  0 0.23692333E+04</rscale>
<asrwt>0</asrwt>
<pdfrwt beam="1">  1        2 0.29060677E+00 0.23692333E+04</pdfrwt>
<pdfrwt beam="2">  1       -2 0.11429395E+00 0.23692333E+04</pdfrwt>
<totfact> 0.41560453E+00</totfact>
</mgrwt>
</event>
<event>
 4    1  0.1295381E-008  0.3066129E+04  0.7816531E-02  0.8225096E-01
          2   -1    0    0  501    0  0.00000000000E+00  0.00000000000E+00  0.23400066375E+04  0.23400066375E+04  0.00000000000E+00 0. -1.
         -2   -1    0    0    0  501 -0.00000000000E+00 -0.00000000000E+00 -0.10043929301E+04  0.10043929301E+04  0.00000000000E+00 0.  1.
    2000013    1    1    2    0    0  0.92304971898E+03 -0.71226942592E+02 -0.17051031789E+03  0.13374108679E+04  0.95000000000E+03 0.  0.
   -2000013    1    1    2    0    0 -0.92304971898E+03  0.71226942592E+02  0.15061240254E+04  0.20069886997E+04  0.95000000000E+03 0.  0.
<mgrwt>
<rscale>  0 0.30661286E+04</rscale>
<asrwt>0</asrwt>
<pdfrwt beam="1">  1        2 0.36000102E+00 0.30661286E+04</pdfrwt>
<pdfrwt beam="2">  1       -2 0.15452199E+00 0.30661286E+04</pdfrwt>
<totfact> 0.10137897E+00</totfact>
</mgrwt>
</event>
<event>
 4    1  0.1295381E-008  0.2709100E+04  0.7816531E-02  0.8332058E-01
          2   -1    0    0  501    0  0.00000000000E+00  0.00000000000E+00  0.19695795086E+04  0.19695795086E+04  0.00000000000E+00 0.  1.
         -2   -1    0    0    0  501 -0.00000000000E+00 -0.00000000000E+00 -0.93157216016E+03  0.93157216016E+03  0.00000000000E+00 0. -1.
    2000013    1    1    2    0    0 -0.79861459912E+03  0.21826043846E+02  0.10997031445E+04  0.16583451571E+04  0.95000000000E+03 0.  0.
   -2000013    1    1    2    0    0  0.79861459912E+03 -0.21826043846E+02 -0.61695796053E+02  0.12428065116E+04  0.95000000000E+03 0.  0.
<mgrwt>
<rscale>  0 0.27090998E+04</rscale>
<asrwt>0</asrwt>
<pdfrwt beam="1">  1        2 0.30301223E+00 0.27090998E+04</pdfrwt>
<pdfrwt beam="2">  1       -2 0.14331879E+00 0.27090998E+04</pdfrwt>
<totfact> 0.20576320E+00</totfact>
</mgrwt>
</event>
<event>
 4    1  0.1295381E-008  0.3042164E+04  0.7816531E-02  0.8231792E-01
         -2   -1    0    0    0  501 -0.00000000000E+00  0.00000000000E+00  0.14471053550E+04  0.14471053550E+04  0.00000000000E+00 0. -1.
          2   -1    0    0  501    0  0.00000000000E+00 -0.00000000000E+00 -0.15988403194E+04  0.15988403194E+04  0.00000000000E+00 0.  1.
    2000013    1    1    2    0    0 -0.83979963222E+03  0.57531066646E+03  0.53722090438E+03  0.14924316016E+04  0.95000000000E+03 0.  0.
   -2000013    1    1    2    0    0  0.83979963222E+03 -0.57531066646E+03 -0.68895586880E+03  0.15535140728E+04  0.95000000000E+03 0.  0.
<mgrwt>
<rscale>  0 0.30421640E+04</rscale>
<asrwt>0</asrwt>
<pdfrwt beam="2">  1        2 0.24597543E+00 0.30421640E+04</pdfrwt>
<pdfrwt beam="1">  1       -2 0.22263159E+00 0.30421640E+04</pdfrwt>
<totfact> 0.90630327E-01</totfact>
</mgrwt>
</event>
<event>
 4    1  0.1295381E-008  0.3161504E+04  0.7816531E-02  0.8199059E-01
         -2   -1    0    0    0  501 -0.00000000000E+00  0.00000000000E+00  0.10420618368E+04  0.10420618368E+04  0.00000000000E+00 0. -1.
          2   -1    0    0  501    0  0.00000000000E+00 -0.00000000000E+00 -0.23979157774E+04  0.23979157774E+04  0.00000000000E+00 0.  1.
    2000013    1    1    2    0    0  0.91879822119E+03 -0.83448549725E+03 -0.42108342998E+03  0.16187549139E+04  0.95000000000E+03 0.  0.
   -2000013    1    1    2    0    0 -0.91879822119E+03  0.83448549725E+03 -0.93477051061E+03  0.18212227002E+04  0.95000000000E+03 0.  0.
<mgrwt>
<rscale>  0 0.31615038E+04</rscale>
<asrwt>0</asrwt>
<pdfrwt beam="2">  1        2 0.36891012E+00 0.31615038E+04</pdfrwt>
<pdfrwt beam="1">  1       -2 0.16031721E+00 0.31615038E+04</pdfrwt>
<totfact> 0.84357283E-01</totfact>
</mgrwt>
</event>
<event>
 4    1  0.1295381E-008  0.2889620E+04  0.7816531E-02  0.8275973E-01
          2   -1    0    0  501    0  0.00000000000E+00  0.00000000000E+00  0.24413248029E+04  0.24413248029E+04  0.00000000000E+00 0.  1.
         -2   -1    0    0    0  501 -0.00000000000E+00 -0.00000000000E+00 -0.85505848721E+03  0.85505848721E+03  0.00000000000E+00 0. -1.
    2000013    1    1    2    0    0  0.10610473143E+04 -0.13663067382E+03  0.56359745436E+03  0.15377358143E+04  0.95000000000E+03 0.  0.
   -2000013    1    1    2    0    0 -0.10610473143E+04  0.13663067382E+03  0.10226688614E+04  0.17586474758E+04  0.95000000000E+03 0.  0.
<mgrwt>
<rscale>  0 0.28896197E+04</rscale>
<asrwt>0</asrwt>
<pdfrwt beam="1">  1        2 0.37558843E+00 0.28896197E+04</pdfrwt>
<pdfrwt beam="2">  1       -2 0.13154746E+00 0.28896197E+04</pdfrwt>
<totfact> 0.13699891E+00</totfact>
</mgrwt>
</event>
<event>
 4    1  0.1295381E-008  0.2318771E+04  0.7816531E-02  0.8470557E-01
          2   -1    0    0  501    0  0.00000000000E+00  0.00000000000E+00  0.96328883961E+03  0.96328883961E+03  0.00000000000E+00 0.  1.
         -2   -1    0    0    0  501 -0.00000000000E+00 -0.00000000000E+00 -0.13954009503E+04  0.13954009503E+04  0.00000000000E+00 0. -1.
    2000013    1    1    2    0    0  0.54087952868E+03  0.32954408832E+03 -0.11284212115E+02  0.11418306810E+04  0.95000000000E+03 0.  0.
   -2000013    1    1    2    0    0 -0.54087952868E+03 -0.32954408832E+03 -0.42082789859E+03  0.12168591089E+04  0.95000000000E+03 0.  0.
<mgrwt>
<rscale>  0 0.23187705E+04</rscale>
<asrwt>0</asrwt>
<pdfrwt beam="1">  1        2 0.14819828E+00 0.23187705E+04</pdfrwt>
<pdfrwt beam="2">  1       -2 0.21467707E+00 0.23187705E+04</pdfrwt>
<totfact> 0.25732891E+00</totfact>
</mgrwt>
</event>
<event>
 4    1  0.1295381E-008  0.2434420E+04  0.7816531E-02  0.8426728E-01
         -2   -1    0    0    0  501 -0.00000000000E+00  0.00000000000E+00  0.39362427528E+03  0.39362427528E+03  0.00000000000E+00 0. -1.
          2   -1    0    0  501    0  0.00000000000E+00 -0.00000000000E+00 -0.37639962999E+04  0.37639962999E+04  0.00000000000E+00 0.  1.
    2000013    1    1    2    0    0  0.49263381404E+03  0.38371491906E+03 -0.24280021234E+04  0.26809736151E+04  0.95000000000E+03 0.  0.
   -2000013    1    1    2    0    0 -0.49263381404E+03 -0.38371491906E+03 -0.94236990122E+03  0.14766469600E+04  0.95000000000E+03 0.  0.
<mgrwt>
<rscale>  0 0.24344201E+04</rscale>
<asrwt>0</asrwt>
<pdfrwt beam="2">  1        2 0.57907634E+00 0.24344201E+04</pdfrwt>
<pdfrwt beam="1">  1       -2 0.60557583E-01 0.24344201E+04</pdfrwt>
<totfact> 0.11943245E+00</totfact>
</mgrwt>
</event>
<event>
 4    1  0.1295381E-008  0.3841674E+04  0.7816531E-02  0.8037270E-01
          2   -1    0    0  501    0  0.00000000000E+00  0.00000000000E+00  0.19643316640E+04  0.19643316640E+04  0.00000000000E+00 0.  1.
         -2   -1    0    0    0  501 -0.00000000000E+00 -0.00000000000E+00 -0.18783056135E+04  0.18783056135E+04  0.00000000000E+00 0. -1.
    2000013    1    1    2    0    0 -0.67393420066E+03  0.15252825905E+04  0.12328838412E+03  0.19231157826E+04  0.95000000000E+03 0.  0.
   -2000013    1    1    2    0    0  0.67393420066E+03 -0.15252825905E+04 -0.37262333544E+02  0.19195214949E+04  0.95000000000E+03 0.  0.
<mgrwt>
<rscale>  0 0.38416742E+04</rscale>
<asrwt>0</asrwt>
<pdfrwt beam="1">  1        2 0.30220487E+00 0.38416742E+04</pdfrwt>
<pdfrwt beam="2">  1       -2 0.28897009E+00 0.38416742E+04</pdfrwt>
<totfact> 0.20747037E-01</totfact>
</mgrwt>
</event>
<event>
 4    1  0.1295381E-008  0.3722941E+04  0.7816531E-02  0.8062897E-01
          2   -1    0    0  501    0  0.00000000000E+00  0.00000000000E+00  0.14630975529E+04  0.14630975529E+04  0.00000000000E+00 0.  1.
         -2   -1    0    0    0  501 -0.00000000000E+00 -0.00000000000E+00 -0.23683122153E+04  0.23683122153E+04  0.00000000000E+00 0. -1.
    2000013    1    1    2    0    0 -0.12839136290E+04  0.21039122013E+03 -0.14124508707E+04  0.21424789694E+04  0.95000000000E+03 0.  0.
   -2000013    1    1    2    0    0  0.12839136290E+04 -0.21039122013E+03  0.50723620823E+03  0.16889307988E+04  0.95000000000E+03 0.  0.
<mgrwt>
<rscale>  0 0.37229407E+04</rscale>
<asrwt>0</asrwt>
<pdfrwt beam="1">  1        2 0.22509193E+00 0.37229407E+04</pdfrwt>
<pdfrwt beam="2">  1       -2 0.36435572E+00 0.37229407E+04</pdfrwt>
<totfact> 0.13551947E-01</totfact>
</mgrwt>
</event>
<event>
 4    1  0.1295381E-008  0.2219902E+04  0.7816531E-02  0.8510190E-01
          2   -1    0    0  501    0  0.00000000000E+00  0.00000000000E+00  0.28384965661E+04  0.28384965661E+04  0.00000000000E+00 0.  1.
         -2   -1    0    0    0  501 -0.00000000000E+00 -0.00000000000E+00 -0.43402966365E+03  0.43402966365E+03  0.00000000000E+00 0. -1.
    2000013    1    1    2    0    0  0.31657678817E+03 -0.46373908092E+03  0.13780063373E+04  0.17654110750E+04  0.95000000000E+03 0.  0.
   -2000013    1    1    2    0    0 -0.31657678817E+03  0.46373908092E+03  0.10264605652E+04  0.15071151548E+04  0.95000000000E+03 0.  0.
<mgrwt>
<rscale>  0 0.22199024E+04</rscale>
<asrwt>0</asrwt>
<pdfrwt beam="1">  1        2 0.43669177E+00 0.22199024E+04</pdfrwt>
<pdfrwt beam="2">  1       -2 0.66773796E-01 0.22199024E+04</pdfrwt>
<totfact> 0.41216315E+00</totfact>
</mgrwt>
</event>
<event>
 4    1  0.1295381E-008  0.2361106E+04  0.7816531E-02  0.8454210E-01
          2   -1    0    0  501    0  0.00000000000E+00  0.00000000000E+00  0.20856542876E+04  0.20856542876E+04  0.00000000000E+00 0.  1.
         -2   -1    0    0    0  501 -0.00000000000E+00 -0.00000000000E+00 -0.66823426602E+03  0.66823426602E+03  0.00000000000E+00 0. -1.
    2000013    1    1    2    0    0 -0.17448373450E+03 -0.65482252240E+03  0.91725142770E+03  0.14842800582E+04  0.95000000000E+03 0.  0.
   -2000013    1    1    2    0    0  0.17448373450E+03  0.65482252240E+03  0.50016859388E+03  0.12696084955E+04  0.95000000000E+03 0.  0.
<mgrwt>
<rscale>  0 0.23611062E+04</rscale>
<asrwt>0</asrwt>
<pdfrwt beam="1">  1        2 0.32086989E+00 0.23611062E+04</pdfrwt>
<pdfrwt beam="2">  1       -2 0.10280527E+00 0.23611062E+04</pdfrwt>
<totfact> 0.41748287E+00</totfact>
</mgrwt>
</event>
<event>
 4    1  0.1295381E-008  0.2397366E+04  0.7816531E-02  0.8440490E-01
         -2   -1    0    0    0  501 -0.00000000000E+00  0.00000000000E+00  0.14968522849E+04  0.14968522849E+04  0.00000000000E+00 0. -1.
          2   -1    0    0  501    0  0.00000000000E+00 -0.00000000000E+00 -0.95990811413E+03  0.95990811413E+03  0.00000000000E+00 0.  1.
    2000013    1    1    2    0    0 -0.30241898715E+03 -0.58884897663E+03  0.58621891356E+03  0.12978262502E+04  0.95000000000E+03 0.  0.
   -2000013    1    1    2    0    0  0.30241898715E+03  0.58884897663E+03 -0.49274742801E+02  0.11589341488E+04  0.95000000000E+03 0.  0.
<mgrwt>
<rscale>  0 0.23973658E+04</rscale>
<asrwt>0</asrwt>
<pdfrwt beam="2">  1        2 0.14767817E+00 0.23973658E+04</pdfrwt>
<pdfrwt beam="1">  1       -2 0.23028497E+00 0.23973658E+04</pdfrwt>
<totfact> 0.20478708E+00</totfact>
</mgrwt>
</event>
<event>
 4    1  0.1295381E-008  0.2577020E+04  0.7816531E-02  0.8376049E-01
          2   -1    0    0  501    0  0.00000000000E+00  0.00000000000E+00  0.19320274084E+04  0.19320274084E+04  0.00000000000E+00 0.  1.
         -2   -1    0    0    0  501 -0.00000000000E+00 -0.00000000000E+00 -0.85933437255E+03  0.85933437255E+03  0.00000000000E+00 0. -1.
    2000013    1    1    2    0    0  0.65558456918E+03  0.45329216461E+03  0.91544618980E+03  0.15413651872E+04  0.95000000000E+03 0.  0.
   -2000013    1    1    2    0    0 -0.65558456918E+03 -0.45329216461E+03  0.15724684605E+03  0.12499965938E+04  0.95000000000E+03 0.  0.
<mgrwt>
<rscale>  0 0.25770196E+04</rscale>
<asrwt>0</asrwt>
<pdfrwt beam="1">  1        2 0.29723499E+00 0.25770196E+04</pdfrwt>
<pdfrwt beam="2">  1       -2 0.13220529E+00 0.25770196E+04</pdfrwt>
<totfact> 0.26882479E+00</totfact>
</mgrwt>
</event>
<event>
 4    1  0.1295381E-008  0.2921461E+04  0.7816531E-02  0.8266521E-01
         -2   -1    0    0    0  501 -0.00000000000E+00  0.00000000000E+00  0.91933653197E+03  0.91933653197E+03  0.00000000000E+00 0. -1.
          2   -1    0    0  501    0  0.00000000000E+00 -0.00000000000E+00 -0.23209489150E+04  0.23209489150E+04  0.00000000000E+00 0.  1.
    2000013    1    1    2    0    0 -0.94850002537E+03 -0.20334445532E+03 -0.12983307612E+04  0.18786069390E+04  0.95000000000E+03 0.  0.
   -2000013    1    1    2    0    0  0.94850002537E+03  0.20334445532E+03 -0.10328162176E+03  0.13616785080E+04  0.95000000000E+03 0.  0.
<mgrwt>
<rscale>  0 0.29214607E+04</rscale>
<asrwt>0</asrwt>
<pdfrwt beam="2">  1        2 0.35706906E+00 0.29214607E+04</pdfrwt>
<pdfrwt beam="1">  1       -2 0.14143639E+00 0.29214607E+04</pdfrwt>
<totfact> 0.13289639E+00</totfact>
</mgrwt>
</event>
<event>
 4    1  0.1295381E-008  0.2758969E+04  0.7816531E-02  0.8316121E-01
          2   -1    0    0  501    0  0.00000000000E+00  0.00000000000E+00  0.29747640096E+04  0.29747640096E+04  0.00000000000E+00 0.  1.
         -2   -1    0    0    0  501 -0.00000000000E+00 -0.00000000000E+00 -0.63970682633E+03  0.63970682633E+03  0.00000000000E+00 0. -1.
    2000013    1    1    2    0    0  0.97557317934E+03 -0.19808877201E+03  0.10398736755E+04  0.17247664917E+04  0.95000000000E+03 0.  0.
   -2000013    1    1    2    0    0 -0.97557317934E+03  0.19808877201E+03  0.12951835078E+04  0.18897043443E+04  0.95000000000E+03 0.  0.
<mgrwt>
<rscale>  0 0.27589685E+04</rscale>
<asrwt>0</asrwt>
<pdfrwt beam="1">  1        2 0.45765599E+00 0.27589685E+04</pdfrwt>
<pdfrwt beam="2">  1       -2 0.98416437E-01 0.27589685E+04</pdfrwt>
<totfact> 0.13517693E+00</totfact>
</mgrwt>
</event>
<event>
 4    1  0.1295381E-008  0.2424527E+04  0.7816531E-02  0.8430378E-01
          2   -1    0    0  501    0  0.00000000000E+00  0.00000000000E+00  0.16408259408E+04  0.16408259408E+04  0.00000000000E+00 0.  1.
         -2   -1    0    0    0  501 -0.00000000000E+00 -0.00000000000E+00 -0.89563607780E+03  0.89563607780E+03  0.00000000000E+00 0. -1.
    2000013    1    1    2    0    0  0.17326999246E+03 -0.62863164270E+03  0.76665824897E+03  0.13840032887E+04  0.95000000000E+03 0.  0.
   -2000013    1    1    2    0    0 -0.17326999246E+03  0.62863164270E+03 -0.21468385955E+02  0.11524587299E+04  0.95000000000E+03 0.  0.
<mgrwt>
<rscale>  0 0.24245271E+04</rscale>
<asrwt>0</asrwt>
<pdfrwt beam="1">  1        2 0.25243476E+00 0.24245271E+04</pdfrwt>
<pdfrwt beam="2">  1       -2 0.13779017E+00 0.24245271E+04</pdfrwt>
<totfact> 0.35547546E+00</totfact>
</mgrwt>
</event>
<event>
 4    1  0.1295381E-008  0.3086405E+04  0.7816531E-02  0.8219479E-01
          2   -1    0    0  501    0  0.00000000000E+00  0.00000000000E+00  0.25348066806E+04  0.25348066806E+04  0.00000000000E+00 0.  1.
         -2   -1    0    0    0  501 -0.00000000000E+00 -0.00000000000E+00 -0.93950895417E+03  0.93950895417E+03  0.00000000000E+00 0. -1.
    2000013    1    1    2    0    0 -0.98658978354E+03  0.19654780453E+02  0.15977779126E+04  0.21045522016E+04  0.95000000000E+03 0.  0.
   -2000013    1    1    2    0    0  0.98658978354E+03 -0.19654780453E+02 -0.24801861935E+01  0.13697634331E+04  0.95000000000E+03 0.  0.
<mgrwt>
<rscale>  0 0.30864048E+04</rscale>
<asrwt>0</asrwt>
<pdfrwt beam="1">  1        2 0.38997026E+00 0.30864048E+04</pdfrwt>
<pdfrwt beam="2">  1       -2 0.14453984E+00 0.30864048E+04</pdfrwt>
<totfact> 0.93294114E-01</totfact>
</mgrwt>
</event>
<event>
 4    1  0.1295381E-008  0.2916533E+04  0.7816531E-02  0.8267975E-01
         -2   -1    0    0    0  501 -0.00000000000E+00  0.00000000000E+00  0.15227342705E+04  0.15227342705E+04  0.00000000000E+00 0. -1.
          2   -1    0    0  501    0  0.00000000000E+00 -0.00000000000E+00 -0.13965282726E+04  0.13965282726E+04  0.00000000000E+00 0.  1.
    2000013    1    1    2    0    0 -0.58312071633E+03  0.70738625155E+03 -0.55684434596E+03  0.14328296145E+04  0.95000000000E+03 0.  0.
   -2000013    1    1    2    0    0  0.58312071633E+03 -0.70738625155E+03  0.68305034389E+03  0.14864329285E+04  0.95000000000E+03 0.  0.
<mgrwt>
<rscale>  0 0.29165332E+04</rscale>
<asrwt>0</asrwt>
<pdfrwt beam="2">  1        2 0.21485050E+00 0.29165332E+04</pdfrwt>
<pdfrwt beam="1">  1       -2 0.23426681E+00 0.29165332E+04</pdfrwt>
<totfact> 0.10075064E+00</totfact>
</mgrwt>
</event>
<event>
 4    1  0.1295381E-008  0.3088725E+04  0.7816531E-02  0.8218839E-01
         -2   -1    0    0    0  501 -0.00000000000E+00  0.00000000000E+00  0.21035428138E+04  0.21035428138E+04  0.00000000000E+00 0. -1.
          2   -1    0    0  501    0  0.00000000000E+00 -0.00000000000E+00 -0.11338277907E+04  0.11338277907E+04  0.00000000000E+00 0.  1.
    2000013    1    1    2    0    0 -0.11770751742E+04 -0.13472790640E+03  0.77926268808E+03  0.17068707952E+04  0.95000000000E+03 0.  0.
   -2000013    1    1    2    0    0  0.11770751742E+04  0.13472790640E+03  0.19045233503E+03  0.15304998093E+04  0.95000000000E+03 0.  0.
<mgrwt>
<rscale>  0 0.30887249E+04</rscale>
<asrwt>0</asrwt>
<pdfrwt beam="2">  1        2 0.17443504E+00 0.30887249E+04</pdfrwt>
<pdfrwt beam="1">  1       -2 0.32362197E+00 0.30887249E+04</pdfrwt>
<totfact> 0.40125951E-01</totfact>
</mgrwt>
</event>
<event>
 4    1  0.1295381E-008  0.2927280E+04  0.7816531E-02  0.8264807E-01
          2   -1    0    0  501    0  0.00000000000E+00  0.00000000000E+00  0.90616580777E+03  0.90616580777E+03  0.00000000000E+00 0.  1.
         -2   -1    0    0    0  501 -0.00000000000E+00 -0.00000000000E+00 -0.23640733244E+04  0.23640733244E+04  0.00000000000E+00 0. -1.
    2000013    1    1    2    0    0 -0.18459861221E+03  0.99138670583E+03 -0.12562935044E+04  0.18702132545E+04  0.95000000000E+03 0.  0.
   -2000013    1    1    2    0    0  0.18459861221E+03 -0.99138670583E+03 -0.20161401219E+03  0.14000258776E+04  0.95000000000E+03 0.  0.
<mgrwt>
<rscale>  0 0.29272802E+04</rscale>
<asrwt>0</asrwt>
<pdfrwt beam="1">  1        2 0.13941013E+00 0.29272802E+04</pdfrwt>
<pdfrwt beam="2">  1       -2 0.36370358E+00 0.29272802E+04</pdfrwt>
<totfact> 0.31844427E-01</totfact>
</mgrwt>
</event>
<event>
 4    1  0.1295381E-008  0.3037424E+04  0.7816531E-02  0.8233124E-01
         -2   -1    0    0    0  501 -0.00000000000E+00  0.00000000000E+00  0.11155627851E+04  0.11155627851E+04  0.00000000000E+00 0. -1.
          2   -1    0    0  501    0  0.00000000000E+00 -0.00000000000E+00 -0.20675542201E+04  0.20675542201E+04  0.00000000000E+00 0.  1.
    2000013    1    1    2    0    0  0.10964924701E+04 -0.26457159536E+03 -0.85629714813E+03  0.17052972386E+04  0.95000000000E+03 0.  0.
   -2000013    1    1    2    0    0 -0.10964924701E+04  0.26457159536E+03 -0.95694286821E+02  0.14778197666E+04  0.95000000000E+03 0.  0.
<mgrwt>
<rscale>  0 0.30374243E+04</rscale>
<asrwt>0</asrwt>
<pdfrwt beam="2">  1        2 0.31808526E+00 0.30374243E+04</pdfrwt>
<pdfrwt beam="1">  1       -2 0.17162504E+00 0.30374243E+04</pdfrwt>
<totfact> 0.10851427E+00</totfact>
</mgrwt>
</event>
<event>
 4    1  0.1295381E-008  0.2906326E+04  0.7816531E-02  0.8270998E-01
          1   -1    0    0  501    0  0.00000000000E+00  0.00000000000E+00  0.17161462736E+04  0.17161462736E+04  0.00000000000E+00 0. -1.
         -1   -1    0    0    0  501 -0.00000000000E+00 -0.00000000000E+00 -0.12304798009E+04  0.12304798009E+04  0.00000000000E+00 0.  1.
    2000013    1    1    2    0    0 -0.82375685551E+03  0.72777794203E+03  0.27403718314E+03  0.14784561095E+04  0.95000000000E+03 0.  0.
   -2000013    1    1    2    0    0  0.82375685551E+03 -0.72777794203E+03  0.21162928959E+03  0.14681699650E+04  0.95000000000E+03 0.  0.
<mgrwt>
<rscale>  0 0.29063264E+04</rscale>
<asrwt>0</asrwt>
<pdfrwt beam="1">  1        1 0.26402251E+00 0.29063264E+04</pdfrwt>
<pdfrwt beam="2">  1       -1 0.18930458E+00 0.29063264E+04</pdfrwt>
<totfact> 0.71238195E-01</totfact>
</mgrwt>
</event>
<event>
 4    1  0.1295381E-008  0.2809866E+04  0.7816531E-02  0.8300212E-01
          2   -1    0    0  501    0  0.00000000000E+00  0.00000000000E+00  0.23568890119E+04  0.23568890119E+04  0.00000000000E+00 0.  1.
         -2   -1    0    0    0  501 -0.00000000000E+00 -0.00000000000E+00 -0.83747549282E+03  0.83747549282E+03  0.00000000000E+00 0. -1.
    2000013    1    1    2    0    0  0.48724262901E+03  0.72884467772E+03  0.13422139952E+03  0.12996673912E+04  0.95000000000E+03 0.  0.
   -2000013    1    1    2    0    0 -0.48724262901E+03 -0.72884467772E+03  0.13851921196E+04  0.18946971135E+04  0.95000000000E+03 0.  0.
<mgrwt>
<rscale>  0 0.28098660E+04</rscale>
<asrwt>0</asrwt>
<pdfrwt beam="1">  1        2 0.36259831E+00 0.28098660E+04</pdfrwt>
<pdfrwt beam="2">  1       -2 0.12884239E+00 0.28098660E+04</pdfrwt>
<totfact> 0.16250551E+00</totfact>
</mgrwt>
</event>
<event>
 4    1  0.1295381E-008  0.2100507E+04  0.7816531E-02  0.8561020E-01
          2   -1    0    0  501    0  0.00000000000E+00  0.00000000000E+00  0.22439764289E+04  0.22439764289E+04  0.00000000000E+00 0.  1.
         -2   -1    0    0    0  501 -0.00000000000E+00 -0.00000000000E+00 -0.49155239333E+03  0.49155239333E+03  0.00000000000E+00 0. -1.
    2000013    1    1    2    0    0 -0.69120646512E+02 -0.43571569501E+03  0.77612687494E+03  0.13036482488E+04  0.95000000000E+03 0.  0.
   -2000013    1    1    2    0    0  0.69120646512E+02  0.43571569501E+03  0.97629716066E+03  0.14318805734E+04  0.95000000000E+03 0.  0.
<mgrwt>
<rscale>  0 0.21005066E+04</rscale>
<asrwt>0</asrwt>
<pdfrwt beam="1">  1        2 0.34522714E+00 0.21005066E+04</pdfrwt>
<pdfrwt beam="2">  1       -2 0.75623446E-01 0.21005066E+04</pdfrwt>
<totfact> 0.70457193E+00</totfact>
</mgrwt>
</event>
<event>
 4    1  0.1295381E-008  0.2980249E+04  0.7816531E-02  0.8249394E-01
         -1   -1    0    0    0  501 -0.00000000000E+00  0.00000000000E+00  0.13709995083E+04  0.13709995083E+04  0.00000000000E+00 0. -1.
          1   -1    0    0  501    0  0.00000000000E+00 -0.00000000000E+00 -0.16195996204E+04  0.16195996204E+04  0.00000000000E+00 0.  1.
    2000013    1    1    2    0    0  0.19800476171E+03  0.10762871876E+04  0.22384912088E+03  0.14663589004E+04  0.95000000000E+03 0.  0.
   -2000013    1    1    2    0    0 -0.19800476171E+03 -0.10762871876E+04 -0.47244923296E+03  0.15242402283E+04  0.95000000000E+03 0.  0.
<mgrwt>
<rscale>  0 0.29802485E+04</rscale>
<asrwt>0</asrwt>
<pdfrwt beam="2">  1        1 0.24916917E+00 0.29802485E+04</pdfrwt>
<pdfrwt beam="1">  1       -1 0.21092300E+00 0.29802485E+04</pdfrwt>
<totfact> 0.58443252E-01</totfact>
</mgrwt>
</event>
<event>
 4    1  0.1295381E-008  0.3173113E+04  0.7816531E-02  0.8195954E-01
         -2   -1    0    0    0  501 -0.00000000000E+00  0.00000000000E+00  0.86348321268E+03  0.86348321268E+03  0.00000000000E+00 0. -1.
          2   -1    0    0  501    0  0.00000000000E+00 -0.00000000000E+00 -0.29151253002E+04  0.29151253002E+04  0.00000000000E+00 0.  1.
    2000013    1    1    2    0    0  0.10470423433E+04 -0.48166521016E+03 -0.38857877253E+03  0.15433057072E+04  0.95000000000E+03 0.  0.
   -2000013    1    1    2    0    0 -0.10470423433E+04  0.48166521016E+03 -0.16630633150E+04  0.22353028057E+04  0.95000000000E+03 0.  0.
<mgrwt>
<rscale>  0 0.31731131E+04</rscale>
<asrwt>0</asrwt>
<pdfrwt beam="2">  1        2 0.44848081E+00 0.31731131E+04</pdfrwt>
<pdfrwt beam="1">  1       -2 0.13284357E+00 0.31731131E+04</pdfrwt>
<totfact> 0.68173968E-01</totfact>
</mgrwt>
</event>
<event>
 4    1  0.1295381E-008  0.2503125E+04  0.7816531E-02  0.8401873E-01
          2   -1    0    0  501    0  0.00000000000E+00  0.00000000000E+00  0.21467197950E+04  0.21467197950E+04  0.00000000000E+00 0.  1.
         -2   -1    0    0    0  501 -0.00000000000E+00 -0.00000000000E+00 -0.72967524492E+03  0.72967524492E+03  0.00000000000E+00 0. -1.
    2000013    1    1    2    0    0  0.36424428081E+03  0.12669232054E+03  0.15333191393E+04  0.18445304072E+04  0.95000000000E+03 0.  0.
   -2000013    1    1    2    0    0 -0.36424428081E+03 -0.12669232054E+03 -0.11627458921E+03  0.10318646327E+04  0.95000000000E+03 0.  0.
<mgrwt>
<rscale>  0 0.25031247E+04</rscale>
<asrwt>0</asrwt>
<pdfrwt beam="1">  1        2 0.33026458E+00 0.25031247E+04</pdfrwt>
<pdfrwt beam="2">  1       -2 0.11225773E+00 0.25031247E+04</pdfrwt>
<totfact> 0.30847106E+00</totfact>
</mgrwt>
</event>
<event>
 4    1  0.1295381E-008  0.2214219E+04  0.7816531E-02  0.8512533E-01
          2   -1    0    0  501    0  0.00000000000E+00  0.00000000000E+00  0.13909051044E+04  0.13909051044E+04  0.00000000000E+00 0. -1.
         -2   -1    0    0    0  501 -0.00000000000E+00 -0.00000000000E+00 -0.88121828123E+03  0.88121828123E+03  0.00000000000E+00 0.  1.
    2000013    1    1    2    0    0  0.30056565428E+03 -0.48141705511E+03  0.28870503662E+03  0.11436575937E+04  0.95000000000E+03 0.  0.
   -2000013    1    1    2    0    0 -0.30056565428E+03  0.48141705511E+03  0.22098178652E+03  0.11284657919E+04  0.95000000000E+03 0.  0.
<mgrwt>
<rscale>  0 0.22142186E+04</rscale>
<asrwt>0</asrwt>
<pdfrwt beam="1">  1        2 0.21398540E+00 0.22142186E+04</pdfrwt>
<pdfrwt beam="2">  1       -2 0.13557204E+00 0.22142186E+04</pdfrwt>
<totfact> 0.52191862E+00</totfact>
</mgrwt>
</event>
<event>
 4    1  0.1295381E-008  0.3750837E+04  0.7816531E-02  0.8056788E-01
         -2   -1    0    0    0  501 -0.00000000000E+00  0.00000000000E+00  0.13478548246E+04  0.13478548246E+04  0.00000000000E+00 0.  1.
          2   -1    0    0  501    0  0.00000000000E+00 -0.00000000000E+00 -0.26094754616E+04  0.26094754616E+04  0.00000000000E+00 0. -1.
    2000013    1    1    2    0    0  0.25042968138E+03  0.15390132468E+04 -0.17896033226E+03  0.18346126566E+04  0.95000000000E+03 0.  0.
   -2000013    1    1    2    0    0 -0.25042968138E+03 -0.15390132468E+04 -0.10826603047E+04  0.21227176295E+04  0.95000000000E+03 0.  0.
<mgrwt>
<rscale>  0 0.37508368E+04</rscale>
<asrwt>0</asrwt>
<pdfrwt beam="2">  1        2 0.40145776E+00 0.37508368E+04</pdfrwt>
<pdfrwt beam="1">  1       -2 0.20736228E+00 0.37508368E+04</pdfrwt>
<totfact> 0.28799352E-01</totfact>
</mgrwt>
</event>
<event>
 4    1  0.1295381E-008  0.2857427E+04  0.7816531E-02  0.8285658E-01
          2   -1    0    0  501    0  0.00000000000E+00  0.00000000000E+00  0.11885260443E+04  0.11885260443E+04  0.00000000000E+00 0.  1.
         -2   -1    0    0    0  501 -0.00000000000E+00 -0.00000000000E+00 -0.17174406671E+04  0.17174406671E+04  0.00000000000E+00 0. -1.
    2000013    1    1    2    0    0  0.42763996902E+03 -0.97484448019E+03 -0.34005207756E+03  0.14667423493E+04  0.95000000000E+03 0.  0.
   -2000013    1    1    2    0    0 -0.42763996902E+03  0.97484448019E+03 -0.18886254527E+03  0.14392243622E+04  0.95000000000E+03 0.  0.
<mgrwt>
<rscale>  0 0.28574275E+04</rscale>
<asrwt>0</asrwt>
<pdfrwt beam="1">  1        2 0.18285016E+00 0.28574275E+04</pdfrwt>
<pdfrwt beam="2">  1       -2 0.26422164E+00 0.28574275E+04</pdfrwt>
<totfact> 0.87616536E-01</totfact>
</mgrwt>
</event>
<event>
 4    1  0.1295381E-008  0.2146277E+04  0.7816531E-02  0.8541128E-01
          2   -1    0    0  501    0  0.00000000000E+00  0.00000000000E+00  0.13815787026E+04  0.13815787026E+04  0.00000000000E+00 0.  1.
         -2   -1    0    0    0  501 -0.00000000000E+00 -0.00000000000E+00 -0.83355800487E+03  0.83355800487E+03  0.00000000000E+00 0. -1.
    2000013    1    1    2    0    0 -0.82498227265E+02 -0.44374896641E+03  0.49393588597E+03  0.11619775222E+04  0.95000000000E+03 0.  0.
   -2000013    1    1    2    0    0  0.82498227265E+02  0.44374896641E+03  0.54084811796E+02  0.10531591853E+04  0.95000000000E+03 0.  0.
<mgrwt>
<rscale>  0 0.21462768E+04</rscale>
<asrwt>0</asrwt>
<pdfrwt beam="1">  1        2 0.21255057E+00 0.21462768E+04</pdfrwt>
<pdfrwt beam="2">  1       -2 0.12823969E+00 0.21462768E+04</pdfrwt>
<totfact> 0.61205618E+00</totfact>
</mgrwt>
</event>
<event>
 4    1  0.1295381E-008  0.2582131E+04  0.7816531E-02  0.8374296E-01
         -2   -1    0    0    0  501 -0.00000000000E+00  0.00000000000E+00  0.41884896150E+03  0.41884896150E+03  0.00000000000E+00 0. -1.
          2   -1    0    0  501    0  0.00000000000E+00 -0.00000000000E+00 -0.39795963824E+04  0.39795963824E+04  0.00000000000E+00 0.  1.
    2000013    1    1    2    0    0  0.37127444314E+02  0.81315093461E+03 -0.23237528360E+04  0.26391135126E+04  0.95000000000E+03 0.  0.
   -2000013    1    1    2    0    0 -0.37127444314E+02 -0.81315093461E+03 -0.12369945850E+04  0.17593318314E+04  0.95000000000E+03 0.  0.
<mgrwt>
<rscale>  0 0.25821308E+04</rscale>
<asrwt>0</asrwt>
<pdfrwt beam="2">  1        2 0.61224558E+00 0.25821308E+04</pdfrwt>
<pdfrwt beam="1">  1       -2 0.64438304E-01 0.25821308E+04</pdfrwt>
<totfact> 0.70194236E-01</totfact>
</mgrwt>
</event>
<event>
 4    1  0.1295381E-008  0.2919155E+04  0.7816531E-02  0.8267201E-01
         -2   -1    0    0    0  501 -0.00000000000E+00  0.00000000000E+00  0.33339625823E+04  0.33339625823E+04  0.00000000000E+00 0. -1.
          2   -1    0    0  501    0  0.00000000000E+00 -0.00000000000E+00 -0.63898951031E+03  0.63898951031E+03  0.00000000000E+00 0.  1.
    2000013    1    1    2    0    0 -0.38928385729E+03 -0.10371193716E+04  0.13837157017E+04  0.20110513807E+04  0.95000000000E+03 0.  0.
   -2000013    1    1    2    0    0  0.38928385729E+03  0.10371193716E+04  0.13112573702E+04  0.19619007119E+04  0.95000000000E+03 0.  0.
<mgrwt>
<rscale>  0 0.29191554E+04</rscale>
<asrwt>0</asrwt>
<pdfrwt beam="2">  1        2 0.98306081E-01 0.29191554E+04</pdfrwt>
<pdfrwt beam="1">  1       -2 0.51291731E+00 0.29191554E+04</pdfrwt>
<totfact> 0.54206415E-02</totfact>
</mgrwt>
</event>
<event>
 4    1  0.1295381E-008  0.2045322E+04  0.7816531E-02  0.8585720E-01
         -2   -1    0    0    0  501 -0.00000000000E+00  0.00000000000E+00  0.40432166166E+03  0.40432166166E+03  0.00000000000E+00 0. -1.
          2   -1    0    0  501    0  0.00000000000E+00 -0.00000000000E+00 -0.25866415461E+04  0.25866415461E+04  0.00000000000E+00 0.  1.
    2000013    1    1    2    0    0  0.25705176808E+03 -0.10256788373E+03 -0.14689414354E+04  0.17711252702E+04  0.95000000000E+03 0.  0.
   -2000013    1    1    2    0    0 -0.25705176808E+03  0.10256788373E+03 -0.71337844903E+03  0.12198379375E+04  0.95000000000E+03 0.  0.
<mgrwt>
<rscale>  0 0.20453217E+04</rscale>
<asrwt>0</asrwt>
<pdfrwt beam="2">  1        2 0.39794484E+00 0.20453217E+04</pdfrwt>
<pdfrwt beam="1">  1       -2 0.62203335E-01 0.20453217E+04</pdfrwt>
<totfact> 0.68851657E+00</totfact>
</mgrwt>
</event>
<event>
 4    1  0.1295381E-008  0.2157126E+04  0.7816531E-02  0.8536488E-01
         -2   -1    0    0    0  501 -0.00000000000E+00  0.00000000000E+00  0.55872223991E+03  0.55872223991E+03  0.00000000000E+00 0. -1.
          2   -1    0    0  501    0  0.00000000000E+00 -0.00000000000E+00 -0.20820687739E+04  0.20820687739E+04  0.00000000000E+00 0.  1.
    2000013    1    1    2    0    0  0.27019794797E+03 -0.38236667967E+03 -0.10113263320E+04  0.14644084671E+04  0.95000000000E+03 0.  0.
   -2000013    1    1    2    0    0 -0.27019794797E+03  0.38236667967E+03 -0.51202020195E+03  0.11763825466E+04  0.95000000000E+03 0.  0.
<mgrwt>
<rscale>  0 0.21571260E+04</rscale>
<asrwt>0</asrwt>
<pdfrwt beam="2">  1        2 0.32031827E+00 0.21571260E+04</pdfrwt>
<pdfrwt beam="1">  1       -2 0.85957270E-01 0.21571260E+04</pdfrwt>
<totfact> 0.64772940E+00</totfact>
</mgrwt>
</event>
<event>
 4    1  0.1295381E-008  0.1997488E+04  0.7816531E-02  0.8607796E-01
         -2   -1    0    0    0  501 -0.00000000000E+00  0.00000000000E+00  0.52459481223E+03  0.52459481223E+03  0.00000000000E+00 0. -1.
          2   -1    0    0  501    0  0.00000000000E+00 -0.00000000000E+00 -0.19014473676E+04  0.19014473676E+04  0.00000000000E+00 0.  1.
    2000013    1    1    2    0    0  0.26051584385E+03  0.12120446006E+03 -0.82383814646E+03  0.12898714345E+04  0.95000000000E+03 0.  0.
   -2000013    1    1    2    0    0 -0.26051584385E+03 -0.12120446006E+03 -0.55301440892E+03  0.11361707453E+04  0.95000000000E+03 0.  0.
<mgrwt>
<rscale>  0 0.19974878E+04</rscale>
<asrwt>0</asrwt>
<pdfrwt beam="2">  1        2 0.29253036E+00 0.19974878E+04</pdfrwt>
<pdfrwt beam="1">  1       -2 0.80706895E-01 0.19974878E+04</pdfrwt>
<totfact> 0.95438565E+00</totfact>
</mgrwt>
</event>
<event>
 4    1  0.1295381E-008  0.2474424E+04  0.7816531E-02  0.8412154E-01
          2   -1    0    0  501    0  0.00000000000E+00  0.00000000000E+00  0.14559081305E+04  0.14559081305E+04  0.00000000000E+00 0.  1.
         -2   -1    0    0    0  501 -0.00000000000E+00 -0.00000000000E+00 -0.10513668101E+04  0.10513668101E+04  0.00000000000E+00 0. -1.
    2000013    1    1    2    0    0 -0.78293050164E+03 -0.95005974549E+02  0.12256773317E+03  0.12407776412E+04  0.95000000000E+03 0.  0.
   -2000013    1    1    2    0    0  0.78293050164E+03  0.95005974549E+02  0.28197358715E+03  0.12664972994E+04  0.95000000000E+03 0.  0.
<mgrwt>
<rscale>  0 0.24744240E+04</rscale>
<asrwt>0</asrwt>
<pdfrwt beam="1">  1        2 0.22398587E+00 0.24744240E+04</pdfrwt>
<pdfrwt beam="2">  1       -2 0.16174874E+00 0.24744240E+04</pdfrwt>
<totfact> 0.29389301E+00</totfact>
</mgrwt>
</event>
<event>
 4    1  0.1295381E-008  0.3221665E+04  0.7816531E-02  0.8183119E-01
         -2   -1    0    0    0  501 -0.00000000000E+00  0.00000000000E+00  0.10212843258E+04  0.10212843258E+04  0.00000000000E+00 0. -1.
          2   -1    0    0  501    0  0.00000000000E+00 -0.00000000000E+00 -0.25407041938E+04  0.25407041938E+04  0.00000000000E+00 0.  1.
    2000013    1    1    2    0    0  0.49986681792E+03  0.11346827548E+04 -0.11948722429E+04  0.19666192988E+04  0.95000000000E+03 0.  0.
   -2000013    1    1    2    0    0 -0.49986681792E+03 -0.11346827548E+04 -0.32454762507E+03  0.15953692208E+04  0.95000000000E+03 0.  0.
<mgrwt>
<rscale>  0 0.32216650E+04</rscale>
<asrwt>0</asrwt>
<pdfrwt beam="2">  1        2 0.39087757E+00 0.32216650E+04</pdfrwt>
<pdfrwt beam="1">  1       -2 0.15712067E+00 0.32216650E+04</pdfrwt>
<totfact> 0.73309265E-01</totfact>
</mgrwt>
</event>
<event>
 4    1  0.1295381E-008  0.3848303E+04  0.7816531E-02  0.8035868E-01
         -1   -1    0    0    0  501 -0.00000000000E+00  0.00000000000E+00  0.37792318638E+04  0.37792318638E+04  0.00000000000E+00 0. -1.
          1   -1    0    0  501    0  0.00000000000E+00 -0.00000000000E+00 -0.97965893236E+03  0.97965893236E+03  0.00000000000E+00 0.  1.
    2000013    1    1    2    0    0  0.11626744529E+04  0.11798713235E+04  0.16922937486E+04  0.25515223602E+04  0.95000000000E+03 0.  0.
   -2000013    1    1    2    0    0 -0.11626744529E+04 -0.11798713235E+04  0.11072791829E+04  0.22073684360E+04  0.95000000000E+03 0.  0.
<mgrwt>
<rscale>  0 0.38483026E+04</rscale>
<asrwt>0</asrwt>
<pdfrwt beam="2">  1        1 0.15071676E+00 0.38483026E+04</pdfrwt>
<pdfrwt beam="1">  1       -1 0.58142028E+00 0.38483026E+04</pdfrwt>
<totfact> 0.65565468E-03</totfact>
</mgrwt>
</event>
<event>
 4    1  0.1295381E-008  0.2216683E+04  0.7816531E-02  0.8511516E-01
          2   -1    0    0  501    0  0.00000000000E+00  0.00000000000E+00  0.12469241666E+04  0.12469241666E+04  0.00000000000E+00 0.  1.
         -2   -1    0    0    0  501 -0.00000000000E+00 -0.00000000000E+00 -0.98516043314E+03  0.98516043314E+03  0.00000000000E+00 0. -1.
    2000013    1    1    2    0    0 -0.47961637659E+03 -0.18443401358E+03  0.38135218036E+03  0.11454157584E+04  0.95000000000E+03 0.  0.
   -2000013    1    1    2    0    0  0.47961637659E+03  0.18443401358E+03 -0.11958844694E+03  0.10866688413E+04  0.95000000000E+03 0.  0.
<mgrwt>
<rscale>  0 0.22166825E+04</rscale>
<asrwt>0</asrwt>
<pdfrwt beam="1">  1        2 0.19183449E+00 0.22166825E+04</pdfrwt>
<pdfrwt beam="2">  1       -2 0.15156314E+00 0.22166825E+04</pdfrwt>
<totfact> 0.47261417E+00</totfact>
</mgrwt>
</event>
<event>
 4    1  0.1295381E-008  0.2287992E+04  0.7816531E-02  0.8482671E-01
         -2   -1    0    0    0  501 -0.00000000000E+00  0.00000000000E+00  0.20402769793E+04  0.20402769793E+04  0.00000000000E+00 0. -1.
          2   -1    0    0  501    0  0.00000000000E+00 -0.00000000000E+00 -0.64144564897E+03  0.64144564897E+03  0.00000000000E+00 0.  1.
    2000013    1    1    2    0    0 -0.71427750718E+02  0.41113946904E+03  0.12640754189E+04  0.16353972763E+04  0.95000000000E+03 0.  0.
   -2000013    1    1    2    0    0  0.71427750718E+02 -0.41113946904E+03  0.13475591142E+03  0.10463253520E+04  0.95000000000E+03 0.  0.
<mgrwt>
<rscale>  0 0.22879920E+04</rscale>
<asrwt>0</asrwt>
<pdfrwt beam="2">  1        2 0.98683947E-01 0.22879920E+04</pdfrwt>
<pdfrwt beam="1">  1       -2 0.31388876E+00 0.22879920E+04</pdfrwt>
<totfact> 0.10838895E+00</totfact>
</mgrwt>
</event>
<event>
 4    1  0.1295381E-008  0.2144538E+04  0.7816531E-02  0.8541874E-01
         -2   -1    0    0    0  501 -0.00000000000E+00  0.00000000000E+00  0.17739612764E+04  0.17739612764E+04  0.00000000000E+00 0. -1.
          2   -1    0    0  501    0  0.00000000000E+00 -0.00000000000E+00 -0.64813158965E+03  0.64813158965E+03  0.00000000000E+00 0.  1.
    2000013    1    1    2    0    0  0.23748730751E+03 -0.28562395162E+03  0.18955668496E+03  0.10375032529E+04  0.95000000000E+03 0.  0.
   -2000013    1    1    2    0    0 -0.23748730751E+03  0.28562395162E+03  0.93627300179E+03  0.13845896131E+04  0.95000000000E+03 0.  0.
<mgrwt>
<rscale>  0 0.21445376E+04</rscale>
<asrwt>0</asrwt>
<pdfrwt beam="2">  1        2 0.99712553E-01 0.21445376E+04</pdfrwt>
<pdfrwt beam="1">  1       -2 0.27291712E+00 0.21445376E+04</pdfrwt>
<totfact> 0.19276543E+00</totfact>
</mgrwt>
</event>
<event>
 4    1  0.1295381E-008  0.2414383E+04  0.7816531E-02  0.8434138E-01
          1   -1    0    0  501    0  0.00000000000E+00  0.00000000000E+00  0.23874034750E+04  0.23874034750E+04  0.00000000000E+00 0.  1.
         -1   -1    0    0    0  501 -0.00000000000E+00 -0.00000000000E+00 -0.61041707471E+03  0.61041707471E+03  0.00000000000E+00 0. -1.
    2000013    1    1    2    0    0 -0.15687750145E+03  0.45619226834E+03  0.18381968561E+03  0.10812084040E+04  0.95000000000E+03 0.  0.
   -2000013    1    1    2    0    0  0.15687750145E+03 -0.45619226834E+03  0.15931667147E+04  0.19166121457E+04  0.95000000000E+03 0.  0.
<mgrwt>
<rscale>  0 0.24143834E+04</rscale>
<asrwt>0</asrwt>
<pdfrwt beam="1">  1        1 0.36729284E+00 0.24143834E+04</pdfrwt>
<pdfrwt beam="2">  1       -1 0.93910321E-01 0.24143834E+04</pdfrwt>
<totfact> 0.15935899E+00</totfact>
</mgrwt>
</event>
<event>
 4    1  0.1295381E-008  0.2151734E+04  0.7816531E-02  0.8538790E-01
         -2   -1    0    0    0  501 -0.00000000000E+00  0.00000000000E+00  0.18573731217E+04  0.18573731217E+04  0.00000000000E+00 0. -1.
          2   -1    0    0  501    0  0.00000000000E+00 -0.00000000000E+00 -0.62318646798E+03  0.62318646798E+03  0.00000000000E+00 0.  1.
    2000013    1    1    2    0    0  0.33257070158E+03 -0.28847045236E+03  0.33196851191E+03  0.10984177558E+04  0.95000000000E+03 0.  0.
   -2000013    1    1    2    0    0 -0.33257070158E+03  0.28847045236E+03  0.90221814181E+03  0.13821418338E+04  0.95000000000E+03 0.  0.
<mgrwt>
<rscale>  0 0.21517340E+04</rscale>
<asrwt>0</asrwt>
<pdfrwt beam="2">  1        2 0.95874842E-01 0.21517340E+04</pdfrwt>
<pdfrwt beam="1">  1       -2 0.28574971E+00 0.21517340E+04</pdfrwt>
<totfact> 0.16887085E+00</totfact>
</mgrwt>
</event>
<event>
 4    1  0.1295381E-008  0.2482168E+04  0.7816531E-02  0.8409366E-01
          3   -1    0    0  501    0  0.00000000000E+00  0.00000000000E+00  0.62742660137E+03  0.62742660137E+03  0.00000000000E+00 0.  1.
         -3   -1    0    0    0  501 -0.00000000000E+00 -0.00000000000E+00 -0.24549323479E+04  0.24549323479E+04  0.00000000000E+00 0. -1.
    2000013    1    1    2    0    0  0.43201787951E+03  0.42980756500E+03 -0.27279124207E+03  0.11611584960E+04  0.95000000000E+03 0.  0.
   -2000013    1    1    2    0    0 -0.43201787951E+03 -0.42980756500E+03 -0.15547145045E+04  0.19212004533E+04  0.95000000000E+03 0.  0.
<mgrwt>
<rscale>  0 0.24821683E+04</rscale>
<asrwt>0</asrwt>
<pdfrwt beam="1">  1        3 0.96527171E-01 0.24821683E+04</pdfrwt>
<pdfrwt beam="2">  1       -3 0.37768189E+00 0.24821683E+04</pdfrwt>
<totfact> 0.31076620E-02</totfact>
</mgrwt>
</event>
<event>
 4    1  0.1295381E-008  0.3586402E+04  0.7816531E-02  0.8093614E-01
         -2   -1    0    0    0  501 -0.00000000000E+00  0.00000000000E+00  0.14645852680E+04  0.14645852680E+04  0.00000000000E+00 0. -1.
          2   -1    0    0  501    0  0.00000000000E+00 -0.00000000000E+00 -0.21955498565E+04  0.21955498565E+04  0.00000000000E+00 0.  1.
    2000013    1    1    2    0    0  0.11944999406E+04  0.30226677354E+03 -0.12753693113E+04  0.20117808505E+04  0.95000000000E+03 0.  0.
   -2000013    1    1    2    0    0 -0.11944999406E+04 -0.30226677354E+03  0.54440472279E+03  0.16483542740E+04  0.95000000000E+03 0.  0.
<mgrwt>
<rscale>  0 0.35864021E+04</rscale>
<asrwt>0</asrwt>
<pdfrwt beam="2">  1        2 0.33777690E+00 0.35864021E+04</pdfrwt>
<pdfrwt beam="1">  1       -2 0.22532081E+00 0.35864021E+04</pdfrwt>
<totfact> 0.38767484E-01</totfact>
</mgrwt>
</event>
<event>
 4    1  0.1295381E-008  0.2208597E+04  0.7816531E-02  0.8514858E-01
          2   -1    0    0  501    0  0.00000000000E+00  0.00000000000E+00  0.15405389963E+04  0.15405389963E+04  0.00000000000E+00 0.  1.
         -2   -1    0    0    0  501 -0.00000000000E+00 -0.00000000000E+00 -0.79158988997E+03  0.79158988997E+03  0.00000000000E+00 0. -1.
    2000013    1    1    2    0    0  0.20913187613E+03 -0.33031840229E+03  0.80226231683E+03  0.13034458997E+04  0.95000000000E+03 0.  0.
   -2000013    1    1    2    0    0 -0.20913187613E+03  0.33031840229E+03 -0.53313210459E+02  0.10286829866E+04  0.95000000000E+03 0.  0.
<mgrwt>
<rscale>  0 0.22085969E+04</rscale>
<asrwt>0</asrwt>
<pdfrwt beam="1">  1        2 0.23700600E+00 0.22085969E+04</pdfrwt>
<pdfrwt beam="2">  1       -2 0.12178306E+00 0.22085969E+04</pdfrwt>
<totfact> 0.56310245E+00</totfact>
</mgrwt>
</event>
<event>
 4    1  0.1295381E-008  0.2073928E+04  0.7816531E-02  0.8572816E-01
         -1   -1    0    0    0  501 -0.00000000000E+00  0.00000000000E+00  0.86859917193E+03  0.86859917193E+03  0.00000000000E+00 0.  1.
          1   -1    0    0  501    0  0.00000000000E+00 -0.00000000000E+00 -0.12379638159E+04  0.12379638159E+04  0.00000000000E+00 0. -1.
    2000013    1    1    2    0    0  0.20980977166E+03 -0.71068035387E+02 -0.54196086982E+03  0.11159266958E+04  0.95000000000E+03 0.  0.
   -2000013    1    1    2    0    0 -0.20980977166E+03  0.71068035387E+02  0.17259622586E+03  0.99063629205E+03  0.95000000000E+03 0.  0.
<mgrwt>
<rscale>  0 0.20739280E+04</rscale>
<asrwt>0</asrwt>
<pdfrwt beam="2">  1        1 0.19045597E+00 0.20739280E+04</pdfrwt>
<pdfrwt beam="1">  1       -1 0.13363064E+00 0.20739280E+04</pdfrwt>
<totfact> 0.43701113E+00</totfact>
</mgrwt>
</event>
<event>
 4    1  0.1295381E-008  0.3322195E+04  0.7816531E-02  0.8157271E-01
         -2   -1    0    0    0  501 -0.00000000000E+00  0.00000000000E+00  0.12606854312E+04  0.12606854312E+04  0.00000000000E+00 0. -1.
          2   -1    0    0  501    0  0.00000000000E+00 -0.00000000000E+00 -0.21886863052E+04  0.21886863052E+04  0.00000000000E+00 0.  1.
    2000013    1    1    2    0    0 -0.11304660789E+04  0.69935430675E+03 -0.15304450869E+03  0.16410279168E+04  0.95000000000E+03 0.  0.
   -2000013    1    1    2    0    0  0.11304660789E+04 -0.69935430675E+03 -0.77495636534E+03  0.18083438197E+04  0.95000000000E+03 0.  0.
<mgrwt>
<rscale>  0 0.33221950E+04</rscale>
<asrwt>0</asrwt>
<pdfrwt beam="2">  1        2 0.33672097E+00 0.33221950E+04</pdfrwt>
<pdfrwt beam="1">  1       -2 0.19395161E+00 0.33221950E+04</pdfrwt>
<totfact> 0.63715477E-01</totfact>
</mgrwt>
</event>
<event>
 4    1  0.1295381E-008  0.2706482E+04  0.7816531E-02  0.8332905E-01
          2   -1    0    0  501    0  0.00000000000E+00  0.00000000000E+00  0.16521194198E+04  0.16521194198E+04  0.00000000000E+00 0.  1.
         -2   -1    0    0    0  501 -0.00000000000E+00 -0.00000000000E+00 -0.11084311607E+04  0.11084311607E+04  0.00000000000E+00 0. -1.
    2000013    1    1    2    0    0 -0.70768597156E+03 -0.64948835106E+03  0.35154670571E+03  0.13959726497E+04  0.95000000000E+03 0.  0.
   -2000013    1    1    2    0    0  0.70768597156E+03  0.64948835106E+03  0.19214155342E+03  0.13645779307E+04  0.95000000000E+03 0.  0.
<mgrwt>
<rscale>  0 0.27064816E+04</rscale>
<asrwt>0</asrwt>
<pdfrwt beam="1">  1        2 0.25417222E+00 0.27064816E+04</pdfrwt>
<pdfrwt beam="2">  1       -2 0.17052787E+00 0.27064816E+04</pdfrwt>
<totfact> 0.19324207E+00</totfact>
</mgrwt>
</event>
<event>
 4    1  0.1295381E-008  0.2274181E+04  0.7816531E-02  0.8488171E-01
          2   -1    0    0  501    0  0.00000000000E+00  0.00000000000E+00  0.19873116685E+04  0.19873116685E+04  0.00000000000E+00 0.  1.
         -2   -1    0    0    0  501 -0.00000000000E+00 -0.00000000000E+00 -0.65061503034E+03  0.65061503034E+03  0.00000000000E+00 0. -1.
    2000013    1    1    2    0    0 -0.22295078710E+03 -0.58070789407E+03  0.73742238243E+03  0.13539647269E+04  0.95000000000E+03 0.  0.
   -2000013    1    1    2    0    0  0.22295078710E+03  0.58070789407E+03  0.59927425576E+03  0.12839619719E+04  0.95000000000E+03 0.  0.
<mgrwt>
<rscale>  0 0.22741810E+04</rscale>
<asrwt>0</asrwt>
<pdfrwt beam="1">  1        2 0.30574025E+00 0.22741810E+04</pdfrwt>
<pdfrwt beam="2">  1       -2 0.10009462E+00 0.22741810E+04</pdfrwt>
<totfact> 0.50844013E+00</totfact>
</mgrwt>
</event>
<event>
 4    1  0.1295381E-008  0.2105907E+04  0.7816531E-02  0.8558646E-01
          2   -1    0    0  501    0  0.00000000000E+00  0.00000000000E+00  0.11523214324E+04  0.11523214324E+04  0.00000000000E+00 0.  1.
         -2   -1    0    0    0  501 -0.00000000000E+00 -0.00000000000E+00 -0.96215472688E+03  0.96215472688E+03  0.00000000000E+00 0. -1.
    2000013    1    1    2    0    0 -0.41359071583E+03  0.11409131290E+03  0.24447519228E+03  0.10706737260E+04  0.95000000000E+03 0.  0.
   -2000013    1    1    2    0    0  0.41359071583E+03 -0.11409131290E+03 -0.54308486798E+02  0.10438024332E+04  0.95000000000E+03 0.  0.
<mgrwt>
<rscale>  0 0.21059074E+04</rscale>
<asrwt>0</asrwt>
<pdfrwt beam="1">  1        2 0.17728022E+00 0.21059074E+04</pdfrwt>
<pdfrwt beam="2">  1       -2 0.14802380E+00 0.21059074E+04</pdfrwt>
<totfact> 0.57848642E+00</totfact>
</mgrwt>
</event>
<event>
 4    1  0.1295381E-008  0.2312232E+04  0.7816531E-02  0.8473114E-01
          2   -1    0    0  501    0  0.00000000000E+00  0.00000000000E+00  0.13696817481E+04  0.13696817481E+04  0.00000000000E+00 0.  1.
         -2   -1    0    0    0  501 -0.00000000000E+00 -0.00000000000E+00 -0.97585004335E+03  0.97585004335E+03  0.00000000000E+00 0. -1.
    2000013    1    1    2    0    0 -0.24168165180E+03 -0.30486615164E+03  0.73631681861E+03  0.12633352083E+04  0.95000000000E+03 0.  0.
   -2000013    1    1    2    0    0  0.24168165180E+03  0.30486615164E+03 -0.34248511389E+03  0.10821965831E+04  0.95000000000E+03 0.  0.
<mgrwt>
<rscale>  0 0.23122318E+04</rscale>
<asrwt>0</asrwt>
<pdfrwt beam="1">  1        2 0.21072027E+00 0.23122318E+04</pdfrwt>
<pdfrwt beam="2">  1       -2 0.15013078E+00 0.23122318E+04</pdfrwt>
<totfact> 0.40787223E+00</totfact>
</mgrwt>
</event>
<event>
 4    1  0.1295381E-008  0.2594744E+04  0.7816531E-02  0.8369989E-01
          2   -1    0    0  501    0  0.00000000000E+00  0.00000000000E+00  0.19828428511E+04  0.19828428511E+04  0.00000000000E+00 0.  1.
         -2   -1    0    0    0  501 -0.00000000000E+00 -0.00000000000E+00 -0.84886934273E+03  0.84886934273E+03  0.00000000000E+00 0. -1.
    2000013    1    1    2    0    0 -0.79140738072E+03 -0.16538981374E+03  0.95589574401E+03  0.15715966741E+04  0.95000000000E+03 0.  0.
   -2000013    1    1    2    0    0  0.79140738072E+03  0.16538981374E+03  0.17807776433E+03  0.12601155197E+04  0.95000000000E+03 0.  0.
<mgrwt>
<rscale>  0 0.25947443E+04</rscale>
<asrwt>0</asrwt>
<pdfrwt beam="1">  1        2 0.30505274E+00 0.25947443E+04</pdfrwt>
<pdfrwt beam="2">  1       -2 0.13059528E+00 0.25947443E+04</pdfrwt>
<totfact> 0.25947501E+00</totfact>
</mgrwt>
</event>
<event>
 4    1  0.1295381E-008  0.2513708E+04  0.7816531E-02  0.8398118E-01
         -2   -1    0    0    0  501 -0.00000000000E+00  0.00000000000E+00  0.13418746247E+04  0.13418746247E+04  0.00000000000E+00 0. -1.
          2   -1    0    0  501    0  0.00000000000E+00 -0.00000000000E+00 -0.11772201062E+04  0.11772201062E+04  0.00000000000E+00 0.  1.
    2000013    1    1    2    0    0 -0.74995767821E+03  0.29940490582E+03 -0.76448286406E+02  0.12491693869E+04  0.95000000000E+03 0.  0.
   -2000013    1    1    2    0    0  0.74995767821E+03 -0.29940490582E+03  0.24110280483E+03  0.12699253440E+04  0.95000000000E+03 0.  0.
<mgrwt>
<rscale>  0 0.25137078E+04</rscale>
<asrwt>0</asrwt>
<pdfrwt beam="2">  1        2 0.18111079E+00 0.25137078E+04</pdfrwt>
<pdfrwt beam="1">  1       -2 0.20644225E+00 0.25137078E+04</pdfrwt>
<totfact> 0.21022642E+00</totfact>
</mgrwt>
</event>
<event>
 4    1  0.1295381E-008  0.2302362E+04  0.7816531E-02  0.8476990E-01
          2   -1    0    0  501    0  0.00000000000E+00  0.00000000000E+00  0.83063796766E+03  0.83063796766E+03  0.00000000000E+00 0.  1.
         -2   -1    0    0    0  501 -0.00000000000E+00 -0.00000000000E+00 -0.15954217478E+04  0.15954217478E+04  0.00000000000E+00 0. -1.
    2000013    1    1    2    0    0  0.21214765693E+03  0.45808142191E+03  0.49343683589E+02  0.10769308318E+04  0.95000000000E+03 0.  0.
   -2000013    1    1    2    0    0 -0.21214765693E+03 -0.45808142191E+03 -0.81412746371E+03  0.13491288836E+04  0.95000000000E+03 0.  0.
<mgrwt>
<rscale>  0 0.23023622E+04</rscale>
<asrwt>0</asrwt>
<pdfrwt beam="1">  1        2 0.12779046E+00 0.23023622E+04</pdfrwt>
<pdfrwt beam="2">  1       -2 0.24544950E+00 0.23023622E+04</pdfrwt>
<totfact> 0.20344712E+00</totfact>
</mgrwt>
</event>
<event>
 4    1  0.1295381E-008  0.2125549E+04  0.7816531E-02  0.8550072E-01
          2   -1    0    0  501    0  0.00000000000E+00  0.00000000000E+00  0.25077280081E+04  0.25077280081E+04  0.00000000000E+00 0.  1.
         -2   -1    0    0    0  501 -0.00000000000E+00 -0.00000000000E+00 -0.45040347527E+03  0.45040347527E+03  0.00000000000E+00 0. -1.
    2000013    1    1    2    0    0 -0.27194386732E+03  0.29693107375E+03  0.13831173830E+04  0.17255825755E+04  0.95000000000E+03 0.  0.
   -2000013    1    1    2    0    0  0.27194386732E+03 -0.29693107375E+03  0.67420714981E+03  0.12325489079E+04  0.95000000000E+03 0.  0.
<mgrwt>
<rscale>  0 0.21255488E+04</rscale>
<asrwt>0</asrwt>
<pdfrwt beam="1">  1        2 0.38580430E+00 0.21255488E+04</pdfrwt>
<pdfrwt beam="2">  1       -2 0.69292844E-01 0.21255488E+04</pdfrwt>
<totfact> 0.60235607E+00</totfact>
</mgrwt>
</event>
<event>
 4    1  0.1295381E-008  0.2281414E+04  0.7816531E-02  0.8485285E-01
          2   -1    0    0  501    0  0.00000000000E+00  0.00000000000E+00  0.29801633848E+04  0.29801633848E+04  0.00000000000E+00 0.  1.
         -2   -1    0    0    0  501 -0.00000000000E+00 -0.00000000000E+00 -0.43662465903E+03  0.43662465903E+03  0.00000000000E+00 0. -1.
    2000013    1    1    2    0    0 -0.34781026353E+03 -0.43882981836E+03  0.17088436358E+04  0.20337625624E+04  0.95000000000E+03 0.  0.
   -2000013    1    1    2    0    0  0.34781026353E+03  0.43882981836E+03  0.83469509000E+03  0.13830254814E+04  0.95000000000E+03 0.  0.
<mgrwt>
<rscale>  0 0.22814143E+04</rscale>
<asrwt>0</asrwt>
<pdfrwt beam="1">  1        2 0.45848666E+00 0.22814143E+04</pdfrwt>
<pdfrwt beam="2">  1       -2 0.67173026E-01 0.22814143E+04</pdfrwt>
<totfact> 0.33108028E+00</totfact>
</mgrwt>
</event>
