<event>
 4    1  0.2069825E-008  0.2771457E+04  0.7816531E-02  0.8312185E-01
         -2   -1    0    0    0  501 -0.00000000000E+00  0.00000000000E+00  0.52791786453E+03  0.52791786453E+03  0.00000000000E+00 0. -1.
          2   -1    0    0  501    0  0.00000000000E+00 -0.00000000000E+00 -0.36373906155E+04  0.36373906155E+04  0.00000000000E+00 0.  1.
    2000013    1    1    2    0    0  0.89024574905E+03  0.47444816831E+03 -0.15393411928E+04  0.20711614775E+04  0.95000000000E+03 0.  0.
   -2000013    1    1    2    0    0 -0.89024574905E+03 -0.47444816831E+03 -0.15701315581E+04  0.20941470025E+04  0.95000000000E+03 0.  0.
<mgrwt>
<rscale>  0 0.27714570E+04</rscale>
<asrwt>0</asrwt>
<pdfrwt beam="2">  1        2 0.55959858E+00 0.27714570E+04</pdfrwt>
<pdfrwt beam="1">  1       -2 0.81218129E-01 0.27714570E+04</pdfrwt>
<totfact> 0.75603977E-01</totfact>
</mgrwt>
</event>
<event>
 4    1  0.2069825E-008  0.3019860E+04  0.7816531E-02  0.8238082E-01
          1   -1    0    0  501    0  0.00000000000E+00  0.00000000000E+00  0.21928946265E+04  0.21928946265E+04  0.00000000000E+00 0.  1.
         -1   -1    0    0    0  501 -0.00000000000E+00 -0.00000000000E+00 -0.10396707191E+04  0.10396707191E+04  0.00000000000E+00 0. -1.
    2000013    1    1    2    0    0 -0.77758433136E+03 -0.35565229113E+03 -0.28391597449E+03  0.13092876785E+04  0.95000000000E+03 0.  0.
   -2000013    1    1    2    0    0  0.77758433136E+03  0.35565229113E+03  0.14371398819E+04  0.19232776671E+04  0.95000000000E+03 0.  0.
<mgrwt>
<rscale>  0 0.30198598E+04</rscale>
<asrwt>0</asrwt>
<pdfrwt beam="1">  1        1 0.33736840E+00 0.30198598E+04</pdfrwt>
<pdfrwt beam="2">  1       -1 0.15994934E+00 0.30198598E+04</pdfrwt>
<totfact> 0.54739401E-01</totfact>
</mgrwt>
</event>
<event>
 4    1  0.2069825E-008  0.2076278E+04  0.7816531E-02  0.8571766E-01
         -2   -1    0    0    0  501 -0.00000000000E+00  0.00000000000E+00  0.16280987153E+04  0.16280987153E+04  0.00000000000E+00 0. -1.
          2   -1    0    0  501    0  0.00000000000E+00 -0.00000000000E+00 -0.66195767192E+03  0.66195767192E+03  0.00000000000E+00 0.  1.
    2000013    1    1    2    0    0 -0.11317237288E+03 -0.40213267072E+03  0.51253767226E+03  0.11574599502E+04  0.95000000000E+03 0.  0.
   -2000013    1    1    2    0    0  0.11317237288E+03  0.40213267072E+03  0.45360337112E+03  0.11325964370E+04  0.95000000000E+03 0.  0.
<mgrwt>
<rscale>  0 0.20762779E+04</rscale>
<asrwt>0</asrwt>
<pdfrwt beam="2">  1        2 0.10183964E+00 0.20762779E+04</pdfrwt>
<pdfrwt beam="1">  1       -2 0.25047673E+00 0.20762779E+04</pdfrwt>
<totfact> 0.25900124E+00</totfact>
</mgrwt>
</event>
<event>
 4    1  0.2069825E-008  0.2417774E+04  0.7816531E-02  0.8432879E-01
          2   -1    0    0  501    0  0.00000000000E+00  0.00000000000E+00  0.22657623196E+04  0.22657623196E+04  0.00000000000E+00 0.  1.
         -2   -1    0    0    0  501 -0.00000000000E+00 -0.00000000000E+00 -0.64499612844E+03  0.64499612844E+03  0.00000000000E+00 0. -1.
    2000013    1    1    2    0    0 -0.45694463749E+02 -0.39940029270E+03  0.51544577508E+02  0.10328433673E+04  0.95000000000E+03 0.  0.
   -2000013    1    1    2    0    0  0.45694463749E+02  0.39940029270E+03  0.15692216136E+04  0.18779150808E+04  0.95000000000E+03 0.  0.
<mgrwt>
<rscale>  0 0.24177741E+04</rscale>
<asrwt>0</asrwt>
<pdfrwt beam="1">  1        2 0.34857881E+00 0.24177741E+04</pdfrwt>
<pdfrwt beam="2">  1       -2 0.99230175E-01 0.24177741E+04</pdfrwt>
<totfact> 0.35806328E+00</totfact>
</mgrwt>
</event>
<event>
 4    1  0.2069825E-008  0.2900806E+04  0.7816531E-02  0.8272638E-01
          1   -1    0    0  501    0  0.00000000000E+00  0.00000000000E+00  0.14340458383E+04  0.14340458383E+04  0.00000000000E+00 0.  1.
         -1   -1    0    0    0  501 -0.00000000000E+00 -0.00000000000E+00 -0.14669466238E+04  0.14669466238E+04  0.00000000000E+00 0. -1.
    2000013    1    1    2    0    0 -0.18724966632E+03 -0.53416714489E+03 -0.95500514710E+03  0.14611405843E+04  0.95000000000E+03 0.  0.
   -2000013    1    1    2    0    0  0.18724966632E+03  0.53416714489E+03  0.92210436165E+03  0.14398518778E+04  0.95000000000E+03 0.  0.
<mgrwt>
<rscale>  0 0.29008059E+04</rscale>
<asrwt>0</asrwt>
<pdfrwt beam="1">  1        1 0.22062244E+00 0.29008059E+04</pdfrwt>
<pdfrwt beam="2">  1       -1 0.22568410E+00 0.29008059E+04</pdfrwt>
<totfact> 0.62937413E-01</totfact>
</mgrwt>
</event>
<event>
 4    1  0.2069825E-008  0.2136873E+04  0.7816531E-02  0.8545172E-01
          1   -1    0    0  501    0  0.00000000000E+00  0.00000000000E+00  0.21318126489E+04  0.21318126489E+04  0.00000000000E+00 0.  1.
         -1   -1    0    0    0  501 -0.00000000000E+00 -0.00000000000E+00 -0.53548621259E+03  0.53548621259E+03  0.00000000000E+00 0. -1.
    2000013    1    1    2    0    0  0.25599601268E+03 -0.26564797051E+03  0.39765306296E+03  0.10939519008E+04  0.95000000000E+03 0.  0.
   -2000013    1    1    2    0    0 -0.25599601268E+03  0.26564797051E+03  0.11986733733E+04  0.15733469607E+04  0.95000000000E+03 0.  0.
<mgrwt>
<rscale>  0 0.21368727E+04</rscale>
<asrwt>0</asrwt>
<pdfrwt beam="1">  1        1 0.32797117E+00 0.21368727E+04</pdfrwt>
<pdfrwt beam="2">  1       -1 0.82382495E-01 0.21368727E+04</pdfrwt>
<totfact> 0.32555368E+00</totfact>
</mgrwt>
</event>
<event>
 4    1  0.2069825E-008  0.3210682E+04  0.7816531E-02  0.8186002E-01
          2   -1    0    0  501    0  0.00000000000E+00  0.00000000000E+00  0.17887813075E+04  0.17887813075E+04  0.00000000000E+00 0.  1.
         -2   -1    0    0    0  501 -0.00000000000E+00 -0.00000000000E+00 -0.14407128400E+04  0.14407128400E+04  0.00000000000E+00 0. -1.
    2000013    1    1    2    0    0 -0.70699520301E+03 -0.99776316223E+03  0.59989016075E+03  0.16606449801E+04  0.95000000000E+03 0.  0.
   -2000013    1    1    2    0    0  0.70699520301E+03  0.99776316223E+03 -0.25182169323E+03  0.15688491674E+04  0.95000000000E+03 0.  0.
<mgrwt>
<rscale>  0 0.32106823E+04</rscale>
<asrwt>0</asrwt>
<pdfrwt beam="1">  1        2 0.27519713E+00 0.32106823E+04</pdfrwt>
<pdfrwt beam="2">  1       -2 0.22164813E+00 0.32106823E+04</pdfrwt>
<totfact> 0.71064677E-01</totfact>
</mgrwt>
</event>
<event>
 4    1  0.2069825E-008  0.2963212E+04  0.7816531E-02  0.8254315E-01
          1   -1    0    0  501    0  0.00000000000E+00  0.00000000000E+00  0.15809527497E+04  0.15809527497E+04  0.00000000000E+00 0.  1.
         -1   -1    0    0    0  501 -0.00000000000E+00 -0.00000000000E+00 -0.13885019225E+04  0.13885019225E+04  0.00000000000E+00 0. -1.
    2000013    1    1    2    0    0 -0.43722258457E+03 -0.94371996630E+03 -0.36396421861E+03  0.14549023732E+04  0.95000000000E+03 0.  0.
   -2000013    1    1    2    0    0  0.43722258457E+03  0.94371996630E+03  0.55641504583E+03  0.15145522990E+04  0.95000000000E+03 0.  0.
<mgrwt>
<rscale>  0 0.29632117E+04</rscale>
<asrwt>0</asrwt>
<pdfrwt beam="1">  1        1 0.24322350E+00 0.29632117E+04</pdfrwt>
<pdfrwt beam="2">  1       -1 0.21361568E+00 0.29632117E+04</pdfrwt>
<totfact> 0.59659148E-01</totfact>
</mgrwt>
</event>
<event>
 4    1  0.2069825E-008  0.2730807E+04  0.7816531E-02  0.8325078E-01
         -2   -1    0    0    0  501 -0.00000000000E+00  0.00000000000E+00  0.79685172445E+03  0.79685172445E+03  0.00000000000E+00 0. -1.
          2   -1    0    0  501    0  0.00000000000E+00 -0.00000000000E+00 -0.23396153316E+04  0.23396153316E+04  0.00000000000E+00 0.  1.
    2000013    1    1    2    0    0 -0.53333174796E+03 -0.64662409264E+03 -0.18656697361E+03  0.12805751466E+04  0.95000000000E+03 0.  0.
   -2000013    1    1    2    0    0  0.53333174796E+03  0.64662409264E+03 -0.13561966335E+04  0.18558919094E+04  0.95000000000E+03 0.  0.
<mgrwt>
<rscale>  0 0.27308068E+04</rscale>
<asrwt>0</asrwt>
<pdfrwt beam="2">  1        2 0.35994081E+00 0.27308068E+04</pdfrwt>
<pdfrwt beam="1">  1       -2 0.12259258E+00 0.27308068E+04</pdfrwt>
<totfact> 0.18960052E+00</totfact>
</mgrwt>
</event>
<event>
 4    1  0.2069825E-008  0.2317609E+04  0.7816531E-02  0.8471011E-01
          2   -1    0    0  501    0  0.00000000000E+00  0.00000000000E+00  0.20861346670E+04  0.20861346670E+04  0.00000000000E+00 0.  1.
         -2   -1    0    0    0  501 -0.00000000000E+00 -0.00000000000E+00 -0.64369161180E+03  0.64369161180E+03  0.00000000000E+00 0. -1.
    2000013    1    1    2    0    0  0.49662298517E+03 -0.37874631699E+03  0.45720081913E+03  0.12254043215E+04  0.95000000000E+03 0.  0.
   -2000013    1    1    2    0    0 -0.49662298517E+03  0.37874631699E+03  0.98524223612E+03  0.15044219574E+04  0.95000000000E+03 0.  0.
<mgrwt>
<rscale>  0 0.23176086E+04</rscale>
<asrwt>0</asrwt>
<pdfrwt beam="1">  1        2 0.32094379E+00 0.23176086E+04</pdfrwt>
<pdfrwt beam="2">  1       -2 0.99029480E-01 0.23176086E+04</pdfrwt>
<totfact> 0.45770727E+00</totfact>
</mgrwt>
</event>
<event>
 4    1  0.2069825E-008  0.2098742E+04  0.7816531E-02  0.8561798E-01
         -2   -1    0    0    0  501 -0.00000000000E+00  0.00000000000E+00  0.34250806090E+03  0.34250806090E+03  0.00000000000E+00 0. -1.
          2   -1    0    0  501    0  0.00000000000E+00 -0.00000000000E+00 -0.32150467594E+04  0.32150467594E+04  0.00000000000E+00 0.  1.
    2000013    1    1    2    0    0 -0.20688117603E+03  0.28721531105E+03 -0.97706916417E+03  0.14079973748E+04  0.95000000000E+03 0.  0.
   -2000013    1    1    2    0    0  0.20688117603E+03 -0.28721531105E+03 -0.18954695344E+04  0.21495574455E+04  0.95000000000E+03 0.  0.
<mgrwt>
<rscale>  0 0.20987419E+04</rscale>
<asrwt>0</asrwt>
<pdfrwt beam="2">  1        2 0.49462259E+00 0.20987419E+04</pdfrwt>
<pdfrwt beam="1">  1       -2 0.52693547E-01 0.20987419E+04</pdfrwt>
<totfact> 0.39809390E+00</totfact>
</mgrwt>
</event>
<event>
 4    1  0.2069825E-008  0.2738977E+04  0.7816531E-02  0.8322468E-01
          2   -1    0    0  501    0  0.00000000000E+00  0.00000000000E+00  0.13388600150E+04  0.13388600150E+04  0.00000000000E+00 0.  1.
         -2   -1    0    0    0  501 -0.00000000000E+00 -0.00000000000E+00 -0.14008179589E+04  0.14008179589E+04  0.00000000000E+00 0. -1.
    2000013    1    1    2    0    0  0.88633963672E+03 -0.42497199264E+03  0.51504280323E+02  0.13679736244E+04  0.95000000000E+03 0.  0.
   -2000013    1    1    2    0    0 -0.88633963672E+03  0.42497199264E+03 -0.11346222427E+03  0.13717043495E+04  0.95000000000E+03 0.  0.
<mgrwt>
<rscale>  0 0.27389773E+04</rscale>
<asrwt>0</asrwt>
<pdfrwt beam="1">  1        2 0.20597846E+00 0.27389773E+04</pdfrwt>
<pdfrwt beam="2">  1       -2 0.21551045E+00 0.27389773E+04</pdfrwt>
<totfact> 0.14486756E+00</totfact>
</mgrwt>
</event>
<event>
 4    1  0.2069825E-008  0.2490846E+04  0.7816531E-02  0.8406254E-01
         -1   -1    0    0    0  501 -0.00000000000E+00  0.00000000000E+00  0.90694990875E+03  0.90694990875E+03  0.00000000000E+00 0. -1.
          1   -1    0    0  501    0  0.00000000000E+00 -0.00000000000E+00 -0.17102139945E+04  0.17102139945E+04  0.00000000000E+00 0.  1.
    2000013    1    1    2    0    0  0.52760815416E+02 -0.75886337769E+03 -0.67946781582E+03  0.13938557466E+04  0.95000000000E+03 0.  0.
   -2000013    1    1    2    0    0 -0.52760815416E+02  0.75886337769E+03 -0.12379626994E+03  0.12233081566E+04  0.95000000000E+03 0.  0.
<mgrwt>
<rscale>  0 0.24908460E+04</rscale>
<asrwt>0</asrwt>
<pdfrwt beam="2">  1        1 0.26310984E+00 0.24908460E+04</pdfrwt>
<pdfrwt beam="1">  1       -1 0.13953076E+00 0.24908460E+04</pdfrwt>
<totfact> 0.17632719E+00</totfact>
</mgrwt>
</event>
<event>
 4    1  0.2069825E-008  0.2533162E+04  0.7816531E-02  0.8391266E-01
          2   -1    0    0  501    0  0.00000000000E+00  0.00000000000E+00  0.17456345564E+04  0.17456345564E+04  0.00000000000E+00 0.  1.
         -2   -1    0    0    0  501 -0.00000000000E+00 -0.00000000000E+00 -0.91899413292E+03  0.91899413292E+03  0.00000000000E+00 0. -1.
    2000013    1    1    2    0    0 -0.96396941459E+02  0.72120040667E+03  0.84995995485E+03  0.14677718902E+04  0.95000000000E+03 0.  0.
   -2000013    1    1    2    0    0  0.96396941459E+02 -0.72120040667E+03 -0.23319531397E+02  0.11968567991E+04  0.95000000000E+03 0.  0.
<mgrwt>
<rscale>  0 0.25331624E+04</rscale>
<asrwt>0</asrwt>
<pdfrwt beam="1">  1        2 0.26855916E+00 0.25331624E+04</pdfrwt>
<pdfrwt beam="2">  1       -2 0.14138371E+00 0.25331624E+04</pdfrwt>
<totfact> 0.28806721E+00</totfact>
</mgrwt>
</event>
<event>
 4    1  0.2069825E-008  0.2864130E+04  0.7816531E-02  0.8283630E-01
          2   -1    0    0  501    0  0.00000000000E+00  0.00000000000E+00  0.11339207641E+04  0.11339207641E+04  0.00000000000E+00 0.  1.
         -2   -1    0    0    0  501 -0.00000000000E+00 -0.00000000000E+00 -0.18086015266E+04  0.18086015266E+04  0.00000000000E+00 0. -1.
    2000013    1    1    2    0    0 -0.84165215236E+03  0.66002303321E+03 -0.40472580387E+03  0.14867117159E+04  0.95000000000E+03 0.  0.
   -2000013    1    1    2    0    0  0.84165215236E+03 -0.66002303321E+03 -0.26995495870E+03  0.14558105748E+04  0.95000000000E+03 0.  0.
<mgrwt>
<rscale>  0 0.28641305E+04</rscale>
<asrwt>0</asrwt>
<pdfrwt beam="1">  1        2 0.17444935E+00 0.28641305E+04</pdfrwt>
<pdfrwt beam="2">  1       -2 0.27824639E+00 0.28641305E+04</pdfrwt>
<totfact> 0.77581137E-01</totfact>
</mgrwt>
</event>
<event>
 4    1  0.2069825E-008  0.2940415E+04  0.7816531E-02  0.8260953E-01
          2   -1    0    0  501    0  0.00000000000E+00  0.00000000000E+00  0.20480974797E+04  0.20480974797E+04  0.00000000000E+00 0. -1.
         -2   -1    0    0    0  501 -0.00000000000E+00 -0.00000000000E+00 -0.10553748940E+04  0.10553748940E+04  0.00000000000E+00 0.  1.
    2000013    1    1    2    0    0 -0.10558957151E+04  0.31392870543E+02  0.97085245143E+02  0.14240178434E+04  0.95000000000E+03 0.  0.
   -2000013    1    1    2    0    0  0.10558957151E+04 -0.31392870543E+02  0.89563734056E+03  0.16794545303E+04  0.95000000000E+03 0.  0.
<mgrwt>
<rscale>  0 0.29404154E+04</rscale>
<asrwt>0</asrwt>
<pdfrwt beam="1">  1        2 0.31509192E+00 0.29404154E+04</pdfrwt>
<pdfrwt beam="2">  1       -2 0.16236537E+00 0.29404154E+04</pdfrwt>
<totfact> 0.13076270E+00</totfact>
</mgrwt>
</event>
<event>
 4    1  0.2069825E-008  0.2137986E+04  0.7816531E-02  0.8544692E-01
         -2   -1    0    0    0  501 -0.00000000000E+00  0.00000000000E+00  0.66154175039E+03  0.66154175039E+03  0.00000000000E+00 0. -1.
          2   -1    0    0  501    0  0.00000000000E+00 -0.00000000000E+00 -0.17273978694E+04  0.17273978694E+04  0.00000000000E+00 0.  1.
    2000013    1    1    2    0    0  0.84384715865E+02  0.43573554224E+03 -0.30052521290E+03  0.10907802926E+04  0.95000000000E+03 0.  0.
   -2000013    1    1    2    0    0 -0.84384715865E+02 -0.43573554224E+03 -0.76533090612E+03  0.12981593272E+04  0.95000000000E+03 0.  0.
<mgrwt>
<rscale>  0 0.21379858E+04</rscale>
<asrwt>0</asrwt>
<pdfrwt beam="2">  1        2 0.26575351E+00 0.21379858E+04</pdfrwt>
<pdfrwt beam="1">  1       -2 0.10177566E+00 0.21379858E+04</pdfrwt>
<totfact> 0.68905686E+00</totfact>
</mgrwt>
</event>
<event>
 4    1  0.2069825E-008  0.2328727E+04  0.7816531E-02  0.8466680E-01
         -2   -1    0    0    0  501 -0.00000000000E+00  0.00000000000E+00  0.13735715968E+04  0.13735715968E+04  0.00000000000E+00 0. -1.
          2   -1    0    0  501    0  0.00000000000E+00 -0.00000000000E+00 -0.98701951663E+03  0.98701951663E+03  0.00000000000E+00 0.  1.
    2000013    1    1    2    0    0 -0.48383599508E+03 -0.42030435811E+03  0.40222501770E+03  0.12145114196E+04  0.95000000000E+03 0.  0.
   -2000013    1    1    2    0    0  0.48383599508E+03  0.42030435811E+03 -0.15672937516E+02  0.11460796938E+04  0.95000000000E+03 0.  0.
<mgrwt>
<rscale>  0 0.23287267E+04</rscale>
<asrwt>0</asrwt>
<pdfrwt beam="2">  1        2 0.15184916E+00 0.23287267E+04</pdfrwt>
<pdfrwt beam="1">  1       -2 0.21131871E+00 0.23287267E+04</pdfrwt>
<totfact> 0.26075556E+00</totfact>
</mgrwt>
</event>
<event>
 4    1  0.2069825E-008  0.3122631E+04  0.7816531E-02  0.8209554E-01
          2   -1    0    0  501    0  0.00000000000E+00  0.00000000000E+00  0.40290591721E+04  0.40290591721E+04  0.00000000000E+00 0. -1.
         -2   -1    0    0    0  501 -0.00000000000E+00 -0.00000000000E+00 -0.60503116225E+03  0.60503116225E+03  0.00000000000E+00 0.  1.
    2000013    1    1    2    0    0  0.31193003809E+03  0.11860792673E+04  0.19738186766E+04  0.25104869139E+04  0.95000000000E+03 0.  0.
   -2000013    1    1    2    0    0 -0.31193003809E+03 -0.11860792673E+04  0.14502093333E+04  0.21236034204E+04  0.95000000000E+03 0.  0.
<mgrwt>
<rscale>  0 0.31226312E+04</rscale>
<asrwt>0</asrwt>
<pdfrwt beam="1">  1        2 0.61985524E+00 0.31226312E+04</pdfrwt>
<pdfrwt beam="2">  1       -2 0.93081720E-01 0.31226312E+04</pdfrwt>
<totfact> 0.26801370E-01</totfact>
</mgrwt>
</event>
<event>
 4    1  0.2069825E-008  0.2762664E+04  0.7816531E-02  0.8314954E-01
         -2   -1    0    0    0  501 -0.00000000000E+00  0.00000000000E+00  0.94579683907E+03  0.94579683907E+03  0.00000000000E+00 0. -1.
          2   -1    0    0  501    0  0.00000000000E+00 -0.00000000000E+00 -0.20174296201E+04  0.20174296201E+04  0.00000000000E+00 0.  1.
    2000013    1    1    2    0    0  0.75840140687E+03  0.15284806837E+03  0.14850016031E+03  0.12341343215E+04  0.95000000000E+03 0.  0.
   -2000013    1    1    2    0    0 -0.75840140687E+03 -0.15284806837E+03 -0.12201329414E+04  0.17290921377E+04  0.95000000000E+03 0.  0.
<mgrwt>
<rscale>  0 0.27626643E+04</rscale>
<asrwt>0</asrwt>
<pdfrwt beam="2">  1        2 0.31037378E+00 0.27626643E+04</pdfrwt>
<pdfrwt beam="1">  1       -2 0.14550721E+00 0.27626643E+04</pdfrwt>
<totfact> 0.18516453E+00</totfact>
</mgrwt>
</event>
<event>
 4    1  0.2069825E-008  0.2290709E+04  0.7816531E-02  0.8481593E-01
         -2   -1    0    0    0  501 -0.00000000000E+00  0.00000000000E+00  0.20285364663E+04  0.20285364663E+04  0.00000000000E+00 0. -1.
          2   -1    0    0  501    0  0.00000000000E+00 -0.00000000000E+00 -0.64669139197E+03  0.64669139197E+03  0.00000000000E+00 0.  1.
    2000013    1    1    2    0    0 -0.51832581578E+03 -0.17253877035E+03  0.30199566799E+03  0.11367201336E+04  0.95000000000E+03 0.  0.
   -2000013    1    1    2    0    0  0.51832581578E+03  0.17253877035E+03  0.10798494063E+04  0.15385077247E+04  0.95000000000E+03 0.  0.
<mgrwt>
<rscale>  0 0.22907091E+04</rscale>
<asrwt>0</asrwt>
<pdfrwt beam="2">  1        2 0.99490985E-01 0.22907091E+04</pdfrwt>
<pdfrwt beam="1">  1       -2 0.31208253E+00 0.22907091E+04</pdfrwt>
<totfact> 0.11005873E+00</totfact>
</mgrwt>
</event>
<event>
 4    1  0.2069825E-008  0.2615946E+04  0.7816531E-02  0.8362805E-01
         -2   -1    0    0    0  501 -0.00000000000E+00  0.00000000000E+00  0.89080744964E+03  0.89080744964E+03  0.00000000000E+00 0. -1.
          2   -1    0    0  501    0  0.00000000000E+00 -0.00000000000E+00 -0.19204978423E+04  0.19204978423E+04  0.00000000000E+00 0.  1.
    2000013    1    1    2    0    0 -0.75699719569E+03 -0.61591025658E+02  0.21815457575E+01  0.12162824375E+04  0.95000000000E+03 0.  0.
   -2000013    1    1    2    0    0  0.75699719569E+03  0.61591025658E+02 -0.10318719384E+04  0.15950228544E+04  0.95000000000E+03 0.  0.
<mgrwt>
<rscale>  0 0.26159463E+04</rscale>
<asrwt>0</asrwt>
<pdfrwt beam="2">  1        2 0.29546120E+00 0.26159463E+04</pdfrwt>
<pdfrwt beam="1">  1       -2 0.13704730E+00 0.26159463E+04</pdfrwt>
<totfact> 0.24805137E+00</totfact>
</mgrwt>
</event>
<event>
 4    1  0.2069825E-008  0.2855358E+04  0.7816531E-02  0.8286285E-01
         -2   -1    0    0    0  501 -0.00000000000E+00  0.00000000000E+00  0.52636905781E+03  0.52636905781E+03  0.00000000000E+00 0. -1.
          2   -1    0    0  501    0  0.00000000000E+00 -0.00000000000E+00 -0.38723149611E+04  0.38723149611E+04  0.00000000000E+00 0.  1.
    2000013    1    1    2    0    0  0.40643508371E+03 -0.97311106262E+03 -0.14361553561E+04  0.20192020266E+04  0.95000000000E+03 0.  0.
   -2000013    1    1    2    0    0 -0.40643508371E+03  0.97311106262E+03 -0.19097905471E+04  0.23794819922E+04  0.95000000000E+03 0.  0.
<mgrwt>
<rscale>  0 0.28553576E+04</rscale>
<asrwt>0</asrwt>
<pdfrwt beam="2">  1        2 0.59574079E+00 0.28553576E+04</pdfrwt>
<pdfrwt beam="1">  1       -2 0.80979852E-01 0.28553576E+04</pdfrwt>
<totfact> 0.50339422E-01</totfact>
</mgrwt>
</event>
<event>
 4    1  0.2069825E-008  0.2798837E+04  0.7816531E-02  0.8303630E-01
          2   -1    0    0  501    0  0.00000000000E+00  0.00000000000E+00  0.21994559136E+04  0.21994559136E+04  0.00000000000E+00 0.  1.
         -2   -1    0    0    0  501 -0.00000000000E+00 -0.00000000000E+00 -0.89038920752E+03  0.89038920752E+03  0.00000000000E+00 0. -1.
    2000013    1    1    2    0    0 -0.69614467512E+03  0.36398690061E+03 -0.76734668609E+02  0.12351081256E+04  0.95000000000E+03 0.  0.
   -2000013    1    1    2    0    0  0.69614467512E+03 -0.36398690061E+03  0.13858013747E+04  0.18547369955E+04  0.95000000000E+03 0.  0.
<mgrwt>
<rscale>  0 0.27988368E+04</rscale>
<asrwt>0</asrwt>
<pdfrwt beam="1">  1        2 0.33837783E+00 0.27988368E+04</pdfrwt>
<pdfrwt beam="2">  1       -2 0.13698296E+00 0.27988368E+04</pdfrwt>
<totfact> 0.17088974E+00</totfact>
</mgrwt>
</event>
<event>
 4    1  0.2069825E-008  0.2552695E+04  0.7816531E-02  0.8384449E-01
          2   -1    0    0  501    0  0.00000000000E+00  0.00000000000E+00  0.14577632072E+04  0.14577632072E+04  0.00000000000E+00 0.  1.
         -2   -1    0    0    0  501 -0.00000000000E+00 -0.00000000000E+00 -0.11175089202E+04  0.11175089202E+04  0.00000000000E+00 0. -1.
    2000013    1    1    2    0    0 -0.35684806896E+03 -0.76902700158E+03  0.80912480461E+02  0.12758486991E+04  0.95000000000E+03 0.  0.
   -2000013    1    1    2    0    0  0.35684806896E+03  0.76902700158E+03  0.25934180648E+03  0.12994234283E+04  0.95000000000E+03 0.  0.
<mgrwt>
<rscale>  0 0.25526954E+04</rscale>
<asrwt>0</asrwt>
<pdfrwt beam="1">  1        2 0.22427126E+00 0.25526954E+04</pdfrwt>
<pdfrwt beam="2">  1       -2 0.17192445E+00 0.25526954E+04</pdfrwt>
<totfact> 0.24604038E+00</totfact>
</mgrwt>
</event>
<event>
 4    1  0.2069825E-008  0.1941583E+04  0.7816531E-02  0.8634430E-01
          2   -1    0    0  501    0  0.00000000000E+00  0.00000000000E+00  0.81649745708E+03  0.81649745708E+03  0.00000000000E+00 0.  1.
         -2   -1    0    0    0  501 -0.00000000000E+00 -0.00000000000E+00 -0.11542421766E+04  0.11542421766E+04  0.00000000000E+00 0. -1.
    2000013    1    1    2    0    0  0.60939388380E+02  0.16822472491E+03 -0.25921820560E+03  0.10008532586E+04  0.95000000000E+03 0.  0.
   -2000013    1    1    2    0    0 -0.60939388380E+02 -0.16822472491E+03 -0.78526513891E+02  0.96988637505E+03  0.95000000000E+03 0.  0.
<mgrwt>
<rscale>  0 0.19415827E+04</rscale>
<asrwt>0</asrwt>
<pdfrwt beam="1">  1        2 0.12561499E+00 0.19415827E+04</pdfrwt>
<pdfrwt beam="2">  1       -2 0.17757572E+00 0.19415827E+04</pdfrwt>
<totfact> 0.58944341E+00</totfact>
</mgrwt>
</event>
<event>
 4    1  0.2069825E-008  0.2322737E+04  0.7816531E-02  0.8469010E-01
          2   -1    0    0  501    0  0.00000000000E+00  0.00000000000E+00  0.21088927020E+04  0.21088927020E+04  0.00000000000E+00 0.  1.
         -2   -1    0    0    0  501 -0.00000000000E+00 -0.00000000000E+00 -0.63956639345E+03  0.63956639345E+03  0.00000000000E+00 0. -1.
    2000013    1    1    2    0    0 -0.59638302780E+03 -0.30050324510E+03  0.75522588325E+03  0.13852223832E+04  0.95000000000E+03 0.  0.
   -2000013    1    1    2    0    0  0.59638302780E+03  0.30050324510E+03  0.71410042526E+03  0.13632367122E+04  0.95000000000E+03 0.  0.
<mgrwt>
<rscale>  0 0.23227371E+04</rscale>
<asrwt>0</asrwt>
<pdfrwt beam="1">  1        2 0.32444503E+00 0.23227371E+04</pdfrwt>
<pdfrwt beam="2">  1       -2 0.98394831E-01 0.23227371E+04</pdfrwt>
<totfact> 0.45109625E+00</totfact>
</mgrwt>
</event>
<event>
 4    1  0.2069825E-008  0.2318655E+04  0.7816531E-02  0.8470602E-01
          2   -1    0    0  501    0  0.00000000000E+00  0.00000000000E+00  0.23203936769E+04  0.23203936769E+04  0.00000000000E+00 0.  1.
         -2   -1    0    0    0  501 -0.00000000000E+00 -0.00000000000E+00 -0.57922944019E+03  0.57922944019E+03  0.00000000000E+00 0. -1.
    2000013    1    1    2    0    0 -0.56052286642E+03  0.33970609432E+03  0.73385144251E+03  0.13677075908E+04  0.95000000000E+03 0.  0.
   -2000013    1    1    2    0    0  0.56052286642E+03 -0.33970609432E+03  0.10073127942E+04  0.15319155263E+04  0.95000000000E+03 0.  0.
<mgrwt>
<rscale>  0 0.23186551E+04</rscale>
<asrwt>0</asrwt>
<pdfrwt beam="1">  1        2 0.35698364E+00 0.23186551E+04</pdfrwt>
<pdfrwt beam="2">  1       -2 0.89112223E-01 0.23186551E+04</pdfrwt>
<totfact> 0.43200439E+00</totfact>
</mgrwt>
</event>
<event>
 4    1  0.2069825E-008  0.2498645E+04  0.7816531E-02  0.8403468E-01
         -2   -1    0    0    0  501 -0.00000000000E+00  0.00000000000E+00  0.87807450669E+03  0.87807450669E+03  0.00000000000E+00 0. -1.
          2   -1    0    0  501    0  0.00000000000E+00 -0.00000000000E+00 -0.17775334996E+04  0.17775334996E+04  0.00000000000E+00 0.  1.
    2000013    1    1    2    0    0 -0.42752984232E+03  0.32818976868E+03  0.19484784041E+03  0.11094845521E+04  0.95000000000E+03 0.  0.
   -2000013    1    1    2    0    0  0.42752984232E+03 -0.32818976868E+03 -0.10943068334E+04  0.15461234543E+04  0.95000000000E+03 0.  0.
<mgrwt>
<rscale>  0 0.24986451E+04</rscale>
<asrwt>0</asrwt>
<pdfrwt beam="2">  1        2 0.27346669E+00 0.24986451E+04</pdfrwt>
<pdfrwt beam="1">  1       -2 0.13508839E+00 0.24986451E+04</pdfrwt>
<totfact> 0.31201101E+00</totfact>
</mgrwt>
</event>
<event>
 4    1  0.2069825E-008  0.2205601E+04  0.7816531E-02  0.8516101E-01
          1   -1    0    0  501    0  0.00000000000E+00  0.00000000000E+00  0.39397568469E+04  0.39397568469E+04  0.00000000000E+00 0. -1.
         -1   -1    0    0    0  501 -0.00000000000E+00 -0.00000000000E+00 -0.30869134390E+03  0.30869134390E+03  0.00000000000E+00 0.  1.
    2000013    1    1    2    0    0  0.45048323142E+03  0.10497113533E+03  0.12072813642E+04  0.16043635416E+04  0.95000000000E+03 0.  0.
   -2000013    1    1    2    0    0 -0.45048323142E+03 -0.10497113533E+03  0.24237841388E+04  0.26440846493E+04  0.95000000000E+03 0.  0.
<mgrwt>
<rscale>  0 0.22056009E+04</rscale>
<asrwt>0</asrwt>
<pdfrwt beam="1">  1        1 0.60611640E+00 0.22056009E+04</pdfrwt>
<pdfrwt beam="2">  1       -1 0.47490979E-01 0.22056009E+04</pdfrwt>
<totfact> 0.43909173E-01</totfact>
</mgrwt>
</event>
<event>
 4    1  0.2069825E-008  0.2670350E+04  0.7816531E-02  0.8344690E-01
         -2   -1    0    0    0  501 -0.00000000000E+00  0.00000000000E+00  0.36917219389E+03  0.36917219389E+03  0.00000000000E+00 0.  1.
          2   -1    0    0  501    0  0.00000000000E+00 -0.00000000000E+00 -0.48288912895E+04  0.48288912895E+04  0.00000000000E+00 0. -1.
    2000013    1    1    2    0    0 -0.77730760561E+03 -0.70695582700E+02 -0.12165364621E+04  0.17296432993E+04  0.95000000000E+03 0.  0.
   -2000013    1    1    2    0    0  0.77730760561E+03  0.70695582700E+02 -0.32431826336E+04  0.34684201841E+04  0.95000000000E+03 0.  0.
<mgrwt>
<rscale>  0 0.26703501E+04</rscale>
<asrwt>0</asrwt>
<pdfrwt beam="2">  1        2 0.74290642E+00 0.26703501E+04</pdfrwt>
<pdfrwt beam="1">  1       -2 0.56795717E-01 0.26703501E+04</pdfrwt>
<totfact> 0.14172739E-01</totfact>
</mgrwt>
</event>
<event>
 4    1  0.2069825E-008  0.2290967E+04  0.7816531E-02  0.8481491E-01
          4   -1    0    0  501    0  0.00000000000E+00  0.00000000000E+00  0.15902868542E+04  0.15902868542E+04  0.00000000000E+00 0.  1.
         -4   -1    0    0    0  501 -0.00000000000E+00 -0.00000000000E+00 -0.82509174639E+03  0.82509174639E+03  0.00000000000E+00 0. -1.
    2000013    1    1    2    0    0 -0.40324934877E+02 -0.63317493716E+03  0.29378551708E+03  0.11795535306E+04  0.95000000000E+03 0.  0.
   -2000013    1    1    2    0    0  0.40324934877E+02  0.63317493716E+03  0.47140959069E+03  0.12358250700E+04  0.95000000000E+03 0.  0.
<mgrwt>
<rscale>  0 0.22909671E+04</rscale>
<asrwt>0</asrwt>
<pdfrwt beam="1">  1        4 0.24465952E+00 0.22909671E+04</pdfrwt>
<pdfrwt beam="2">  1       -4 0.12693719E+00 0.22909671E+04</pdfrwt>
<totfact> 0.56795776E-02</totfact>
</mgrwt>
</event>
<event>
 4    1  0.2069825E-008  0.2295083E+04  0.7816531E-02  0.8479862E-01
          1   -1    0    0  501    0  0.00000000000E+00  0.00000000000E+00  0.14822435003E+04  0.14822435003E+04  0.00000000000E+00 0.  1.
         -1   -1    0    0    0  501 -0.00000000000E+00 -0.00000000000E+00 -0.88841768808E+03  0.88841768808E+03  0.00000000000E+00 0. -1.
    2000013    1    1    2    0    0  0.53887335556E+03 -0.13280801749E+03  0.63373202832E+03  0.12697002585E+04  0.95000000000E+03 0.  0.
   -2000013    1    1    2    0    0 -0.53887335556E+03  0.13280801749E+03 -0.39906216145E+02  0.11009609298E+04  0.95000000000E+03 0.  0.
<mgrwt>
<rscale>  0 0.22950829E+04</rscale>
<asrwt>0</asrwt>
<pdfrwt beam="1">  1        1 0.22803746E+00 0.22950829E+04</pdfrwt>
<pdfrwt beam="2">  1       -1 0.13667964E+00 0.22950829E+04</pdfrwt>
<totfact> 0.27156495E+00</totfact>
</mgrwt>
</event>
<event>
 4    1  0.2069825E-008  0.3047386E+04  0.7816531E-02  0.8230327E-01
         -2   -1    0    0    0  501 -0.00000000000E+00  0.00000000000E+00  0.20272585702E+04  0.20272585702E+04  0.00000000000E+00 0. -1.
          2   -1    0    0  501    0  0.00000000000E+00 -0.00000000000E+00 -0.11452118445E+04  0.11452118445E+04  0.00000000000E+00 0.  1.
    2000013    1    1    2    0    0 -0.11299530006E+04 -0.33948887522E+03  0.61238240776E+03  0.16338784206E+04  0.95000000000E+03 0.  0.
   -2000013    1    1    2    0    0  0.11299530006E+04  0.33948887522E+03  0.26966431795E+03  0.15385919941E+04  0.95000000000E+03 0.  0.
<mgrwt>
<rscale>  0 0.30473861E+04</rscale>
<asrwt>0</asrwt>
<pdfrwt beam="2">  1        2 0.17618644E+00 0.30473861E+04</pdfrwt>
<pdfrwt beam="1">  1       -2 0.31188593E+00 0.30473861E+04</pdfrwt>
<totfact> 0.46820091E-01</totfact>
</mgrwt>
</event>
<event>
 4    1  0.2069825E-008  0.3194384E+04  0.7816531E-02  0.8190302E-01
         -1   -1    0    0    0  501 -0.00000000000E+00  0.00000000000E+00  0.11099129147E+04  0.11099129147E+04  0.00000000000E+00 0.  1.
          1   -1    0    0  501    0  0.00000000000E+00 -0.00000000000E+00 -0.22983989219E+04  0.22983989219E+04  0.00000000000E+00 0. -1.
    2000013    1    1    2    0    0  0.81724901960E+03 -0.85202533372E+03 -0.11326977121E+04  0.18919162868E+04  0.95000000000E+03 0.  0.
   -2000013    1    1    2    0    0 -0.81724901960E+03  0.85202533372E+03 -0.55788295106E+02  0.15163955497E+04  0.95000000000E+03 0.  0.
<mgrwt>
<rscale>  0 0.31943842E+04</rscale>
<asrwt>0</asrwt>
<pdfrwt beam="2">  1        1 0.35359983E+00 0.31943842E+04</pdfrwt>
<pdfrwt beam="1">  1       -1 0.17075583E+00 0.31943842E+04</pdfrwt>
<totfact> 0.37936864E-01</totfact>
</mgrwt>
</event>
<event>
 4    1  0.2069825E-008  0.3021156E+04  0.7816531E-02  0.8237715E-01
         -2   -1    0    0    0  501 -0.00000000000E+00  0.00000000000E+00  0.16264060663E+04  0.16264060663E+04  0.00000000000E+00 0. -1.
          2   -1    0    0  501    0  0.00000000000E+00 -0.00000000000E+00 -0.14029984812E+04  0.14029984812E+04  0.00000000000E+00 0.  1.
    2000013    1    1    2    0    0  0.18380744288E+03  0.11388479411E+04  0.33272666476E+03  0.15310019080E+04  0.95000000000E+03 0.  0.
   -2000013    1    1    2    0    0 -0.18380744288E+03 -0.11388479411E+04 -0.10931907964E+03  0.14984026395E+04  0.95000000000E+03 0.  0.
<mgrwt>
<rscale>  0 0.30211556E+04</rscale>
<asrwt>0</asrwt>
<pdfrwt beam="2">  1        2 0.21584592E+00 0.30211556E+04</pdfrwt>
<pdfrwt beam="1">  1       -2 0.25021632E+00 0.30211556E+04</pdfrwt>
<totfact> 0.78908905E-01</totfact>
</mgrwt>
</event>
<event>
 4    1  0.2069825E-008  0.2401342E+04  0.7816531E-02  0.8439001E-01
         -2   -1    0    0    0  501 -0.00000000000E+00  0.00000000000E+00  0.54437205188E+03  0.54437205188E+03  0.00000000000E+00 0. -1.
          2   -1    0    0  501    0  0.00000000000E+00 -0.00000000000E+00 -0.26482078345E+04  0.26482078345E+04  0.00000000000E+00 0.  1.
    2000013    1    1    2    0    0 -0.38098290909E+03  0.32448115340E+03 -0.33759935072E+03  0.11255706631E+04  0.95000000000E+03 0.  0.
   -2000013    1    1    2    0    0  0.38098290909E+03 -0.32448115340E+03 -0.17662364319E+04  0.20670092233E+04  0.95000000000E+03 0.  0.
<mgrwt>
<rscale>  0 0.24013416E+04</rscale>
<asrwt>0</asrwt>
<pdfrwt beam="2">  1        2 0.40741660E+00 0.24013416E+04</pdfrwt>
<pdfrwt beam="1">  1       -2 0.83749544E-01 0.24013416E+04</pdfrwt>
<totfact> 0.31939233E+00</totfact>
</mgrwt>
</event>
<event>
 4    1  0.2069825E-008  0.3451006E+04  0.7816531E-02  0.8125500E-01
         -2   -1    0    0    0  501 -0.00000000000E+00  0.00000000000E+00  0.93759170499E+03  0.93759170499E+03  0.00000000000E+00 0. -1.
          2   -1    0    0  501    0  0.00000000000E+00 -0.00000000000E+00 -0.31755400906E+04  0.31755400906E+04  0.00000000000E+00 0.  1.
    2000013    1    1    2    0    0 -0.14269453275E+04 -0.26111101797E+02 -0.88662082057E+03  0.19301428022E+04  0.95000000000E+03 0.  0.
   -2000013    1    1    2    0    0  0.14269453275E+04  0.26111101797E+02 -0.13513275650E+04  0.21829889934E+04  0.95000000000E+03 0.  0.
<mgrwt>
<rscale>  0 0.34510057E+04</rscale>
<asrwt>0</asrwt>
<pdfrwt beam="2">  1        2 0.48854462E+00 0.34510057E+04</pdfrwt>
<pdfrwt beam="1">  1       -2 0.14424488E+00 0.34510057E+04</pdfrwt>
<totfact> 0.36831255E-01</totfact>
</mgrwt>
</event>
<event>
 4    1  0.2069825E-008  0.3714568E+04  0.7816531E-02  0.8064741E-01
          2   -1    0    0  501    0  0.00000000000E+00  0.00000000000E+00  0.23033139390E+04  0.23033139390E+04  0.00000000000E+00 0. -1.
         -2   -1    0    0    0  501 -0.00000000000E+00 -0.00000000000E+00 -0.14976264541E+04  0.14976264541E+04  0.00000000000E+00 0.  1.
    2000013    1    1    2    0    0 -0.43251513403E+03 -0.82328973191E+03 -0.92428280476E+03  0.16191584317E+04  0.95000000000E+03 0.  0.
   -2000013    1    1    2    0    0  0.43251513403E+03  0.82328973191E+03  0.17299702897E+04  0.21817819614E+04  0.95000000000E+03 0.  0.
<mgrwt>
<rscale>  0 0.37145680E+04</rscale>
<asrwt>0</asrwt>
<pdfrwt beam="1">  1        2 0.35435599E+00 0.37145680E+04</pdfrwt>
<pdfrwt beam="2">  1       -2 0.23040407E+00 0.37145680E+04</pdfrwt>
<totfact> 0.30982462E-01</totfact>
</mgrwt>
</event>
<event>
 4    1  0.2069825E-008  0.2348482E+04  0.7816531E-02  0.8459047E-01
         -2   -1    0    0    0  501 -0.00000000000E+00  0.00000000000E+00  0.76178593596E+03  0.76178593596E+03  0.00000000000E+00 0. -1.
          2   -1    0    0  501    0  0.00000000000E+00 -0.00000000000E+00 -0.18100117410E+04  0.18100117410E+04  0.00000000000E+00 0.  1.
    2000013    1    1    2    0    0  0.22607550366E+03  0.65181835682E+03 -0.54501117705E+03  0.12944166589E+04  0.95000000000E+03 0.  0.
   -2000013    1    1    2    0    0 -0.22607550366E+03 -0.65181835682E+03 -0.50321462803E+03  0.12773810181E+04  0.95000000000E+03 0.  0.
<mgrwt>
<rscale>  0 0.23484816E+04</rscale>
<asrwt>0</asrwt>
<pdfrwt beam="2">  1        2 0.27846334E+00 0.23484816E+04</pdfrwt>
<pdfrwt beam="1">  1       -2 0.11719784E+00 0.23484816E+04</pdfrwt>
<totfact> 0.43309868E+00</totfact>
</mgrwt>
</event>
<event>
 4    1  0.2069825E-008  0.2853809E+04  0.7816531E-02  0.8286755E-01
          2   -1    0    0  501    0  0.00000000000E+00  0.00000000000E+00  0.20607856605E+04  0.20607856605E+04  0.00000000000E+00 0. -1.
         -2   -1    0    0    0  501 -0.00000000000E+00 -0.00000000000E+00 -0.98800035708E+03  0.98800035708E+03  0.00000000000E+00 0.  1.
    2000013    1    1    2    0    0  0.27147915617E+03 -0.82851966225E+03 -0.11643066684E+03  0.12946821475E+04  0.95000000000E+03 0.  0.
   -2000013    1    1    2    0    0 -0.27147915617E+03  0.82851966225E+03  0.11892159703E+04  0.17541038700E+04  0.95000000000E+03 0.  0.
<mgrwt>
<rscale>  0 0.28538094E+04</rscale>
<asrwt>0</asrwt>
<pdfrwt beam="1">  1        2 0.31704395E+00 0.28538094E+04</pdfrwt>
<pdfrwt beam="2">  1       -2 0.15200006E+00 0.28538094E+04</pdfrwt>
<totfact> 0.15486535E+00</totfact>
</mgrwt>
</event>
<event>
 4    1  0.2069825E-008  0.2281011E+04  0.7816531E-02  0.8485446E-01
         -2   -1    0    0    0  501 -0.00000000000E+00  0.00000000000E+00  0.75511631327E+03  0.75511631327E+03  0.00000000000E+00 0. -1.
          2   -1    0    0  501    0  0.00000000000E+00 -0.00000000000E+00 -0.17225866435E+04  0.17225866435E+04  0.00000000000E+00 0.  1.
    2000013    1    1    2    0    0 -0.54680892433E+03 -0.27410628545E+02 -0.14282169879E+03  0.11057347692E+04  0.95000000000E+03 0.  0.
   -2000013    1    1    2    0    0  0.54680892433E+03  0.27410628545E+02 -0.82464863147E+03  0.13719681876E+04  0.95000000000E+03 0.  0.
<mgrwt>
<rscale>  0 0.22810114E+04</rscale>
<asrwt>0</asrwt>
<pdfrwt beam="2">  1        2 0.26501333E+00 0.22810114E+04</pdfrwt>
<pdfrwt beam="1">  1       -2 0.11617174E+00 0.22810114E+04</pdfrwt>
<totfact> 0.49764796E+00</totfact>
</mgrwt>
</event>
<event>
 4    1  0.2069825E-008  0.2692891E+04  0.7816531E-02  0.8337315E-01
         -1   -1    0    0    0  501 -0.00000000000E+00  0.00000000000E+00  0.62392869548E+03  0.62392869548E+03  0.00000000000E+00 0. -1.
          1   -1    0    0  501    0  0.00000000000E+00 -0.00000000000E+00 -0.29056449852E+04  0.29056449852E+04  0.00000000000E+00 0.  1.
    2000013    1    1    2    0    0  0.41647875471E+03  0.74268374787E+03 -0.57652339413E+03  0.13999689020E+04  0.95000000000E+03 0.  0.
   -2000013    1    1    2    0    0 -0.41647875471E+03 -0.74268374787E+03 -0.17051928956E+04  0.21296047788E+04  0.95000000000E+03 0.  0.
<mgrwt>
<rscale>  0 0.26928909E+04</rscale>
<asrwt>0</asrwt>
<pdfrwt beam="2">  1        1 0.44702231E+00 0.26928909E+04</pdfrwt>
<pdfrwt beam="1">  1       -1 0.95989030E-01 0.26928909E+04</pdfrwt>
<totfact> 0.63934034E-01</totfact>
</mgrwt>
</event>
<event>
 4    1  0.2069825E-008  0.2508884E+04  0.7816531E-02  0.8399827E-01
          2   -1    0    0  501    0  0.00000000000E+00  0.00000000000E+00  0.28223379536E+04  0.28223379536E+04  0.00000000000E+00 0.  1.
         -2   -1    0    0    0  501 -0.00000000000E+00 -0.00000000000E+00 -0.55756064605E+03  0.55756064605E+03  0.00000000000E+00 0. -1.
    2000013    1    1    2    0    0  0.50530571454E+03 -0.51459549062E+03  0.16558516294E+04  0.20407074760E+04  0.95000000000E+03 0.  0.
   -2000013    1    1    2    0    0 -0.50530571454E+03  0.51459549062E+03  0.60892567817E+03  0.13391911236E+04  0.95000000000E+03 0.  0.
<mgrwt>
<rscale>  0 0.25088839E+04</rscale>
<asrwt>0</asrwt>
<pdfrwt beam="1">  1        2 0.43420583E+00 0.25088839E+04</pdfrwt>
<pdfrwt beam="2">  1       -2 0.85778563E-01 0.25088839E+04</pdfrwt>
<totfact> 0.23572172E+00</totfact>
</mgrwt>
</event>
<event>
 4    1  0.2069825E-008  0.3408350E+04  0.7816531E-02  0.8135860E-01
          2   -1    0    0  501    0  0.00000000000E+00  0.00000000000E+00  0.22046968443E+04  0.22046968443E+04  0.00000000000E+00 0. -1.
         -2   -1    0    0    0  501 -0.00000000000E+00 -0.00000000000E+00 -0.13172846262E+04  0.13172846262E+04  0.00000000000E+00 0.  1.
    2000013    1    1    2    0    0  0.70324279253E+03  0.11113644173E+04  0.98266146086E+03  0.18967880324E+04  0.95000000000E+03 0.  0.
   -2000013    1    1    2    0    0 -0.70324279253E+03 -0.11113644173E+04 -0.95249242766E+02  0.16251934382E+04  0.95000000000E+03 0.  0.
<mgrwt>
<rscale>  0 0.34083505E+04</rscale>
<asrwt>0</asrwt>
<pdfrwt beam="1">  1        2 0.33918413E+00 0.34083505E+04</pdfrwt>
<pdfrwt beam="2">  1       -2 0.20265917E+00 0.34083505E+04</pdfrwt>
<totfact> 0.54290777E-01</totfact>
</mgrwt>
</event>
<event>
 4    1  0.2069825E-008  0.2403592E+04  0.7816531E-02  0.8438160E-01
          2   -1    0    0  501    0  0.00000000000E+00  0.00000000000E+00  0.80448275252E+03  0.80448275252E+03  0.00000000000E+00 0.  1.
         -2   -1    0    0    0  501 -0.00000000000E+00 -0.00000000000E+00 -0.17953317960E+04  0.17953317960E+04  0.00000000000E+00 0. -1.
    2000013    1    1    2    0    0  0.61781148480E+03 -0.39636164715E+03 -0.43598484950E+03  0.12772534498E+04  0.95000000000E+03 0.  0.
   -2000013    1    1    2    0    0 -0.61781148480E+03  0.39636164715E+03 -0.55486419401E+03  0.13225610987E+04  0.95000000000E+03 0.  0.
<mgrwt>
<rscale>  0 0.24035919E+04</rscale>
<asrwt>0</asrwt>
<pdfrwt beam="1">  1        2 0.12376658E+00 0.24035919E+04</pdfrwt>
<pdfrwt beam="2">  1       -2 0.27620489E+00 0.24035919E+04</pdfrwt>
<totfact> 0.13652853E+00</totfact>
</mgrwt>
</event>
<event>
 4    1  0.2069825E-008  0.2774605E+04  0.7816531E-02  0.8311196E-01
         -2   -1    0    0    0  501 -0.00000000000E+00  0.00000000000E+00  0.15393086792E+04  0.15393086792E+04  0.00000000000E+00 0. -1.
          2   -1    0    0  501    0  0.00000000000E+00 -0.00000000000E+00 -0.12503071636E+04  0.12503071636E+04  0.00000000000E+00 0.  1.
    2000013    1    1    2    0    0 -0.58965929393E+03  0.82112705801E+03  0.13174590112E+03  0.13934865305E+04  0.95000000000E+03 0.  0.
   -2000013    1    1    2    0    0  0.58965929393E+03 -0.82112705801E+03  0.15725561447E+03  0.13961293123E+04  0.95000000000E+03 0.  0.
<mgrwt>
<rscale>  0 0.27746053E+04</rscale>
<asrwt>0</asrwt>
<pdfrwt beam="2">  1        2 0.19235495E+00 0.27746053E+04</pdfrwt>
<pdfrwt beam="1">  1       -2 0.23681672E+00 0.27746053E+04</pdfrwt>
<totfact> 0.11951330E+00</totfact>
</mgrwt>
</event>
<event>
 4    1  0.2069825E-008  0.2803901E+04  0.7816531E-02  0.8302058E-01
         -1   -1    0    0    0  501 -0.00000000000E+00  0.00000000000E+00  0.30536721558E+04  0.30536721558E+04  0.00000000000E+00 0. -1.
          1   -1    0    0  501    0  0.00000000000E+00 -0.00000000000E+00 -0.64363980957E+03  0.64363980957E+03  0.00000000000E+00 0.  1.
    2000013    1    1    2    0    0 -0.94698133016E+03 -0.12530468213E+03  0.17165535328E+04  0.21820932460E+04  0.95000000000E+03 0.  0.
   -2000013    1    1    2    0    0  0.94698133016E+03  0.12530468213E+03  0.69347881342E+03  0.15152187194E+04  0.95000000000E+03 0.  0.
<mgrwt>
<rscale>  0 0.28039008E+04</rscale>
<asrwt>0</asrwt>
<pdfrwt beam="2">  1        1 0.99021512E-01 0.28039008E+04</pdfrwt>
<pdfrwt beam="1">  1       -1 0.46979570E+00 0.28039008E+04</pdfrwt>
<totfact> 0.63206244E-02</totfact>
</mgrwt>
</event>
<event>
 4    1  0.2069825E-008  0.3222103E+04  0.7816531E-02  0.8183004E-01
         -1   -1    0    0    0  501 -0.00000000000E+00  0.00000000000E+00  0.11460714992E+04  0.11460714992E+04  0.00000000000E+00 0. -1.
          1   -1    0    0  501    0  0.00000000000E+00 -0.00000000000E+00 -0.22646821899E+04  0.22646821899E+04  0.00000000000E+00 0.  1.
    2000013    1    1    2    0    0 -0.10566056375E+04  0.15291636492E+03 -0.13466186170E+04  0.19635887012E+04  0.95000000000E+03 0.  0.
   -2000013    1    1    2    0    0  0.10566056375E+04 -0.15291636492E+03  0.22800792631E+03  0.14471649879E+04  0.95000000000E+03 0.  0.
<mgrwt>
<rscale>  0 0.32221035E+04</rscale>
<asrwt>0</asrwt>
<pdfrwt beam="2">  1        1 0.34841265E+00 0.32221035E+04</pdfrwt>
<pdfrwt beam="1">  1       -1 0.17631869E+00 0.32221035E+04</pdfrwt>
<totfact> 0.36352631E-01</totfact>
</mgrwt>
</event>
<event>
 4    1  0.2069825E-008  0.2242981E+04  0.7816531E-02  0.8500748E-01
          2   -1    0    0  501    0  0.00000000000E+00  0.00000000000E+00  0.11174899947E+04  0.11174899947E+04  0.00000000000E+00 0.  1.
         -2   -1    0    0    0  501 -0.00000000000E+00 -0.00000000000E+00 -0.11255053065E+04  0.11255053065E+04  0.00000000000E+00 0. -1.
    2000013    1    1    2    0    0  0.52446401174E+03 -0.50717615582E+02  0.27457291401E+03  0.11205021469E+04  0.95000000000E+03 0.  0.
   -2000013    1    1    2    0    0 -0.52446401174E+03  0.50717615582E+02 -0.28258822584E+03  0.11224931543E+04  0.95000000000E+03 0.  0.
<mgrwt>
<rscale>  0 0.22429810E+04</rscale>
<asrwt>0</asrwt>
<pdfrwt beam="1">  1        2 0.17192154E+00 0.22429810E+04</pdfrwt>
<pdfrwt beam="2">  1       -2 0.17315466E+00 0.22429810E+04</pdfrwt>
<totfact> 0.39186264E+00</totfact>
</mgrwt>
</event>
<event>
 4    1  0.2069825E-008  0.3039784E+04  0.7816531E-02  0.8232461E-01
          2   -1    0    0  501    0  0.00000000000E+00  0.00000000000E+00  0.42313452620E+04  0.42313452620E+04  0.00000000000E+00 0.  1.
         -2   -1    0    0    0  501 -0.00000000000E+00 -0.00000000000E+00 -0.54594251335E+03  0.54594251335E+03  0.00000000000E+00 0. -1.
    2000013    1    1    2    0    0  0.50079400972E+03  0.99251756343E+03  0.24938881075E+04  0.28909969987E+04  0.95000000000E+03 0.  0.
   -2000013    1    1    2    0    0 -0.50079400972E+03 -0.99251756343E+03  0.11915146411E+04  0.18862907766E+04  0.95000000000E+03 0.  0.
<mgrwt>
<rscale>  0 0.30397837E+04</rscale>
<asrwt>0</asrwt>
<pdfrwt beam="1">  1        2 0.65097617E+00 0.30397837E+04</pdfrwt>
<pdfrwt beam="2">  1       -2 0.83991159E-01 0.30397837E+04</pdfrwt>
<totfact> 0.23042659E-01</totfact>
</mgrwt>
</event>
<event>
 4    1  0.2069825E-008  0.2162595E+04  0.7816531E-02  0.8534160E-01
         -2   -1    0    0    0  501 -0.00000000000E+00  0.00000000000E+00  0.81928863432E+03  0.81928863432E+03  0.00000000000E+00 0. -1.
          2   -1    0    0  501    0  0.00000000000E+00 -0.00000000000E+00 -0.14270975229E+04  0.14270975229E+04  0.00000000000E+00 0.  1.
    2000013    1    1    2    0    0 -0.51157131470E+03  0.29913537270E+02 -0.37045512911E+03  0.11411998214E+04  0.95000000000E+03 0.  0.
   -2000013    1    1    2    0    0  0.51157131470E+03 -0.29913537270E+02 -0.23735375949E+03  0.11051863358E+04  0.95000000000E+03 0.  0.
<mgrwt>
<rscale>  0 0.21625955E+04</rscale>
<asrwt>0</asrwt>
<pdfrwt beam="2">  1        2 0.21955346E+00 0.21625955E+04</pdfrwt>
<pdfrwt beam="1">  1       -2 0.12604441E+00 0.21625955E+04</pdfrwt>
<totfact> 0.60124728E+00</totfact>
</mgrwt>
</event>
<event>
 4    1  0.2069825E-008  0.2914074E+04  0.7816531E-02  0.8268702E-01
          2   -1    0    0  501    0  0.00000000000E+00  0.00000000000E+00  0.51449082005E+03  0.51449082005E+03  0.00000000000E+00 0.  1.
         -2   -1    0    0    0  501 -0.00000000000E+00 -0.00000000000E+00 -0.41263264822E+04  0.41263264822E+04  0.00000000000E+00 0. -1.
    2000013    1    1    2    0    0  0.91393224617E+03  0.36429608884E+03 -0.26061234557E+04  0.29431893003E+04  0.95000000000E+03 0.  0.
   -2000013    1    1    2    0    0 -0.91393224617E+03 -0.36429608884E+03 -0.10057122065E+04  0.16976280020E+04  0.95000000000E+03 0.  0.
<mgrwt>
<rscale>  0 0.29140742E+04</rscale>
<asrwt>0</asrwt>
<pdfrwt beam="1">  1        2 0.79152435E-01 0.29140742E+04</pdfrwt>
<pdfrwt beam="2">  1       -2 0.63481945E+00 0.29140742E+04</pdfrwt>
<totfact> 0.19161964E-02</totfact>
</mgrwt>
</event>
<event>
 4    1  0.2069825E-008  0.2273744E+04  0.7816531E-02  0.8488346E-01
         -2   -1    0    0    0  501 -0.00000000000E+00  0.00000000000E+00  0.72882836025E+03  0.72882836025E+03  0.00000000000E+00 0. -1.
          2   -1    0    0  501    0  0.00000000000E+00 -0.00000000000E+00 -0.17733644484E+04  0.17733644484E+04  0.00000000000E+00 0.  1.
    2000013    1    1    2    0    0 -0.26539767239E+03  0.56395820886E+03 -0.56479695431E+03  0.12688500248E+04  0.95000000000E+03 0.  0.
   -2000013    1    1    2    0    0  0.26539767239E+03 -0.56395820886E+03 -0.47973913380E+03  0.12333427838E+04  0.95000000000E+03 0.  0.
<mgrwt>
<rscale>  0 0.22737443E+04</rscale>
<asrwt>0</asrwt>
<pdfrwt beam="2">  1        2 0.27282530E+00 0.22737443E+04</pdfrwt>
<pdfrwt beam="1">  1       -2 0.11212744E+00 0.22737443E+04</pdfrwt>
<totfact> 0.50874179E+00</totfact>
</mgrwt>
</event>
<event>
 4    1  0.2069825E-008  0.2081190E+04  0.7816531E-02  0.8569575E-01
         -2   -1    0    0    0  501 -0.00000000000E+00  0.00000000000E+00  0.81946039990E+03  0.81946039990E+03  0.00000000000E+00 0. -1.
          2   -1    0    0  501    0  0.00000000000E+00 -0.00000000000E+00 -0.13214035297E+04  0.13214035297E+04  0.00000000000E+00 0.  1.
    2000013    1    1    2    0    0 -0.14259508561E+03  0.39364749909E+03 -0.32404466889E+03  0.10875645541E+04  0.95000000000E+03 0.  0.
   -2000013    1    1    2    0    0  0.14259508561E+03 -0.39364749909E+03 -0.17789846092E+03  0.10532993755E+04  0.95000000000E+03 0.  0.
<mgrwt>
<rscale>  0 0.20811899E+04</rscale>
<asrwt>0</asrwt>
<pdfrwt beam="2">  1        2 0.20329285E+00 0.20811899E+04</pdfrwt>
<pdfrwt beam="1">  1       -2 0.12607083E+00 0.20811899E+04</pdfrwt>
<totfact> 0.69591686E+00</totfact>
</mgrwt>
</event>
<event>
 4    1  0.2069825E-008  0.2837985E+04  0.7816531E-02  0.8291572E-01
          2   -1    0    0  501    0  0.00000000000E+00  0.00000000000E+00  0.13401346255E+04  0.13401346255E+04  0.00000000000E+00 0.  1.
         -2   -1    0    0    0  501 -0.00000000000E+00 -0.00000000000E+00 -0.15024910383E+04  0.15024910383E+04  0.00000000000E+00 0. -1.
    2000013    1    1    2    0    0  0.21365833636E+03  0.99776630500E+03 -0.34590711390E+03  0.14364328093E+04  0.95000000000E+03 0.  0.
   -2000013    1    1    2    0    0 -0.21365833636E+03 -0.99776630500E+03  0.18355070110E+03  0.14061928545E+04  0.95000000000E+03 0.  0.
<mgrwt>
<rscale>  0 0.28379854E+04</rscale>
<asrwt>0</asrwt>
<pdfrwt beam="1">  1        2 0.20617456E+00 0.28379854E+04</pdfrwt>
<pdfrwt beam="2">  1       -2 0.23115247E+00 0.28379854E+04</pdfrwt>
<totfact> 0.11428181E+00</totfact>
</mgrwt>
</event>
<event>
 4    1  0.2069825E-008  0.2534159E+04  0.7816531E-02  0.8390916E-01
         -2   -1    0    0    0  501 -0.00000000000E+00  0.00000000000E+00  0.19391305988E+04  0.19391305988E+04  0.00000000000E+00 0. -1.
          2   -1    0    0  501    0  0.00000000000E+00 -0.00000000000E+00 -0.82794326170E+03  0.82794326170E+03  0.00000000000E+00 0.  1.
    2000013    1    1    2    0    0  0.54612690232E+03  0.63487927475E+03  0.60013271090E+03  0.14014226906E+04  0.95000000000E+03 0.  0.
   -2000013    1    1    2    0    0 -0.54612690232E+03 -0.63487927475E+03  0.51105462618E+03  0.13656511699E+04  0.95000000000E+03 0.  0.
<mgrwt>
<rscale>  0 0.25341587E+04</rscale>
<asrwt>0</asrwt>
<pdfrwt beam="2">  1        2 0.12737589E+00 0.25341587E+04</pdfrwt>
<pdfrwt beam="1">  1       -2 0.29832778E+00 0.25341587E+04</pdfrwt>
<totfact> 0.95214650E-01</totfact>
</mgrwt>
</event>
<event>
 4    1  0.2069825E-008  0.3308502E+04  0.7816531E-02  0.8160736E-01
         -2   -1    0    0    0  501 -0.00000000000E+00  0.00000000000E+00  0.88063851100E+03  0.88063851100E+03  0.00000000000E+00 0. -1.
          2   -1    0    0  501    0  0.00000000000E+00 -0.00000000000E+00 -0.31074564455E+04  0.31074564455E+04  0.00000000000E+00 0.  1.
    2000013    1    1    2    0    0 -0.22702061917E+03 -0.12194687665E+04 -0.45825727781E+03  0.16282328355E+04  0.95000000000E+03 0.  0.
   -2000013    1    1    2    0    0  0.22702061917E+03  0.12194687665E+04 -0.17685606567E+04  0.23598621211E+04  0.95000000000E+03 0.  0.
<mgrwt>
<rscale>  0 0.33085017E+04</rscale>
<asrwt>0</asrwt>
<pdfrwt beam="2">  1        2 0.47807023E+00 0.33085017E+04</pdfrwt>
<pdfrwt beam="1">  1       -2 0.13548285E+00 0.33085017E+04</pdfrwt>
<totfact> 0.48521147E-01</totfact>
</mgrwt>
</event>
<event>
 4    1  0.2069825E-008  0.4520643E+04  0.7816531E-02  0.7907033E-01
          2   -1    0    0  501    0  0.00000000000E+00  0.00000000000E+00  0.42713633032E+04  0.42713633032E+04  0.00000000000E+00 0.  1.
         -2   -1    0    0    0  501 -0.00000000000E+00 -0.00000000000E+00 -0.11961178066E+04  0.11961178066E+04  0.00000000000E+00 0. -1.
    2000013    1    1    2    0    0 -0.18124903766E+04 -0.92595159708E+03  0.12315441244E+04  0.25615832323E+04  0.95000000000E+03 0.  0.
   -2000013    1    1    2    0    0  0.18124903766E+04  0.92595159708E+03  0.18437013722E+04  0.29058978776E+04  0.95000000000E+03 0.  0.
<mgrwt>
<rscale>  0 0.45206432E+04</rscale>
<asrwt>0</asrwt>
<pdfrwt beam="1">  1        2 0.65713281E+00 0.45206432E+04</pdfrwt>
<pdfrwt beam="2">  1       -2 0.18401813E+00 0.45206432E+04</pdfrwt>
<totfact> 0.25737302E-02</totfact>
</mgrwt>
</event>
<event>
 4    1  0.2069825E-008  0.2073624E+04  0.7816531E-02  0.8572952E-01
         -2   -1    0    0    0  501 -0.00000000000E+00  0.00000000000E+00  0.39748496712E+03  0.39748496712E+03  0.00000000000E+00 0. -1.
          2   -1    0    0  501    0  0.00000000000E+00 -0.00000000000E+00 -0.27044530649E+04  0.27044530649E+04  0.00000000000E+00 0.  1.
    2000013    1    1    2    0    0  0.88076640334E+02  0.37663068971E+03 -0.92725511385E+03  0.13827184157E+04  0.95000000000E+03 0.  0.
   -2000013    1    1    2    0    0 -0.88076640334E+02 -0.37663068971E+03 -0.13797129839E+04  0.17192196163E+04  0.95000000000E+03 0.  0.
<mgrwt>
<rscale>  0 0.20736243E+04</rscale>
<asrwt>0</asrwt>
<pdfrwt beam="2">  1        2 0.41606971E+00 0.20736243E+04</pdfrwt>
<pdfrwt beam="1">  1       -2 0.61151532E-01 0.20736243E+04</pdfrwt>
<totfact> 0.60687255E+00</totfact>
</mgrwt>
</event>
<event>
 4    1  0.2069825E-008  0.1989392E+04  0.7816531E-02  0.8611597E-01
          2   -1    0    0  501    0  0.00000000000E+00  0.00000000000E+00  0.16922522978E+04  0.16922522978E+04  0.00000000000E+00 0.  1.
         -2   -1    0    0    0  501 -0.00000000000E+00 -0.00000000000E+00 -0.58467623322E+03  0.58467623322E+03  0.00000000000E+00 0. -1.
    2000013    1    1    2    0    0 -0.43831634164E+01 -0.18954837164E+03  0.81218924406E+03  0.12641594700E+04  0.95000000000E+03 0.  0.
   -2000013    1    1    2    0    0  0.43831634164E+01  0.18954837164E+03  0.29538682053E+03  0.10127690611E+04  0.95000000000E+03 0.  0.
<mgrwt>
<rscale>  0 0.19893916E+04</rscale>
<asrwt>0</asrwt>
<pdfrwt beam="1">  1        2 0.26034650E+00 0.19893916E+04</pdfrwt>
<pdfrwt beam="2">  1       -2 0.89950191E-01 0.19893916E+04</pdfrwt>
<totfact> 0.97456817E+00</totfact>
</mgrwt>
</event>
<event>
 4    1  0.2069825E-008  0.2743445E+04  0.7816531E-02  0.8321045E-01
          2   -1    0    0  501    0  0.00000000000E+00  0.00000000000E+00  0.22633079152E+04  0.22633079152E+04  0.00000000000E+00 0.  1.
         -2   -1    0    0    0  501 -0.00000000000E+00 -0.00000000000E+00 -0.83135945870E+03  0.83135945870E+03  0.00000000000E+00 0. -1.
    2000013    1    1    2    0    0  0.97986908894E+03 -0.13657937926E+03  0.73631260025E+03  0.15567445531E+04  0.95000000000E+03 0.  0.
   -2000013    1    1    2    0    0 -0.97986908894E+03  0.13657937926E+03  0.69563585630E+03  0.15379228208E+04  0.95000000000E+03 0.  0.
<mgrwt>
<rscale>  0 0.27434449E+04</rscale>
<asrwt>0</asrwt>
<pdfrwt beam="1">  1        2 0.34820122E+00 0.27434449E+04</pdfrwt>
<pdfrwt beam="2">  1       -2 0.12790146E+00 0.27434449E+04</pdfrwt>
<totfact> 0.18813664E+00</totfact>
</mgrwt>
</event>
<event>
 4    1  0.2069825E-008  0.1939143E+04  0.7816531E-02  0.8635614E-01
         -2   -1    0    0    0  501 -0.00000000000E+00  0.00000000000E+00  0.30506211082E+03  0.30506211082E+03  0.00000000000E+00 0. -1.
          2   -1    0    0  501    0  0.00000000000E+00 -0.00000000000E+00 -0.30815655116E+04  0.30815655116E+04  0.00000000000E+00 0.  1.
    2000013    1    1    2    0    0  0.99116363888E+02 -0.11996048284E+03 -0.15900736123E+04  0.18587761198E+04  0.95000000000E+03 0.  0.
   -2000013    1    1    2    0    0 -0.99116363888E+02  0.11996048284E+03 -0.11864297885E+04  0.15278515026E+04  0.95000000000E+03 0.  0.
<mgrwt>
<rscale>  0 0.19391430E+04</rscale>
<asrwt>0</asrwt>
<pdfrwt beam="2">  1        2 0.47408700E+00 0.19391430E+04</pdfrwt>
<pdfrwt beam="1">  1       -2 0.46932632E-01 0.19391430E+04</pdfrwt>
<totfact> 0.62327256E+00</totfact>
</mgrwt>
</event>
<event>
 4    1  0.2069825E-008  0.2423382E+04  0.7816531E-02  0.8430801E-01
          2   -1    0    0  501    0  0.00000000000E+00  0.00000000000E+00  0.92661419814E+03  0.92661419814E+03  0.00000000000E+00 0.  1.
         -2   -1    0    0    0  501 -0.00000000000E+00 -0.00000000000E+00 -0.15844734958E+04  0.15844734958E+04  0.00000000000E+00 0. -1.
    2000013    1    1    2    0    0 -0.37461221029E+03  0.55963625077E+03 -0.67596647455E+03  0.13464611825E+04  0.95000000000E+03 0.  0.
   -2000013    1    1    2    0    0  0.37461221029E+03 -0.55963625077E+03  0.18107176893E+02  0.11646265114E+04  0.95000000000E+03 0.  0.
<mgrwt>
<rscale>  0 0.24233825E+04</rscale>
<asrwt>0</asrwt>
<pdfrwt beam="1">  1        2 0.14255603E+00 0.24233825E+04</pdfrwt>
<pdfrwt beam="2">  1       -2 0.24376515E+00 0.24233825E+04</pdfrwt>
<totfact> 0.17727097E+00</totfact>
</mgrwt>
</event>
<event>
 4    1  0.2069825E-008  0.2863578E+04  0.7816531E-02  0.8283797E-01
         -1   -1    0    0    0  501 -0.00000000000E+00  0.00000000000E+00  0.13846424832E+04  0.13846424832E+04  0.00000000000E+00 0. -1.
          1   -1    0    0  501    0  0.00000000000E+00 -0.00000000000E+00 -0.14805408916E+04  0.14805408916E+04  0.00000000000E+00 0.  1.
    2000013    1    1    2    0    0  0.70641912877E+03 -0.74675248718E+03 -0.34953575318E+03  0.14426858651E+04  0.95000000000E+03 0.  0.
   -2000013    1    1    2    0    0 -0.70641912877E+03  0.74675248718E+03  0.25363734474E+03  0.14224975097E+04  0.95000000000E+03 0.  0.
<mgrwt>
<rscale>  0 0.28635781E+04</rscale>
<asrwt>0</asrwt>
<pdfrwt beam="2">  1        1 0.22777552E+00 0.28635781E+04</pdfrwt>
<pdfrwt beam="1">  1       -1 0.21302192E+00 0.28635781E+04</pdfrwt>
<totfact> 0.71260682E-01</totfact>
</mgrwt>
</event>
<event>
 4    1  0.2069825E-008  0.4622963E+04  0.7816531E-02  0.7889456E-01
          2   -1    0    0  501    0  0.00000000000E+00  0.00000000000E+00  0.12113804908E+04  0.12113804908E+04  0.00000000000E+00 0.  1.
         -2   -1    0    0    0  501 -0.00000000000E+00 -0.00000000000E+00 -0.44106263189E+04  0.44106263189E+04  0.00000000000E+00 0. -1.
    2000013    1    1    2    0    0 -0.16151146102E+04  0.97874944110E+03 -0.46277578207E+03  0.21640718789E+04  0.95000000000E+03 0.  0.
   -2000013    1    1    2    0    0  0.16151146102E+04 -0.97874944110E+03 -0.27364700461E+04  0.34579349308E+04  0.95000000000E+03 0.  0.
<mgrwt>
<rscale>  0 0.46229630E+04</rscale>
<asrwt>0</asrwt>
<pdfrwt beam="1">  1        2 0.18636623E+00 0.46229630E+04</pdfrwt>
<pdfrwt beam="2">  1       -2 0.67855790E+00 0.46229630E+04</pdfrwt>
<totfact> 0.37956127E-03</totfact>
</mgrwt>
</event>
<event>
 4    1  0.2069825E-008  0.2463686E+04  0.7816531E-02  0.8416038E-01
          2   -1    0    0  501    0  0.00000000000E+00  0.00000000000E+00  0.35109265624E+04  0.35109265624E+04  0.00000000000E+00 0.  1.
         -2   -1    0    0    0  501 -0.00000000000E+00 -0.00000000000E+00 -0.43220406738E+03  0.43220406738E+03  0.00000000000E+00 0. -1.
    2000013    1    1    2    0    0 -0.24853675373E+03 -0.72053144186E+03  0.12442406170E+04  0.17411406576E+04  0.95000000000E+03 0.  0.
   -2000013    1    1    2    0    0  0.24853675373E+03  0.72053144186E+03  0.18344818780E+04  0.22019899722E+04  0.95000000000E+03 0.  0.
<mgrwt>
<rscale>  0 0.24636856E+04</rscale>
<asrwt>0</asrwt>
<pdfrwt beam="1">  1        2 0.54014253E+00 0.24636856E+04</pdfrwt>
<pdfrwt beam="2">  1       -2 0.66492936E-01 0.24636856E+04</pdfrwt>
<totfact> 0.14876565E+00</totfact>
</mgrwt>
</event>
<event>
 4    1  0.2069825E-008  0.4245213E+04  0.7816531E-02  0.7956827E-01
          2   -1    0    0  501    0  0.00000000000E+00  0.00000000000E+00  0.35060900132E+04  0.35060900132E+04  0.00000000000E+00 0.  1.
         -2   -1    0    0    0  501 -0.00000000000E+00 -0.00000000000E+00 -0.12850379561E+04  0.12850379561E+04  0.00000000000E+00 0. -1.
    2000013    1    1    2    0    0 -0.53522200719E+03  0.18088159694E+04  0.13490870023E+04  0.25061551325E+04  0.95000000000E+03 0.  0.
   -2000013    1    1    2    0    0  0.53522200719E+03 -0.18088159694E+04  0.87196505484E+03  0.22849728368E+04  0.95000000000E+03 0.  0.
<mgrwt>
<rscale>  0 0.42452132E+04</rscale>
<asrwt>0</asrwt>
<pdfrwt beam="1">  1        2 0.53939846E+00 0.42452132E+04</pdfrwt>
<pdfrwt beam="2">  1       -2 0.19769815E+00 0.42452132E+04</pdfrwt>
<totfact> 0.85593079E-02</totfact>
</mgrwt>
</event>
<event>
 4    1  0.2069825E-008  0.3499524E+04  0.7816531E-02  0.8113903E-01
         -2   -1    0    0    0  501 -0.00000000000E+00  0.00000000000E+00  0.17476993618E+04  0.17476993618E+04  0.00000000000E+00 0. -1.
          2   -1    0    0  501    0  0.00000000000E+00 -0.00000000000E+00 -0.17518271708E+04  0.17518271708E+04  0.00000000000E+00 0.  1.
    2000013    1    1    2    0    0 -0.84044122360E+03  0.11080343929E+04  0.47236825627E+03  0.17492036576E+04  0.95000000000E+03 0.  0.
   -2000013    1    1    2    0    0  0.84044122360E+03 -0.11080343929E+04 -0.47649606532E+03  0.17503228749E+04  0.95000000000E+03 0.  0.
<mgrwt>
<rscale>  0 0.34995241E+04</rscale>
<asrwt>0</asrwt>
<pdfrwt beam="2">  1        2 0.26951187E+00 0.34995241E+04</pdfrwt>
<pdfrwt beam="1">  1       -2 0.26887682E+00 0.34995241E+04</pdfrwt>
<totfact> 0.37132955E-01</totfact>
</mgrwt>
</event>
<event>
 4    1  0.2069825E-008  0.2297636E+04  0.7816531E-02  0.8478854E-01
         -4   -1    0    0    0  501 -0.00000000000E+00  0.00000000000E+00  0.89194191763E+03  0.89194191763E+03  0.00000000000E+00 0. -1.
          4   -1    0    0  501    0  0.00000000000E+00 -0.00000000000E+00 -0.14796732194E+04  0.14796732194E+04  0.00000000000E+00 0.  1.
    2000013    1    1    2    0    0  0.64115852179E+03 -0.39596989302E+02 -0.22362764978E+03  0.11684012570E+04  0.95000000000E+03 0.  0.
   -2000013    1    1    2    0    0 -0.64115852179E+03  0.39596989302E+02 -0.36410365196E+03  0.12032138800E+04  0.95000000000E+03 0.  0.
<mgrwt>
<rscale>  0 0.22976358E+04</rscale>
<asrwt>0</asrwt>
<pdfrwt beam="2">  1        4 0.22764203E+00 0.22976358E+04</pdfrwt>
<pdfrwt beam="1">  1       -4 0.13722184E+00 0.22976358E+04</pdfrwt>
<totfact> 0.59494835E-02</totfact>
</mgrwt>
</event>
<event>
 4    1  0.2069825E-008  0.2147783E+04  0.7816531E-02  0.8540482E-01
          2   -1    0    0  501    0  0.00000000000E+00  0.00000000000E+00  0.11574567212E+04  0.11574567212E+04  0.00000000000E+00 0.  1.
         -2   -1    0    0    0  501 -0.00000000000E+00 -0.00000000000E+00 -0.99635971239E+03  0.99635971239E+03  0.00000000000E+00 0. -1.
    2000013    1    1    2    0    0  0.22391251466E+03 -0.44271455638E+03  0.14863807916E+03  0.10820010495E+04  0.95000000000E+03 0.  0.
   -2000013    1    1    2    0    0 -0.22391251466E+03  0.44271455638E+03  0.12458929699E+02  0.10718153841E+04  0.95000000000E+03 0.  0.
<mgrwt>
<rscale>  0 0.21477833E+04</rscale>
<asrwt>0</asrwt>
<pdfrwt beam="1">  1        2 0.17807026E+00 0.21477833E+04</pdfrwt>
<pdfrwt beam="2">  1       -2 0.15328611E+00 0.21477833E+04</pdfrwt>
<totfact> 0.52163987E+00</totfact>
</mgrwt>
</event>
<event>
 4    1  0.2069825E-008  0.2191143E+04  0.7816531E-02  0.8522124E-01
         -2   -1    0    0    0  501 -0.00000000000E+00  0.00000000000E+00  0.33054519091E+03  0.33054519091E+03  0.00000000000E+00 0. -1.
          2   -1    0    0  501    0  0.00000000000E+00 -0.00000000000E+00 -0.36312041101E+04  0.36312041101E+04  0.00000000000E+00 0.  1.
    2000013    1    1    2    0    0  0.19661440588E+03 -0.47190442874E+03 -0.13052475201E+04  0.16933759485E+04  0.95000000000E+03 0.  0.
   -2000013    1    1    2    0    0 -0.19661440588E+03  0.47190442874E+03 -0.19954113992E+04  0.22683733525E+04  0.95000000000E+03 0.  0.
<mgrwt>
<rscale>  0 0.21911431E+04</rscale>
<asrwt>0</asrwt>
<pdfrwt beam="2">  1        2 0.55864676E+00 0.21911431E+04</pdfrwt>
<pdfrwt beam="1">  1       -2 0.50853109E-01 0.21911431E+04</pdfrwt>
<totfact> 0.22014767E+00</totfact>
</mgrwt>
</event>
<event>
 4    1  0.2069825E-008  0.2350205E+04  0.7816531E-02  0.8458385E-01
          2   -1    0    0  501    0  0.00000000000E+00  0.00000000000E+00  0.21560985334E+04  0.21560985334E+04  0.00000000000E+00 0. -1.
         -2   -1    0    0    0  501 -0.00000000000E+00 -0.00000000000E+00 -0.64044664049E+03  0.64044664049E+03  0.00000000000E+00 0.  1.
    2000013    1    1    2    0    0 -0.62003912420E+03  0.25807739618E+03  0.56117068412E+03  0.12916907504E+04  0.95000000000E+03 0.  0.
   -2000013    1    1    2    0    0  0.62003912420E+03 -0.25807739618E+03  0.95448120878E+03  0.15048544235E+04  0.95000000000E+03 0.  0.
<mgrwt>
<rscale>  0 0.23502052E+04</rscale>
<asrwt>0</asrwt>
<pdfrwt beam="1">  1        2 0.33170746E+00 0.23502052E+04</pdfrwt>
<pdfrwt beam="2">  1       -2 0.98530254E-01 0.23502052E+04</pdfrwt>
<totfact> 0.42211294E+00</totfact>
</mgrwt>
</event>
<event>
 4    1  0.2069825E-008  0.2214444E+04  0.7816531E-02  0.8512440E-01
          2   -1    0    0  501    0  0.00000000000E+00  0.00000000000E+00  0.22143257261E+04  0.22143257261E+04  0.00000000000E+00 0.  1.
         -2   -1    0    0    0  501 -0.00000000000E+00 -0.00000000000E+00 -0.55364056968E+03  0.55364056968E+03  0.00000000000E+00 0. -1.
    2000013    1    1    2    0    0  0.52016817068E+03 -0.34591467340E+02  0.11144688419E+04  0.15544491935E+04  0.95000000000E+03 0.  0.
   -2000013    1    1    2    0    0 -0.52016817068E+03  0.34591467340E+02  0.54621631447E+03  0.12135171023E+04  0.95000000000E+03 0.  0.
<mgrwt>
<rscale>  0 0.22144440E+04</rscale>
<asrwt>0</asrwt>
<pdfrwt beam="1">  1        2 0.34066549E+00 0.22144440E+04</pdfrwt>
<pdfrwt beam="2">  1       -2 0.85175473E-01 0.22144440E+04</pdfrwt>
<totfact> 0.55489623E+00</totfact>
</mgrwt>
</event>
<event>
 4    1  0.2069825E-008  0.2357974E+04  0.7816531E-02  0.8455407E-01
         -2   -1    0    0    0  501 -0.00000000000E+00  0.00000000000E+00  0.87988092237E+03  0.87988092237E+03  0.00000000000E+00 0. -1.
          2   -1    0    0  501    0  0.00000000000E+00 -0.00000000000E+00 -0.15797715513E+04  0.15797715513E+04  0.00000000000E+00 0.  1.
    2000013    1    1    2    0    0  0.16253754010E+03  0.54223196919E+03 -0.77632141102E+03  0.13511509514E+04  0.95000000000E+03 0.  0.
   -2000013    1    1    2    0    0 -0.16253754010E+03 -0.54223196919E+03  0.76430782095E+02  0.11085015222E+04  0.95000000000E+03 0.  0.
<mgrwt>
<rscale>  0 0.23579744E+04</rscale>
<asrwt>0</asrwt>
<pdfrwt beam="2">  1        2 0.24304177E+00 0.23579744E+04</pdfrwt>
<pdfrwt beam="1">  1       -2 0.13536630E+00 0.23579744E+04</pdfrwt>
<totfact> 0.40473940E+00</totfact>
</mgrwt>
</event>
<event>
 4    1  0.2069825E-008  0.2542774E+04  0.7816531E-02  0.8387904E-01
          2   -1    0    0  501    0  0.00000000000E+00  0.00000000000E+00  0.10769784815E+04  0.10769784815E+04  0.00000000000E+00 0.  1.
         -2   -1    0    0    0  501 -0.00000000000E+00 -0.00000000000E+00 -0.15008884337E+04  0.15008884337E+04  0.00000000000E+00 0. -1.
    2000013    1    1    2    0    0  0.13686711629E+03  0.79366671702E+03  0.47080801669E+02  0.12463370600E+04  0.95000000000E+03 0.  0.
   -2000013    1    1    2    0    0 -0.13686711629E+03 -0.79366671702E+03 -0.47099075385E+03  0.13315298553E+04  0.95000000000E+03 0.  0.
<mgrwt>
<rscale>  0 0.25427737E+04</rscale>
<asrwt>0</asrwt>
<pdfrwt beam="1">  1        2 0.16568900E+00 0.25427737E+04</pdfrwt>
<pdfrwt beam="2">  1       -2 0.23090591E+00 0.25427737E+04</pdfrwt>
<totfact> 0.16884421E+00</totfact>
</mgrwt>
</event>
<event>
 4    1  0.2069825E-008  0.3874740E+04  0.7816531E-02  0.8030303E-01
          2   -1    0    0  501    0  0.00000000000E+00  0.00000000000E+00  0.21140962094E+04  0.21140962094E+04  0.00000000000E+00 0.  1.
         -2   -1    0    0    0  501 -0.00000000000E+00 -0.00000000000E+00 -0.17754175124E+04  0.17754175124E+04  0.00000000000E+00 0. -1.
    2000013    1    1    2    0    0  0.16493137897E+04  0.25984640180E+03 -0.82910024155E+02  0.19227922929E+04  0.95000000000E+03 0.  0.
   -2000013    1    1    2    0    0 -0.16493137897E+04 -0.25984640180E+03  0.42158872107E+03  0.19667214290E+04  0.95000000000E+03 0.  0.
<mgrwt>
<rscale>  0 0.38747405E+04</rscale>
<asrwt>0</asrwt>
<pdfrwt beam="1">  1        2 0.32524557E+00 0.38747405E+04</pdfrwt>
<pdfrwt beam="2">  1       -2 0.27314116E+00 0.38747405E+04</pdfrwt>
<totfact> 0.21325337E-01</totfact>
</mgrwt>
</event>
<event>
 4    1  0.2069825E-008  0.2656233E+04  0.7816531E-02  0.8349347E-01
          2   -1    0    0  501    0  0.00000000000E+00  0.00000000000E+00  0.65262135996E+03  0.65262135996E+03  0.00000000000E+00 0.  1.
         -2   -1    0    0    0  501 -0.00000000000E+00 -0.00000000000E+00 -0.27027819639E+04  0.27027819639E+04  0.00000000000E+00 0. -1.
    2000013    1    1    2    0    0 -0.76908007601E+01  0.77225960606E+03 -0.37486095502E+03  0.12804158634E+04  0.95000000000E+03 0.  0.
   -2000013    1    1    2    0    0  0.76908007601E+01 -0.77225960606E+03 -0.16752996490E+04  0.20749874605E+04  0.95000000000E+03 0.  0.
<mgrwt>
<rscale>  0 0.26562329E+04</rscale>
<asrwt>0</asrwt>
<pdfrwt beam="1">  1        2 0.10040329E+00 0.26562329E+04</pdfrwt>
<pdfrwt beam="2">  1       -2 0.41581260E+00 0.26562329E+04</pdfrwt>
<totfact> 0.23008251E-01</totfact>
</mgrwt>
</event>
<event>
 4    1  0.2069825E-008  0.3138157E+04  0.7816531E-02  0.8205343E-01
         -2   -1    0    0    0  501 -0.00000000000E+00  0.00000000000E+00  0.14787744322E+04  0.14787744322E+04  0.00000000000E+00 0. -1.
          2   -1    0    0  501    0  0.00000000000E+00 -0.00000000000E+00 -0.16648968809E+04  0.16648968809E+04  0.00000000000E+00 0.  1.
    2000013    1    1    2    0    0  0.89995765958E+02  0.12452649184E+04 -0.11999685354E+03  0.15734303924E+04  0.95000000000E+03 0.  0.
   -2000013    1    1    2    0    0 -0.89995765958E+02 -0.12452649184E+04 -0.66125595135E+02  0.15702409208E+04  0.95000000000E+03 0.  0.
<mgrwt>
<rscale>  0 0.31381567E+04</rscale>
<asrwt>0</asrwt>
<pdfrwt beam="2">  1        2 0.25613798E+00 0.31381567E+04</pdfrwt>
<pdfrwt beam="1">  1       -2 0.22750376E+00 0.31381567E+04</pdfrwt>
<totfact> 0.76963120E-01</totfact>
</mgrwt>
</event>
<event>
 4    1  0.2069825E-008  0.3169066E+04  0.7816531E-02  0.8197035E-01
          1   -1    0    0  501    0  0.00000000000E+00  0.00000000000E+00  0.25821056162E+04  0.25821056162E+04  0.00000000000E+00 0.  1.
         -1   -1    0    0    0  501 -0.00000000000E+00 -0.00000000000E+00 -0.97236319733E+03  0.97236319733E+03  0.00000000000E+00 0. -1.
    2000013    1    1    2    0    0 -0.34631706002E+03 -0.12028034251E+04  0.10335619334E+04  0.18808035133E+04  0.95000000000E+03 0.  0.
   -2000013    1    1    2    0    0  0.34631706002E+03  0.12028034251E+04  0.57618048548E+03  0.16736653002E+04  0.95000000000E+03 0.  0.
<mgrwt>
<rscale>  0 0.31690658E+04</rscale>
<asrwt>0</asrwt>
<pdfrwt beam="1">  1        1 0.39724702E+00 0.31690658E+04</pdfrwt>
<pdfrwt beam="2">  1       -1 0.14959434E+00 0.31690658E+04</pdfrwt>
<totfact> 0.34998454E-01</totfact>
</mgrwt>
</event>
<event>
 4    1  0.2069825E-008  0.2072845E+04  0.7816531E-02  0.8573300E-01
         -2   -1    0    0    0  501 -0.00000000000E+00  0.00000000000E+00  0.58801566643E+03  0.58801566643E+03  0.00000000000E+00 0. -1.
          2   -1    0    0  501    0  0.00000000000E+00 -0.00000000000E+00 -0.18267742906E+04  0.18267742906E+04  0.00000000000E+00 0.  1.
    2000013    1    1    2    0    0 -0.16825162099E+03  0.18620644987E+03 -0.23531127246E+03  0.10103726268E+04  0.95000000000E+03 0.  0.
   -2000013    1    1    2    0    0  0.16825162099E+03 -0.18620644987E+03 -0.10034473517E+04  0.14044173303E+04  0.95000000000E+03 0.  0.
<mgrwt>
<rscale>  0 0.20728453E+04</rscale>
<asrwt>0</asrwt>
<pdfrwt beam="2">  1        2 0.28104220E+00 0.20728453E+04</pdfrwt>
<pdfrwt beam="1">  1       -2 0.90463949E-01 0.20728453E+04</pdfrwt>
<totfact> 0.80423672E+00</totfact>
</mgrwt>
</event>
<event>
 4    1  0.2069825E-008  0.2949023E+04  0.7816531E-02  0.8258439E-01
         -2   -1    0    0    0  501 -0.00000000000E+00  0.00000000000E+00  0.15022068874E+04  0.15022068874E+04  0.00000000000E+00 0. -1.
          2   -1    0    0  501    0  0.00000000000E+00 -0.00000000000E+00 -0.14473262583E+04  0.14473262583E+04  0.00000000000E+00 0.  1.
    2000013    1    1    2    0    0  0.10208837243E+04  0.41357554697E+03  0.26921582948E+03  0.14792651805E+04  0.95000000000E+03 0.  0.
   -2000013    1    1    2    0    0 -0.10208837243E+04 -0.41357554697E+03 -0.21433520036E+03  0.14702679652E+04  0.95000000000E+03 0.  0.
<mgrwt>
<rscale>  0 0.29490225E+04</rscale>
<asrwt>0</asrwt>
<pdfrwt beam="2">  1        2 0.22266558E+00 0.29490225E+04</pdfrwt>
<pdfrwt beam="1">  1       -2 0.23110875E+00 0.29490225E+04</pdfrwt>
<totfact> 0.98356365E-01</totfact>
</mgrwt>
</event>
<event>
 4    1  0.2069825E-008  0.3136634E+04  0.7816531E-02  0.8205755E-01
          2   -1    0    0  501    0  0.00000000000E+00  0.00000000000E+00  0.27033649259E+04  0.27033649259E+04  0.00000000000E+00 0.  1.
         -2   -1    0    0    0  501 -0.00000000000E+00 -0.00000000000E+00 -0.90983559900E+03  0.90983559900E+03  0.00000000000E+00 0. -1.
    2000013    1    1    2    0    0  0.10212103934E+04 -0.26995836033E+03  0.13146872234E+03  0.14267207886E+04  0.95000000000E+03 0.  0.
   -2000013    1    1    2    0    0 -0.10212103934E+04  0.26995836033E+03  0.16620606045E+04  0.21864797362E+04  0.95000000000E+03 0.  0.
<mgrwt>
<rscale>  0 0.31366336E+04</rscale>
<asrwt>0</asrwt>
<pdfrwt beam="1">  1        2 0.41590229E+00 0.31366336E+04</pdfrwt>
<pdfrwt beam="2">  1       -2 0.13997471E+00 0.31366336E+04</pdfrwt>
<totfact> 0.80366966E-01</totfact>
</mgrwt>
</event>
<event>
 4    1  0.2069825E-008  0.2394697E+04  0.7816531E-02  0.8441492E-01
         -1   -1    0    0    0  501 -0.00000000000E+00  0.00000000000E+00  0.14330081052E+04  0.14330081052E+04  0.00000000000E+00 0.  1.
          1   -1    0    0  501    0  0.00000000000E+00 -0.00000000000E+00 -0.10004432486E+04  0.10004432486E+04  0.00000000000E+00 0. -1.
    2000013    1    1    2    0    0  0.50615397679E+03 -0.49968426040E+03  0.54753760515E+02  0.11880127031E+04  0.95000000000E+03 0.  0.
   -2000013    1    1    2    0    0 -0.50615397679E+03  0.49968426040E+03  0.37781109606E+03  0.12454386507E+04  0.95000000000E+03 0.  0.
<mgrwt>
<rscale>  0 0.23946969E+04</rscale>
<asrwt>0</asrwt>
<pdfrwt beam="2">  1        1 0.15391434E+00 0.23946969E+04</pdfrwt>
<pdfrwt beam="1">  1       -1 0.22046279E+00 0.23946969E+04</pdfrwt>
<totfact> 0.14810067E+00</totfact>
</mgrwt>
</event>
<event>
 4    1  0.2069825E-008  0.2249269E+04  0.7816531E-02  0.8498197E-01
         -1   -1    0    0    0  501 -0.00000000000E+00  0.00000000000E+00  0.99554403492E+03  0.99554403492E+03  0.00000000000E+00 0. -1.
          1   -1    0    0  501    0  0.00000000000E+00 -0.00000000000E+00 -0.12704636071E+04  0.12704636071E+04  0.00000000000E+00 0.  1.
    2000013    1    1    2    0    0  0.47019746846E+03  0.25320772603E+03  0.14228028819E+03  0.10990648262E+04  0.95000000000E+03 0.  0.
   -2000013    1    1    2    0    0 -0.47019746846E+03 -0.25320772603E+03 -0.41719986039E+03  0.11669428158E+04  0.95000000000E+03 0.  0.
<mgrwt>
<rscale>  0 0.22492687E+04</rscale>
<asrwt>0</asrwt>
<pdfrwt beam="2">  1        1 0.19545594E+00 0.22492687E+04</pdfrwt>
<pdfrwt beam="1">  1       -1 0.15316062E+00 0.22492687E+04</pdfrwt>
<totfact> 0.28432986E+00</totfact>
</mgrwt>
</event>
<event>
 4    1  0.2069825E-008  0.2603190E+04  0.7816531E-02  0.8367118E-01
         -2   -1    0    0    0  501 -0.00000000000E+00  0.00000000000E+00  0.28094208691E+04  0.28094208691E+04  0.00000000000E+00 0. -1.
          2   -1    0    0  501    0  0.00000000000E+00 -0.00000000000E+00 -0.60302444445E+03  0.60302444445E+03  0.00000000000E+00 0.  1.
    2000013    1    1    2    0    0  0.71851590818E+03  0.28530620986E+03  0.16805541009E+04  0.20795256261E+04  0.95000000000E+03 0.  0.
   -2000013    1    1    2    0    0 -0.71851590818E+03 -0.28530620986E+03  0.52584232378E+03  0.13329196874E+04  0.95000000000E+03 0.  0.
<mgrwt>
<rscale>  0 0.26031899E+04</rscale>
<asrwt>0</asrwt>
<pdfrwt beam="2">  1        2 0.92772993E-01 0.26031899E+04</pdfrwt>
<pdfrwt beam="1">  1       -2 0.43221859E+00 0.26031899E+04</pdfrwt>
<totfact> 0.19831157E-01</totfact>
</mgrwt>
</event>
<event>
 4    1  0.2069825E-008  0.2074141E+04  0.7816531E-02  0.8572721E-01
         -2   -1    0    0    0  501 -0.00000000000E+00  0.00000000000E+00  0.69721178594E+03  0.69721178594E+03  0.00000000000E+00 0. -1.
          2   -1    0    0  501    0  0.00000000000E+00 -0.00000000000E+00 -0.15425945796E+04  0.15425945796E+04  0.00000000000E+00 0.  1.
    2000013    1    1    2    0    0 -0.27805084367E+03 -0.21056443200E+03 -0.17794976458E+03  0.10275289633E+04  0.95000000000E+03 0.  0.
   -2000013    1    1    2    0    0  0.27805084367E+03  0.21056443200E+03 -0.66743302906E+03  0.12122774022E+04  0.95000000000E+03 0.  0.
<mgrwt>
<rscale>  0 0.20741409E+04</rscale>
<asrwt>0</asrwt>
<pdfrwt beam="2">  1        2 0.23732224E+00 0.20741409E+04</pdfrwt>
<pdfrwt beam="1">  1       -2 0.10726335E+00 0.20741409E+04</pdfrwt>
<totfact> 0.77462877E+00</totfact>
</mgrwt>
</event>
<event>
 4    1  0.2069825E-008  0.2200949E+04  0.7816531E-02  0.8518033E-01
          2   -1    0    0  501    0  0.00000000000E+00  0.00000000000E+00  0.20849593651E+04  0.20849593651E+04  0.00000000000E+00 0.  1.
         -2   -1    0    0    0  501 -0.00000000000E+00 -0.00000000000E+00 -0.58084771082E+03  0.58084771082E+03  0.00000000000E+00 0. -1.
    2000013    1    1    2    0    0 -0.26133324105E+03 -0.24264433644E+03  0.23622826193E+03  0.10418613769E+04  0.95000000000E+03 0.  0.
   -2000013    1    1    2    0    0  0.26133324105E+03  0.24264433644E+03  0.12678833924E+04  0.16239456991E+04  0.95000000000E+03 0.  0.
<mgrwt>
<rscale>  0 0.22009488E+04</rscale>
<asrwt>0</asrwt>
<pdfrwt beam="1">  1        2 0.32076298E+00 0.22009488E+04</pdfrwt>
<pdfrwt beam="2">  1       -2 0.89361187E-01 0.22009488E+04</pdfrwt>
<totfact> 0.58816383E+00</totfact>
</mgrwt>
</event>
<event>
 4    1  0.2069825E-008  0.2554306E+04  0.7816531E-02  0.8383890E-01
         -2   -1    0    0    0  501 -0.00000000000E+00  0.00000000000E+00  0.59179788761E+03  0.59179788761E+03  0.00000000000E+00 0. -1.
          2   -1    0    0  501    0  0.00000000000E+00 -0.00000000000E+00 -0.27562104975E+04  0.27562104975E+04  0.00000000000E+00 0.  1.
    2000013    1    1    2    0    0 -0.79082461121E+03  0.32054043970E+03 -0.10537960411E+04  0.16556375918E+04  0.95000000000E+03 0.  0.
   -2000013    1    1    2    0    0  0.79082461121E+03 -0.32054043970E+03 -0.11106165688E+04  0.16923707933E+04  0.95000000000E+03 0.  0.
<mgrwt>
<rscale>  0 0.25543058E+04</rscale>
<asrwt>0</asrwt>
<pdfrwt beam="2">  1        2 0.42403240E+00 0.25543058E+04</pdfrwt>
<pdfrwt beam="1">  1       -2 0.91045826E-01 0.25543058E+04</pdfrwt>
<totfact> 0.22448160E+00</totfact>
</mgrwt>
</event>
<event>
 4    1  0.2069825E-008  0.2098832E+04  0.7816531E-02  0.8561758E-01
          2   -1    0    0  501    0  0.00000000000E+00  0.00000000000E+00  0.38036548753E+04  0.38036548753E+04  0.00000000000E+00 0.  1.
         -2   -1    0    0    0  501 -0.00000000000E+00 -0.00000000000E+00 -0.28953037259E+03  0.28953037259E+03  0.00000000000E+00 0. -1.
    2000013    1    1    2    0    0 -0.10305227765E+03 -0.33607040096E+03  0.12222232078E+04  0.15874169761E+04  0.95000000000E+03 0.  0.
   -2000013    1    1    2    0    0  0.10305227765E+03  0.33607040096E+03  0.22919012949E+04  0.25057682717E+04  0.95000000000E+03 0.  0.
<mgrwt>
<rscale>  0 0.20988317E+04</rscale>
<asrwt>0</asrwt>
<pdfrwt beam="1">  1        2 0.58517764E+00 0.20988317E+04</pdfrwt>
<pdfrwt beam="2">  1       -2 0.44543137E-01 0.20988317E+04</pdfrwt>
<totfact> 0.21646972E+00</totfact>
</mgrwt>
</event>
<event>
 4    1  0.2069825E-008  0.2665982E+04  0.7816531E-02  0.8346128E-01
          2   -1    0    0  501    0  0.00000000000E+00  0.00000000000E+00  0.18380983404E+04  0.18380983404E+04  0.00000000000E+00 0.  1.
         -2   -1    0    0    0  501 -0.00000000000E+00 -0.00000000000E+00 -0.96668648989E+03  0.96668648989E+03  0.00000000000E+00 0. -1.
    2000013    1    1    2    0    0  0.63710190100E+03 -0.35960730274E+03  0.10483910905E+04  0.15927460950E+04  0.95000000000E+03 0.  0.
   -2000013    1    1    2    0    0 -0.63710190100E+03  0.35960730274E+03 -0.17697924002E+03  0.12120387353E+04  0.95000000000E+03 0.  0.
<mgrwt>
<rscale>  0 0.26659819E+04</rscale>
<asrwt>0</asrwt>
<pdfrwt beam="1">  1        2 0.28278436E+00 0.26659819E+04</pdfrwt>
<pdfrwt beam="2">  1       -2 0.14872100E+00 0.26659819E+04</pdfrwt>
<totfact> 0.22163681E+00</totfact>
</mgrwt>
</event>
<event>
 4    1  0.2069825E-008  0.4077572E+04  0.7816531E-02  0.7989078E-01
         -2   -1    0    0    0  501 -0.00000000000E+00  0.00000000000E+00  0.19951056611E+04  0.19951056611E+04  0.00000000000E+00 0. -1.
          2   -1    0    0  501    0  0.00000000000E+00 -0.00000000000E+00 -0.20834229509E+04  0.20834229509E+04  0.00000000000E+00 0.  1.
    2000013    1    1    2    0    0 -0.42539588739E+03  0.17151674098E+04 -0.40671851098E+03  0.20471152512E+04  0.95000000000E+03 0.  0.
   -2000013    1    1    2    0    0  0.42539588739E+03 -0.17151674098E+04  0.31840122110E+03  0.20314133608E+04  0.95000000000E+03 0.  0.
<mgrwt>
<rscale>  0 0.40775723E+04</rscale>
<asrwt>0</asrwt>
<pdfrwt beam="2">  1        2 0.32052661E+00 0.40775723E+04</pdfrwt>
<pdfrwt beam="1">  1       -2 0.30693933E+00 0.40775723E+04</pdfrwt>
<totfact> 0.13560728E-01</totfact>
</mgrwt>
</event>
<event>
 4    1  0.2069825E-008  0.3011562E+04  0.7816531E-02  0.8240437E-01
          2   -1    0    0  501    0  0.00000000000E+00  0.00000000000E+00  0.21272941368E+04  0.21272941368E+04  0.00000000000E+00 0. -1.
         -2   -1    0    0    0  501 -0.00000000000E+00 -0.00000000000E+00 -0.10658498073E+04  0.10658498073E+04  0.00000000000E+00 0.  1.
    2000013    1    1    2    0    0  0.84634138677E+03  0.54171093157E+03  0.11625828937E+04  0.18066110431E+04  0.95000000000E+03 0.  0.
   -2000013    1    1    2    0    0 -0.84634138677E+03 -0.54171093157E+03 -0.10113856413E+03  0.13865329010E+04  0.95000000000E+03 0.  0.
<mgrwt>
<rscale>  0 0.30115618E+04</rscale>
<asrwt>0</asrwt>
<pdfrwt beam="1">  1        2 0.32727602E+00 0.30115618E+04</pdfrwt>
<pdfrwt beam="2">  1       -2 0.16397689E+00 0.30115618E+04</pdfrwt>
<totfact> 0.11426119E+00</totfact>
</mgrwt>
</event>
<event>
 4    1  0.2069825E-008  0.2339062E+04  0.7816531E-02  0.8462677E-01
         -2   -1    0    0    0  501 -0.00000000000E+00  0.00000000000E+00  0.84314798902E+03  0.84314798902E+03  0.00000000000E+00 0. -1.
          2   -1    0    0  501    0  0.00000000000E+00 -0.00000000000E+00 -0.16222574893E+04  0.16222574893E+04  0.00000000000E+00 0.  1.
    2000013    1    1    2    0    0 -0.38929975381E+03 -0.55347237233E+03 -0.48032965697E+03  0.12613891329E+04  0.95000000000E+03 0.  0.
   -2000013    1    1    2    0    0  0.38929975381E+03  0.55347237233E+03 -0.29877984332E+03  0.12040163454E+04  0.95000000000E+03 0.  0.
<mgrwt>
<rscale>  0 0.23390623E+04</rscale>
<asrwt>0</asrwt>
<pdfrwt beam="2">  1        2 0.24957807E+00 0.23390623E+04</pdfrwt>
<pdfrwt beam="1">  1       -2 0.12971508E+00 0.23390623E+04</pdfrwt>
<totfact> 0.42776569E+00</totfact>
</mgrwt>
</event>
<event>
 4    1  0.2069825E-008  0.2724099E+04  0.7816531E-02  0.8327228E-01
         -2   -1    0    0    0  501 -0.00000000000E+00  0.00000000000E+00  0.11936113097E+04  0.11936113097E+04  0.00000000000E+00 0. -1.
          2   -1    0    0  501    0  0.00000000000E+00 -0.00000000000E+00 -0.15542569525E+04  0.15542569525E+04  0.00000000000E+00 0.  1.
    2000013    1    1    2    0    0 -0.87055212741E+03 -0.79187975570E+02  0.25768592071E+03  0.13164474071E+04  0.95000000000E+03 0.  0.
   -2000013    1    1    2    0    0  0.87055212741E+03  0.79187975570E+02 -0.61833156347E+03  0.14314208551E+04  0.95000000000E+03 0.  0.
<mgrwt>
<rscale>  0 0.27240989E+04</rscale>
<asrwt>0</asrwt>
<pdfrwt beam="2">  1        2 0.23911646E+00 0.27240989E+04</pdfrwt>
<pdfrwt beam="1">  1       -2 0.18363251E+00 0.27240989E+04</pdfrwt>
<totfact> 0.17735728E+00</totfact>
</mgrwt>
</event>
<event>
 4    1  0.2069825E-008  0.3332813E+04  0.7816531E-02  0.8154596E-01
         -1   -1    0    0    0  501 -0.00000000000E+00  0.00000000000E+00  0.69500749183E+03  0.69500749183E+03  0.00000000000E+00 0.  1.
          1   -1    0    0  501    0  0.00000000000E+00 -0.00000000000E+00 -0.39955116042E+04  0.39955116042E+04  0.00000000000E+00 0. -1.
    2000013    1    1    2    0    0  0.80529527394E+03  0.10679433229E+04 -0.12389537631E+04  0.20558477196E+04  0.95000000000E+03 0.  0.
   -2000013    1    1    2    0    0 -0.80529527394E+03 -0.10679433229E+04 -0.20615503492E+04  0.26346713764E+04  0.95000000000E+03 0.  0.
<mgrwt>
<rscale>  0 0.33328129E+04</rscale>
<asrwt>0</asrwt>
<pdfrwt beam="2">  1        1 0.61469408E+00 0.33328129E+04</pdfrwt>
<pdfrwt beam="1">  1       -1 0.10692423E+00 0.33328129E+04</pdfrwt>
<totfact> 0.65229884E-02</totfact>
</mgrwt>
</event>
<event>
 4    1  0.2069825E-008  0.2788582E+04  0.7816531E-02  0.8306822E-01
         -2   -1    0    0    0  501 -0.00000000000E+00  0.00000000000E+00  0.68462492795E+03  0.68462492795E+03  0.00000000000E+00 0. -1.
          2   -1    0    0  501    0  0.00000000000E+00 -0.00000000000E+00 -0.28395792636E+04  0.28395792636E+04  0.00000000000E+00 0.  1.
    2000013    1    1    2    0    0 -0.85669996189E+03  0.55178138726E+03 -0.10065554020E+04  0.17187353785E+04  0.95000000000E+03 0.  0.
   -2000013    1    1    2    0    0  0.85669996189E+03 -0.55178138726E+03 -0.11483989336E+04  0.18054688130E+04  0.95000000000E+03 0.  0.
<mgrwt>
<rscale>  0 0.27885815E+04</rscale>
<asrwt>0</asrwt>
<pdfrwt beam="2">  1        2 0.43685834E+00 0.27885815E+04</pdfrwt>
<pdfrwt beam="1">  1       -2 0.10532691E+00 0.27885815E+04</pdfrwt>
<totfact> 0.13897787E+00</totfact>
</mgrwt>
</event>
<event>
 4    1  0.2069825E-008  0.2351381E+04  0.7816531E-02  0.8457933E-01
         -2   -1    0    0    0  501 -0.00000000000E+00  0.00000000000E+00  0.74832640471E+03  0.74832640471E+03  0.00000000000E+00 0. -1.
          2   -1    0    0  501    0  0.00000000000E+00 -0.00000000000E+00 -0.18471189397E+04  0.18471189397E+04  0.00000000000E+00 0.  1.
    2000013    1    1    2    0    0 -0.49605744877E+03 -0.43076394945E+03 -0.79152122822E+03  0.14002272770E+04  0.95000000000E+03 0.  0.
   -2000013    1    1    2    0    0  0.49605744877E+03  0.43076394945E+03 -0.30727130677E+03  0.11952180674E+04  0.95000000000E+03 0.  0.
<mgrwt>
<rscale>  0 0.23513808E+04</rscale>
<asrwt>0</asrwt>
<pdfrwt beam="2">  1        2 0.28417214E+00 0.23513808E+04</pdfrwt>
<pdfrwt beam="1">  1       -2 0.11512714E+00 0.23513808E+04</pdfrwt>
<totfact> 0.43135381E+00</totfact>
</mgrwt>
</event>
<event>
 4    1  0.2069825E-008  0.2076104E+04  0.7816531E-02  0.8571843E-01
         -1   -1    0    0    0  501 -0.00000000000E+00  0.00000000000E+00  0.34563570015E+03  0.34563570015E+03  0.00000000000E+00 0. -1.
          1   -1    0    0  501    0  0.00000000000E+00 -0.00000000000E+00 -0.31175945754E+04  0.31175945754E+04  0.00000000000E+00 0.  1.
    2000013    1    1    2    0    0 -0.40334908808E+03 -0.10820462887E+03 -0.13433437056E+04  0.16974896288E+04  0.95000000000E+03 0.  0.
   -2000013    1    1    2    0    0  0.40334908808E+03  0.10820462887E+03 -0.14286151696E+04  0.17657406467E+04  0.95000000000E+03 0.  0.
<mgrwt>
<rscale>  0 0.20761040E+04</rscale>
<asrwt>0</asrwt>
<pdfrwt beam="2">  1        1 0.47962993E+00 0.20761040E+04</pdfrwt>
<pdfrwt beam="1">  1       -1 0.53174724E-01 0.20761040E+04</pdfrwt>
<totfact> 0.16129088E+00</totfact>
</mgrwt>
</event>
<event>
 4    1  0.2069825E-008  0.2078847E+04  0.7816531E-02  0.8570619E-01
         -2   -1    0    0    0  501 -0.00000000000E+00  0.00000000000E+00  0.66325132220E+03  0.66325132220E+03  0.00000000000E+00 0. -1.
          2   -1    0    0  501    0  0.00000000000E+00 -0.00000000000E+00 -0.16289470304E+04  0.16289470304E+04  0.00000000000E+00 0.  1.
    2000013    1    1    2    0    0 -0.20754343633E+03 -0.13837951569E+03 -0.85786855117E+03  0.13040941758E+04  0.95000000000E+03 0.  0.
   -2000013    1    1    2    0    0  0.20754343633E+03  0.13837951569E+03 -0.10782715701E+03  0.98810417675E+03  0.95000000000E+03 0.  0.
<mgrwt>
<rscale>  0 0.20788471E+04</rscale>
<asrwt>0</asrwt>
<pdfrwt beam="2">  1        2 0.25060724E+00 0.20788471E+04</pdfrwt>
<pdfrwt beam="1">  1       -2 0.10203866E+00 0.20788471E+04</pdfrwt>
<totfact> 0.78083431E+00</totfact>
</mgrwt>
</event>
<event>
 4    1  0.2069825E-008  0.3649133E+04  0.7816531E-02  0.8079329E-01
         -2   -1    0    0    0  501 -0.00000000000E+00  0.00000000000E+00  0.90959153784E+03  0.90959153784E+03  0.00000000000E+00 0. -1.
          2   -1    0    0  501    0  0.00000000000E+00 -0.00000000000E+00 -0.36599316983E+04  0.36599316983E+04  0.00000000000E+00 0.  1.
    2000013    1    1    2    0    0  0.12736744486E+04 -0.80303696040E+03 -0.87517766407E+03  0.19838222966E+04  0.95000000000E+03 0.  0.
   -2000013    1    1    2    0    0 -0.12736744486E+04  0.80303696040E+03 -0.18751624964E+04  0.25857009395E+04  0.95000000000E+03 0.  0.
<mgrwt>
<rscale>  0 0.36491330E+04</rscale>
<asrwt>0</asrwt>
<pdfrwt beam="2">  1        2 0.56306642E+00 0.36491330E+04</pdfrwt>
<pdfrwt beam="1">  1       -2 0.13993716E+00 0.36491330E+04</pdfrwt>
<totfact> 0.18195457E-01</totfact>
</mgrwt>
</event>
<event>
 4    1  0.2069825E-008  0.3695674E+04  0.7816531E-02  0.8068921E-01
          2   -1    0    0  501    0  0.00000000000E+00  0.00000000000E+00  0.15516890979E+04  0.15516890979E+04  0.00000000000E+00 0.  1.
         -2   -1    0    0    0  501 -0.00000000000E+00 -0.00000000000E+00 -0.22005063754E+04  0.22005063754E+04  0.00000000000E+00 0. -1.
    2000013    1    1    2    0    0 -0.13260034054E+03  0.13139469737E+04  0.56532851541E+03  0.17222473197E+04  0.95000000000E+03 0.  0.
   -2000013    1    1    2    0    0  0.13260034054E+03 -0.13139469737E+04 -0.12141457928E+04  0.20299481536E+04  0.95000000000E+03 0.  0.
<mgrwt>
<rscale>  0 0.36956741E+04</rscale>
<asrwt>0</asrwt>
<pdfrwt beam="1">  1        2 0.23872140E+00 0.36956741E+04</pdfrwt>
<pdfrwt beam="2">  1       -2 0.33853944E+00 0.36956741E+04</pdfrwt>
<totfact> 0.17622150E-01</totfact>
</mgrwt>
</event>
<event>
 4    1  0.2069825E-008  0.2735955E+04  0.7816531E-02  0.8323432E-01
         -2   -1    0    0    0  501 -0.00000000000E+00  0.00000000000E+00  0.20248072919E+04  0.20248072919E+04  0.00000000000E+00 0. -1.
          2   -1    0    0  501    0  0.00000000000E+00 -0.00000000000E+00 -0.92421726629E+03  0.92421726629E+03  0.00000000000E+00 0.  1.
    2000013    1    1    2    0    0  0.33306162410E+03  0.92168627751E+03  0.45135182110E+03  0.14375862082E+04  0.95000000000E+03 0.  0.
   -2000013    1    1    2    0    0 -0.33306162410E+03 -0.92168627751E+03  0.64923820451E+03  0.15114383500E+04  0.95000000000E+03 0.  0.
<mgrwt>
<rscale>  0 0.27359546E+04</rscale>
<asrwt>0</asrwt>
<pdfrwt beam="2">  1        2 0.14218727E+00 0.27359546E+04</pdfrwt>
<pdfrwt beam="1">  1       -2 0.31150881E+00 0.27359546E+04</pdfrwt>
<totfact> 0.66730476E-01</totfact>
</mgrwt>
</event>
<event>
 4    1  0.2069825E-008  0.2461153E+04  0.7816531E-02  0.8416957E-01
          2   -1    0    0  501    0  0.00000000000E+00  0.00000000000E+00  0.23879711935E+04  0.23879711935E+04  0.00000000000E+00 0.  1.
         -2   -1    0    0    0  501 -0.00000000000E+00 -0.00000000000E+00 -0.63414462919E+03  0.63414462919E+03  0.00000000000E+00 0. -1.
    2000013    1    1    2    0    0 -0.56520898057E+03 -0.20021906869E+02  0.15403994646E+04  0.18960993062E+04  0.95000000000E+03 0.  0.
   -2000013    1    1    2    0    0  0.56520898057E+03  0.20021906869E+02  0.21342709970E+03  0.11260165165E+04  0.95000000000E+03 0.  0.
<mgrwt>
<rscale>  0 0.24611535E+04</rscale>
<asrwt>0</asrwt>
<pdfrwt beam="1">  1        2 0.36738018E+00 0.24611535E+04</pdfrwt>
<pdfrwt beam="2">  1       -2 0.97560714E-01 0.24611535E+04</pdfrwt>
<totfact> 0.31638854E+00</totfact>
</mgrwt>
</event>
<event>
 4    1  0.2069825E-008  0.2475645E+04  0.7816531E-02  0.8411714E-01
         -2   -1    0    0    0  501 -0.00000000000E+00  0.00000000000E+00  0.13013189677E+04  0.13013189677E+04  0.00000000000E+00 0. -1.
          2   -1    0    0  501    0  0.00000000000E+00 -0.00000000000E+00 -0.11774243712E+04  0.11774243712E+04  0.00000000000E+00 0.  1.
    2000013    1    1    2    0    0  0.19327097131E+03 -0.56519038786E+03 -0.46111516504E+03  0.12132275295E+04  0.95000000000E+03 0.  0.
   -2000013    1    1    2    0    0 -0.19327097131E+03  0.56519038786E+03  0.58500976157E+03  0.12655158095E+04  0.95000000000E+03 0.  0.
<mgrwt>
<rscale>  0 0.24756451E+04</rscale>
<asrwt>0</asrwt>
<pdfrwt beam="2">  1        2 0.18114221E+00 0.24756451E+04</pdfrwt>
<pdfrwt beam="1">  1       -2 0.20020292E+00 0.24756451E+04</pdfrwt>
<totfact> 0.23154139E+00</totfact>
</mgrwt>
</event>
<event>
 4    1  0.2069825E-008  0.2120814E+04  0.7816531E-02  0.8552129E-01
         -2   -1    0    0    0  501 -0.00000000000E+00  0.00000000000E+00  0.33152988369E+03  0.33152988369E+03  0.00000000000E+00 0. -1.
          2   -1    0    0  501    0  0.00000000000E+00 -0.00000000000E+00 -0.33917409031E+04  0.33917409031E+04  0.00000000000E+00 0.  1.
    2000013    1    1    2    0    0  0.46981389164E+03 -0.33783085065E+02 -0.15128080935E+04  0.18474183926E+04  0.95000000000E+03 0.  0.
   -2000013    1    1    2    0    0 -0.46981389164E+03  0.33783085065E+02 -0.15474029260E+04  0.18758523942E+04  0.95000000000E+03 0.  0.
<mgrwt>
<rscale>  0 0.21208144E+04</rscale>
<asrwt>0</asrwt>
<pdfrwt beam="2">  1        2 0.52180627E+00 0.21208144E+04</pdfrwt>
<pdfrwt beam="1">  1       -2 0.51004600E-01 0.21208144E+04</pdfrwt>
<totfact> 0.32401647E+00</totfact>
</mgrwt>
</event>
<event>
 4    1  0.2069825E-008  0.2433661E+04  0.7816531E-02  0.8427008E-01
          1   -1    0    0  501    0  0.00000000000E+00  0.00000000000E+00  0.21321711141E+04  0.21321711141E+04  0.00000000000E+00 0.  1.
         -1   -1    0    0    0  501 -0.00000000000E+00 -0.00000000000E+00 -0.69444523243E+03  0.69444523243E+03  0.00000000000E+00 0. -1.
    2000013    1    1    2    0    0 -0.60907035174E+03 -0.43359197252E+03  0.55789446707E+03  0.13314334112E+04  0.95000000000E+03 0.  0.
   -2000013    1    1    2    0    0  0.60907035174E+03  0.43359197252E+03  0.87983141457E+03  0.14951829353E+04  0.95000000000E+03 0.  0.
<mgrwt>
<rscale>  0 0.24336607E+04</rscale>
<asrwt>0</asrwt>
<pdfrwt beam="1">  1        1 0.32802632E+00 0.24336607E+04</pdfrwt>
<pdfrwt beam="2">  1       -1 0.10683773E+00 0.24336607E+04</pdfrwt>
<totfact> 0.17695897E+00</totfact>
</mgrwt>
</event>
<event>
 4    1  0.2069825E-008  0.2093729E+04  0.7816531E-02  0.8564011E-01
          2   -1    0    0  501    0  0.00000000000E+00  0.00000000000E+00  0.29333060432E+04  0.29333060432E+04  0.00000000000E+00 0.  1.
         -2   -1    0    0    0  501 -0.00000000000E+00 -0.00000000000E+00 -0.37361442260E+03  0.37361442260E+03  0.00000000000E+00 0. -1.
    2000013    1    1    2    0    0  0.94482370539E+02 -0.34332033872E+03  0.87214921797E+03  0.13378864046E+04  0.95000000000E+03 0.  0.
   -2000013    1    1    2    0    0 -0.94482370539E+02  0.34332033872E+03  0.16875424026E+04  0.19690340611E+04  0.95000000000E+03 0.  0.
<mgrwt>
<rscale>  0 0.20937292E+04</rscale>
<asrwt>0</asrwt>
<pdfrwt beam="1">  1        2 0.45127784E+00 0.20937292E+04</pdfrwt>
<pdfrwt beam="2">  1       -2 0.57479144E-01 0.20937292E+04</pdfrwt>
<totfact> 0.50166979E+00</totfact>
</mgrwt>
</event>
<event>
 4    1  0.2069825E-008  0.2247975E+04  0.7816531E-02  0.8498721E-01
         -1   -1    0    0    0  501 -0.00000000000E+00  0.00000000000E+00  0.44992904349E+03  0.44992904349E+03  0.00000000000E+00 0.  1.
          1   -1    0    0  501    0  0.00000000000E+00 -0.00000000000E+00 -0.28078828621E+04  0.28078828621E+04  0.00000000000E+00 0. -1.
    2000013    1    1    2    0    0 -0.51367066690E+03  0.16588911640E+02 -0.16296712499E+04  0.19551115387E+04  0.95000000000E+03 0.  0.
   -2000013    1    1    2    0    0  0.51367066690E+03 -0.16588911640E+02 -0.72828256873E+03  0.13027003669E+04  0.95000000000E+03 0.  0.
<mgrwt>
<rscale>  0 0.22479751E+04</rscale>
<asrwt>0</asrwt>
<pdfrwt beam="2">  1        1 0.43198197E+00 0.22479751E+04</pdfrwt>
<pdfrwt beam="1">  1       -1 0.69219854E-01 0.22479751E+04</pdfrwt>
<totfact> 0.15775307E+00</totfact>
</mgrwt>
</event>
<event>
 4    1  0.2069825E-008  0.2493251E+04  0.7816531E-02  0.8405394E-01
         -2   -1    0    0    0  501 -0.00000000000E+00  0.00000000000E+00  0.80354319639E+03  0.80354319639E+03  0.00000000000E+00 0. -1.
          2   -1    0    0  501    0  0.00000000000E+00 -0.00000000000E+00 -0.19340278916E+04  0.19340278916E+04  0.00000000000E+00 0.  1.
    2000013    1    1    2    0    0  0.74145198806E+03  0.95727763876E+02 -0.23101205582E+03  0.12307645694E+04  0.95000000000E+03 0.  0.
   -2000013    1    1    2    0    0 -0.74145198806E+03 -0.95727763876E+02 -0.89947263936E+03  0.15068065186E+04  0.95000000000E+03 0.  0.
<mgrwt>
<rscale>  0 0.24932509E+04</rscale>
<asrwt>0</asrwt>
<pdfrwt beam="2">  1        2 0.29754275E+00 0.24932509E+04</pdfrwt>
<pdfrwt beam="1">  1       -2 0.12362203E+00 0.24932509E+04</pdfrwt>
<totfact> 0.31985571E+00</totfact>
</mgrwt>
</event>
<event>
 4    1  0.2069825E-008  0.2151825E+04  0.7816531E-02  0.8538752E-01
         -2   -1    0    0    0  501 -0.00000000000E+00  0.00000000000E+00  0.80389959113E+03  0.80389959113E+03  0.00000000000E+00 0. -1.
          2   -1    0    0  501    0  0.00000000000E+00 -0.00000000000E+00 -0.14399653196E+04  0.14399653196E+04  0.00000000000E+00 0.  1.
    2000013    1    1    2    0    0 -0.43834963809E+03 -0.23294102886E+03 -0.41515978926E+03  0.11494649098E+04  0.95000000000E+03 0.  0.
   -2000013    1    1    2    0    0  0.43834963809E+03  0.23294102886E+03 -0.22090593921E+03  0.10944000010E+04  0.95000000000E+03 0.  0.
<mgrwt>
<rscale>  0 0.21518248E+04</rscale>
<asrwt>0</asrwt>
<pdfrwt beam="2">  1        2 0.22153312E+00 0.21518248E+04</pdfrwt>
<pdfrwt beam="1">  1       -2 0.12367686E+00 0.21518248E+04</pdfrwt>
<totfact> 0.62055454E+00</totfact>
</mgrwt>
</event>
<event>
 4    1  0.2069825E-008  0.3185255E+04  0.7816531E-02  0.8192722E-01
         -1   -1    0    0    0  501 -0.00000000000E+00  0.00000000000E+00  0.18807008355E+04  0.18807008355E+04  0.00000000000E+00 0. -1.
          1   -1    0    0  501    0  0.00000000000E+00 -0.00000000000E+00 -0.13486795556E+04  0.13486795556E+04  0.00000000000E+00 0.  1.
    2000013    1    1    2    0    0 -0.51375450416E+03 -0.62028793099E+03  0.12723647391E+04  0.17804810690E+04  0.95000000000E+03 0.  0.
   -2000013    1    1    2    0    0  0.51375450416E+03  0.62028793099E+03 -0.74034345920E+03  0.14488993221E+04  0.95000000000E+03 0.  0.
<mgrwt>
<rscale>  0 0.31852553E+04</rscale>
<asrwt>0</asrwt>
<pdfrwt beam="2">  1        1 0.20748916E+00 0.31852553E+04</pdfrwt>
<pdfrwt beam="1">  1       -1 0.28933859E+00 0.31852553E+04</pdfrwt>
<totfact> 0.27086152E-01</totfact>
</mgrwt>
</event>
<event>
 4    1  0.2069825E-008  0.2580914E+04  0.7816531E-02  0.8374713E-01
          2   -1    0    0  501    0  0.00000000000E+00  0.00000000000E+00  0.22943791626E+04  0.22943791626E+04  0.00000000000E+00 0.  1.
         -2   -1    0    0    0  501 -0.00000000000E+00 -0.00000000000E+00 -0.72580817763E+03  0.72580817763E+03  0.00000000000E+00 0. -1.
    2000013    1    1    2    0    0 -0.28140720427E+03 -0.79508717946E+03  0.51891678144E+03  0.13722712063E+04  0.95000000000E+03 0.  0.
   -2000013    1    1    2    0    0  0.28140720427E+03  0.79508717946E+03  0.10496542036E+04  0.16479161340E+04  0.95000000000E+03 0.  0.
<mgrwt>
<rscale>  0 0.25809139E+04</rscale>
<asrwt>0</asrwt>
<pdfrwt beam="1">  1        2 0.35298141E+00 0.25809139E+04</pdfrwt>
<pdfrwt beam="2">  1       -2 0.11166280E+00 0.25809139E+04</pdfrwt>
<totfact> 0.25629615E+00</totfact>
</mgrwt>
</event>
<event>
 4    1  0.2069825E-008  0.2092871E+04  0.7816531E-02  0.8564390E-01
          2   -1    0    0  501    0  0.00000000000E+00  0.00000000000E+00  0.23690940081E+04  0.23690940081E+04  0.00000000000E+00 0.  1.
         -2   -1    0    0    0  501 -0.00000000000E+00 -0.00000000000E+00 -0.46221372861E+03  0.46221372861E+03  0.00000000000E+00 0. -1.
    2000013    1    1    2    0    0  0.30103510954E+03 -0.31788523852E+03  0.91389171181E+03  0.13890180787E+04  0.95000000000E+03 0.  0.
   -2000013    1    1    2    0    0 -0.30103510954E+03  0.31788523852E+03  0.99298856766E+03  0.14422896580E+04  0.95000000000E+03 0.  0.
<mgrwt>
<rscale>  0 0.20928715E+04</rscale>
<asrwt>0</asrwt>
<pdfrwt beam="1">  1        2 0.36447599E+00 0.20928715E+04</pdfrwt>
<pdfrwt beam="2">  1       -2 0.71109806E-01 0.20928715E+04</pdfrwt>
<totfact> 0.68580783E+00</totfact>
</mgrwt>
</event>
<event>
 4    1  0.2069825E-008  0.2992696E+04  0.7816531E-02  0.8245820E-01
          2   -1    0    0  501    0  0.00000000000E+00  0.00000000000E+00  0.25269684908E+04  0.25269684908E+04  0.00000000000E+00 0.  1.
         -2   -1    0    0    0  501 -0.00000000000E+00 -0.00000000000E+00 -0.88606486365E+03  0.88606486365E+03  0.00000000000E+00 0. -1.
    2000013    1    1    2    0    0 -0.58338846285E+03  0.97718729075E+03  0.10522781152E+04  0.18179731383E+04  0.95000000000E+03 0.  0.
   -2000013    1    1    2    0    0  0.58338846285E+03 -0.97718729075E+03  0.58862551191E+03  0.15950602161E+04  0.95000000000E+03 0.  0.
<mgrwt>
<rscale>  0 0.29926964E+04</rscale>
<asrwt>0</asrwt>
<pdfrwt beam="1">  1        2 0.38876438E+00 0.29926964E+04</pdfrwt>
<pdfrwt beam="2">  1       -2 0.13631767E+00 0.29926964E+04</pdfrwt>
<totfact> 0.11064940E+00</totfact>
</mgrwt>
</event>
<event>
 4    1  0.2069825E-008  0.2475842E+04  0.7816531E-02  0.8411643E-01
         -2   -1    0    0    0  501 -0.00000000000E+00  0.00000000000E+00  0.96939154379E+03  0.96939154379E+03  0.00000000000E+00 0. -1.
          2   -1    0    0  501    0  0.00000000000E+00 -0.00000000000E+00 -0.15808349164E+04  0.15808349164E+04  0.00000000000E+00 0.  1.
    2000013    1    1    2    0    0  0.28781166646E+03  0.11859599841E+03 -0.10577579914E+04  0.14554217720E+04  0.95000000000E+03 0.  0.
   -2000013    1    1    2    0    0 -0.28781166646E+03 -0.11859599841E+03  0.44631461880E+03  0.10948046881E+04  0.95000000000E+03 0.  0.
<mgrwt>
<rscale>  0 0.24758417E+04</rscale>
<asrwt>0</asrwt>
<pdfrwt beam="2">  1        2 0.24320537E+00 0.24758417E+04</pdfrwt>
<pdfrwt beam="1">  1       -2 0.14913716E+00 0.24758417E+04</pdfrwt>
<totfact> 0.31084394E+00</totfact>
</mgrwt>
</event>
<event>
 4    1  0.2069825E-008  0.2054404E+04  0.7816531E-02  0.8581599E-01
         -2   -1    0    0    0  501 -0.00000000000E+00  0.00000000000E+00  0.56932104985E+03  0.56932104985E+03  0.00000000000E+00 0. -1.
          2   -1    0    0  501    0  0.00000000000E+00 -0.00000000000E+00 -0.18533372408E+04  0.18533372408E+04  0.00000000000E+00 0.  1.
    2000013    1    1    2    0    0  0.14951602080E+03 -0.28475694130E+03 -0.38043128976E+03  0.10726926504E+04  0.95000000000E+03 0.  0.
   -2000013    1    1    2    0    0 -0.14951602080E+03  0.28475694130E+03 -0.90358490123E+03  0.13499656402E+04  0.95000000000E+03 0.  0.
<mgrwt>
<rscale>  0 0.20544040E+04</rscale>
<asrwt>0</asrwt>
<pdfrwt beam="2">  1        2 0.28512880E+00 0.20544040E+04</pdfrwt>
<pdfrwt beam="1">  1       -2 0.87587855E-01 0.20544040E+04</pdfrwt>
<totfact> 0.83870374E+00</totfact>
</mgrwt>
</event>
<event>
 4    1  0.2069825E-008  0.3234570E+04  0.7816531E-02  0.8179746E-01
         -1   -1    0    0    0  501 -0.00000000000E+00  0.00000000000E+00  0.65810964135E+03  0.65810964135E+03  0.00000000000E+00 0. -1.
          1   -1    0    0  501    0  0.00000000000E+00 -0.00000000000E+00 -0.39744305352E+04  0.39744305352E+04  0.00000000000E+00 0.  1.
    2000013    1    1    2    0    0 -0.18703835940E+03  0.12861817577E+04 -0.14369141623E+04  0.21578853472E+04  0.95000000000E+03 0.  0.
   -2000013    1    1    2    0    0  0.18703835940E+03 -0.12861817577E+04 -0.18794067316E+04  0.24746548294E+04  0.95000000000E+03 0.  0.
<mgrwt>
<rscale>  0 0.32345702E+04</rscale>
<asrwt>0</asrwt>
<pdfrwt beam="2">  1        1 0.61145087E+00 0.32345702E+04</pdfrwt>
<pdfrwt beam="1">  1       -1 0.10124763E+00 0.32345702E+04</pdfrwt>
<totfact> 0.77940371E-02</totfact>
</mgrwt>
</event>
<event>
 4    1  0.2069825E-008  0.2158324E+04  0.7816531E-02  0.8535978E-01
          2   -1    0    0  501    0  0.00000000000E+00  0.00000000000E+00  0.58271323436E+03  0.58271323436E+03  0.00000000000E+00 0.  1.
         -2   -1    0    0    0  501 -0.00000000000E+00 -0.00000000000E+00 -0.19985648003E+04  0.19985648003E+04  0.00000000000E+00 0. -1.
    2000013    1    1    2    0    0  0.45334295069E+03 -0.60617292510E+02 -0.43286471698E+03  0.11397658313E+04  0.95000000000E+03 0.  0.
   -2000013    1    1    2    0    0 -0.45334295069E+03  0.60617292510E+02 -0.98298684896E+03  0.14415122033E+04  0.95000000000E+03 0.  0.
<mgrwt>
<rscale>  0 0.21583236E+04</rscale>
<asrwt>0</asrwt>
<pdfrwt beam="1">  1        2 0.89648190E-01 0.21583236E+04</pdfrwt>
<pdfrwt beam="2">  1       -2 0.30747151E+00 0.21583236E+04</pdfrwt>
<totfact> 0.13488188E+00</totfact>
</mgrwt>
</event>
<event>
 4    1  0.2069825E-008  0.2238705E+04  0.7816531E-02  0.8502489E-01
         -2   -1    0    0    0  501 -0.00000000000E+00  0.00000000000E+00  0.13012385751E+04  0.13012385751E+04  0.00000000000E+00 0. -1.
          2   -1    0    0  501    0  0.00000000000E+00 -0.00000000000E+00 -0.96289040756E+03  0.96289040756E+03  0.00000000000E+00 0.  1.
    2000013    1    1    2    0    0 -0.32132708391E+03  0.43123842780E+03 -0.81088052090E+02  0.10946656789E+04  0.95000000000E+03 0.  0.
   -2000013    1    1    2    0    0  0.32132708391E+03 -0.43123842780E+03  0.41943621968E+03  0.11694633038E+04  0.95000000000E+03 0.  0.
<mgrwt>
<rscale>  0 0.22387051E+04</rscale>
<asrwt>0</asrwt>
<pdfrwt beam="2">  1        2 0.14813698E+00 0.22387051E+04</pdfrwt>
<pdfrwt beam="1">  1       -2 0.20019055E+00 0.22387051E+04</pdfrwt>
<totfact> 0.32163848E+00</totfact>
</mgrwt>
</event>
<event>
 4    1  0.2069825E-008  0.2624124E+04  0.7816531E-02  0.8360053E-01
         -2   -1    0    0    0  501 -0.00000000000E+00  0.00000000000E+00  0.10515087686E+04  0.10515087686E+04  0.00000000000E+00 0. -1.
          2   -1    0    0  501    0  0.00000000000E+00 -0.00000000000E+00 -0.16371780696E+04  0.16371780696E+04  0.00000000000E+00 0.  1.
    2000013    1    1    2    0    0 -0.84387802387E+03  0.58932475779E+02  0.36641786463E+02  0.12725744679E+04  0.95000000000E+03 0.  0.
   -2000013    1    1    2    0    0  0.84387802387E+03 -0.58932475779E+02 -0.62231108745E+03  0.14161123703E+04  0.95000000000E+03 0.  0.
<mgrwt>
<rscale>  0 0.26241243E+04</rscale>
<asrwt>0</asrwt>
<pdfrwt beam="2">  1        2 0.25187355E+00 0.26241243E+04</pdfrwt>
<pdfrwt beam="1">  1       -2 0.16177058E+00 0.26241243E+04</pdfrwt>
<totfact> 0.22943246E+00</totfact>
</mgrwt>
</event>
<event>
 4    1  0.2069825E-008  0.2283981E+04  0.7816531E-02  0.8484264E-01
          2   -1    0    0  501    0  0.00000000000E+00  0.00000000000E+00  0.67958119064E+03  0.67958119064E+03  0.00000000000E+00 0.  1.
         -2   -1    0    0    0  501 -0.00000000000E+00 -0.00000000000E+00 -0.19190383402E+04  0.19190383402E+04  0.00000000000E+00 0. -1.
    2000013    1    1    2    0    0 -0.83686295881E+02 -0.62767410633E+03 -0.59040660313E+03  0.12853241369E+04  0.95000000000E+03 0.  0.
   -2000013    1    1    2    0    0  0.83686295881E+02  0.62767410633E+03 -0.64905054638E+03  0.13132953939E+04  0.95000000000E+03 0.  0.
<mgrwt>
<rscale>  0 0.22839811E+04</rscale>
<asrwt>0</asrwt>
<pdfrwt beam="1">  1        2 0.10455095E+00 0.22839811E+04</pdfrwt>
<pdfrwt beam="2">  1       -2 0.29523667E+00 0.22839811E+04</pdfrwt>
<totfact> 0.13128684E+00</totfact>
</mgrwt>
</event>
<event>
 4    1  0.2069825E-008  0.3229826E+04  0.7816531E-02  0.8180984E-01
          2   -1    0    0  501    0  0.00000000000E+00  0.00000000000E+00  0.25333227723E+04  0.25333227723E+04  0.00000000000E+00 0. -1.
         -2   -1    0    0    0  501 -0.00000000000E+00 -0.00000000000E+00 -0.10294561236E+04  0.10294561236E+04  0.00000000000E+00 0.  1.
    2000013    1    1    2    0    0  0.72832891054E+03  0.41343495436E+03  0.18572533762E+04  0.22479505259E+04  0.95000000000E+03 0.  0.
   -2000013    1    1    2    0    0 -0.72832891054E+03 -0.41343495436E+03 -0.35338672744E+03  0.13148283700E+04  0.95000000000E+03 0.  0.
<mgrwt>
<rscale>  0 0.32298264E+04</rscale>
<asrwt>0</asrwt>
<pdfrwt beam="1">  1        2 0.38974196E+00 0.32298264E+04</pdfrwt>
<pdfrwt beam="2">  1       -2 0.15837787E+00 0.32298264E+04</pdfrwt>
<totfact> 0.72407830E-01</totfact>
</mgrwt>
</event>
<event>
 4    1  0.2069825E-008  0.2175102E+04  0.7816531E-02  0.8528863E-01
          2   -1    0    0  501    0  0.00000000000E+00  0.00000000000E+00  0.12393603898E+04  0.12393603898E+04  0.00000000000E+00 0.  1.
         -2   -1    0    0    0  501 -0.00000000000E+00 -0.00000000000E+00 -0.95433644148E+03  0.95433644148E+03  0.00000000000E+00 0. -1.
    2000013    1    1    2    0    0 -0.12743555537E+03  0.38728613073E+03  0.48309173226E+03  0.11410994653E+04  0.95000000000E+03 0.  0.
   -2000013    1    1    2    0    0  0.12743555537E+03 -0.38728613073E+03 -0.19806778397E+03  0.10525973660E+04  0.95000000000E+03 0.  0.
<mgrwt>
<rscale>  0 0.21751016E+04</rscale>
<asrwt>0</asrwt>
<pdfrwt beam="1">  1        2 0.19067083E+00 0.21751016E+04</pdfrwt>
<pdfrwt beam="2">  1       -2 0.14682099E+00 0.21751016E+04</pdfrwt>
<totfact> 0.52124967E+00</totfact>
</mgrwt>
</event>
<event>
 4    1  0.2069825E-008  0.2230153E+04  0.7816531E-02  0.8505982E-01
          2   -1    0    0  501    0  0.00000000000E+00  0.00000000000E+00  0.15750870321E+04  0.15750870321E+04  0.00000000000E+00 0.  1.
         -2   -1    0    0    0  501 -0.00000000000E+00 -0.00000000000E+00 -0.78941393569E+03  0.78941393569E+03  0.00000000000E+00 0. -1.
    2000013    1    1    2    0    0 -0.32931414548E+03 -0.47716228443E+03  0.46601626903E+03  0.12065665399E+04  0.95000000000E+03 0.  0.
   -2000013    1    1    2    0    0  0.32931414548E+03  0.47716228443E+03  0.31965682736E+03  0.11579344279E+04  0.95000000000E+03 0.  0.
<mgrwt>
<rscale>  0 0.22301530E+04</rscale>
<asrwt>0</asrwt>
<pdfrwt beam="1">  1        2 0.24232108E+00 0.22301530E+04</pdfrwt>
<pdfrwt beam="2">  1       -2 0.12144830E+00 0.22301530E+04</pdfrwt>
<totfact> 0.54123646E+00</totfact>
</mgrwt>
</event>
<event>
 4    1  0.2069825E-008  0.2618403E+04  0.7816531E-02  0.8361977E-01
         -2   -1    0    0    0  501 -0.00000000000E+00  0.00000000000E+00  0.16452757591E+04  0.16452757591E+04  0.00000000000E+00 0. -1.
          2   -1    0    0  501    0  0.00000000000E+00 -0.00000000000E+00 -0.10417761155E+04  0.10417761155E+04  0.00000000000E+00 0.  1.
    2000013    1    1    2    0    0  0.76540955340E+03 -0.45418433517E+03  0.15891080550E+03  0.13114449431E+04  0.95000000000E+03 0.  0.
   -2000013    1    1    2    0    0 -0.76540955340E+03  0.45418433517E+03  0.44458883810E+03  0.13756069314E+04  0.95000000000E+03 0.  0.
<mgrwt>
<rscale>  0 0.26184033E+04</rscale>
<asrwt>0</asrwt>
<pdfrwt beam="2">  1        2 0.16027325E+00 0.26184033E+04</pdfrwt>
<pdfrwt beam="1">  1       -2 0.25311935E+00 0.26184033E+04</pdfrwt>
<totfact> 0.12863661E+00</totfact>
</mgrwt>
</event>
<event>
 4    1  0.2069825E-008  0.2253006E+04  0.7816531E-02  0.8496684E-01
          2   -1    0    0  501    0  0.00000000000E+00  0.00000000000E+00  0.46474439185E+03  0.46474439185E+03  0.00000000000E+00 0.  1.
         -2   -1    0    0    0  501 -0.00000000000E+00 -0.00000000000E+00 -0.27305537262E+04  0.27305537262E+04  0.00000000000E+00 0. -1.
    2000013    1    1    2    0    0  0.57969309994E+03 -0.15024687936E+03 -0.10069182678E+04  0.15083111790E+04  0.95000000000E+03 0.  0.
   -2000013    1    1    2    0    0 -0.57969309994E+03  0.15024687936E+03 -0.12588910666E+04  0.16869869390E+04  0.95000000000E+03 0.  0.
<mgrwt>
<rscale>  0 0.22530065E+04</rscale>
<asrwt>0</asrwt>
<pdfrwt beam="1">  1        2 0.71499137E-01 0.22530065E+04</pdfrwt>
<pdfrwt beam="2">  1       -2 0.42008519E+00 0.22530065E+04</pdfrwt>
<totfact> 0.33433568E-01</totfact>
</mgrwt>
</event>
<event>
 4    1  0.2069825E-008  0.1998936E+04  0.7816531E-02  0.8607118E-01
          2   -1    0    0  501    0  0.00000000000E+00  0.00000000000E+00  0.19722794889E+04  0.19722794889E+04  0.00000000000E+00 0.  1.
         -2   -1    0    0    0  501 -0.00000000000E+00 -0.00000000000E+00 -0.50648824687E+03  0.50648824687E+03  0.00000000000E+00 0. -1.
    2000013    1    1    2    0    0  0.29205736572E+03  0.98302997842E+02  0.78052679492E+03  0.12675500234E+04  0.95000000000E+03 0.  0.
   -2000013    1    1    2    0    0 -0.29205736572E+03 -0.98302997842E+02  0.68526444711E+03  0.12112177124E+04  0.95000000000E+03 0.  0.
<mgrwt>
<rscale>  0 0.19989361E+04</rscale>
<asrwt>0</asrwt>
<pdfrwt beam="1">  1        2 0.30342761E+00 0.19989361E+04</pdfrwt>
<pdfrwt beam="2">  1       -2 0.77921270E-01 0.19989361E+04</pdfrwt>
<totfact> 0.94316675E+00</totfact>
</mgrwt>
</event>
<event>
 4    1  0.2069825E-008  0.2353917E+04  0.7816531E-02  0.8456961E-01
         -1   -1    0    0    0  501 -0.00000000000E+00  0.00000000000E+00  0.10813939329E+04  0.10813939329E+04  0.00000000000E+00 0. -1.
          1   -1    0    0  501    0  0.00000000000E+00 -0.00000000000E+00 -0.12809684510E+04  0.12809684510E+04  0.00000000000E+00 0.  1.
    2000013    1    1    2    0    0  0.35005598133E+03 -0.44900191418E+03 -0.49944911124E+03  0.12149449879E+04  0.95000000000E+03 0.  0.
   -2000013    1    1    2    0    0 -0.35005598133E+03  0.44900191418E+03  0.29987459310E+03  0.11474173960E+04  0.95000000000E+03 0.  0.
<mgrwt>
<rscale>  0 0.23539172E+04</rscale>
<asrwt>0</asrwt>
<pdfrwt beam="2">  1        1 0.19707207E+00 0.23539172E+04</pdfrwt>
<pdfrwt beam="1">  1       -1 0.16636830E+00 0.23539172E+04</pdfrwt>
<totfact> 0.21984957E+00</totfact>
</mgrwt>
</event>
<event>
 4    1  0.2069825E-008  0.2312886E+04  0.7816531E-02  0.8472858E-01
         -2   -1    0    0    0  501 -0.00000000000E+00  0.00000000000E+00  0.15073293201E+04  0.15073293201E+04  0.00000000000E+00 0. -1.
          2   -1    0    0  501    0  0.00000000000E+00 -0.00000000000E+00 -0.88723861027E+03  0.88723861027E+03  0.00000000000E+00 0.  1.
    2000013    1    1    2    0    0 -0.38659645428E+03  0.52767961049E+03  0.22368374126E+03  0.11749199998E+04  0.95000000000E+03 0.  0.
   -2000013    1    1    2    0    0  0.38659645428E+03 -0.52767961049E+03  0.39640696852E+03  0.12196479305E+04  0.95000000000E+03 0.  0.
<mgrwt>
<rscale>  0 0.23128863E+04</rscale>
<asrwt>0</asrwt>
<pdfrwt beam="2">  1        2 0.13649825E+00 0.23128863E+04</pdfrwt>
<pdfrwt beam="1">  1       -2 0.23189682E+00 0.23128863E+04</pdfrwt>
<totfact> 0.22532745E+00</totfact>
</mgrwt>
</event>
<event>
 4    1  0.2069825E-008  0.2629470E+04  0.7816531E-02  0.8358259E-01
          1   -1    0    0  501    0  0.00000000000E+00  0.00000000000E+00  0.20335425608E+04  0.20335425608E+04  0.00000000000E+00 0.  1.
         -1   -1    0    0    0  501 -0.00000000000E+00 -0.00000000000E+00 -0.85000850046E+03  0.85000850046E+03  0.00000000000E+00 0. -1.
    2000013    1    1    2    0    0 -0.62630251632E+03 -0.55013523874E+03  0.98886884179E+03  0.16047632876E+04  0.95000000000E+03 0.  0.
   -2000013    1    1    2    0    0  0.62630251632E+03  0.55013523874E+03  0.19466521856E+03  0.12787877737E+04  0.95000000000E+03 0.  0.
<mgrwt>
<rscale>  0 0.26294703E+04</rscale>
<asrwt>0</asrwt>
<pdfrwt beam="1">  1        1 0.31285270E+00 0.26294703E+04</pdfrwt>
<pdfrwt beam="2">  1       -1 0.13077054E+00 0.26294703E+04</pdfrwt>
<totfact> 0.12408959E+00</totfact>
</mgrwt>
</event>
<event>
 4    1  0.2069825E-008  0.2337761E+04  0.7816531E-02  0.8463179E-01
          2   -1    0    0  501    0  0.00000000000E+00  0.00000000000E+00  0.84222428017E+03  0.84222428017E+03  0.00000000000E+00 0.  1.
         -2   -1    0    0    0  501 -0.00000000000E+00 -0.00000000000E+00 -0.16222305485E+04  0.16222305485E+04  0.00000000000E+00 0. -1.
    2000013    1    1    2    0    0  0.10264985057E+03  0.64435180058E+03 -0.18435220356E+03  0.11671383678E+04  0.95000000000E+03 0.  0.
   -2000013    1    1    2    0    0 -0.10264985057E+03 -0.64435180058E+03 -0.59565406480E+03  0.12973164609E+04  0.95000000000E+03 0.  0.
<mgrwt>
<rscale>  0 0.23377613E+04</rscale>
<asrwt>0</asrwt>
<pdfrwt beam="1">  1        2 0.12957297E+00 0.23377613E+04</pdfrwt>
<pdfrwt beam="2">  1       -2 0.24957393E+00 0.23377613E+04</pdfrwt>
<totfact> 0.18776802E+00</totfact>
</mgrwt>
</event>
<event>
 4    1  0.2069825E-008  0.3137513E+04  0.7816531E-02  0.8205518E-01
          2   -1    0    0  501    0  0.00000000000E+00  0.00000000000E+00  0.19982224819E+04  0.19982224819E+04  0.00000000000E+00 0.  1.
         -2   -1    0    0    0  501 -0.00000000000E+00 -0.00000000000E+00 -0.12315928175E+04  0.12315928175E+04  0.00000000000E+00 0. -1.
    2000013    1    1    2    0    0  0.85317655091E+03  0.58058751626E+03 -0.33985066424E+03  0.14432569297E+04  0.95000000000E+03 0.  0.
   -2000013    1    1    2    0    0 -0.85317655091E+03 -0.58058751626E+03  0.11064803286E+04  0.17865583698E+04  0.95000000000E+03 0.  0.
<mgrwt>
<rscale>  0 0.31375127E+04</rscale>
<asrwt>0</asrwt>
<pdfrwt beam="1">  1        2 0.30741884E+00 0.31375127E+04</pdfrwt>
<pdfrwt beam="2">  1       -2 0.18947582E+00 0.31375127E+04</pdfrwt>
<totfact> 0.88575549E-01</totfact>
</mgrwt>
</event>
<event>
 4    1  0.2069825E-008  0.2188528E+04  0.7816531E-02  0.8523218E-01
         -2   -1    0    0    0  501 -0.00000000000E+00  0.00000000000E+00  0.47703024384E+03  0.47703024384E+03  0.00000000000E+00 0. -1.
          2   -1    0    0  501    0  0.00000000000E+00 -0.00000000000E+00 -0.25101415268E+04  0.25101415268E+04  0.00000000000E+00 0.  1.
    2000013    1    1    2    0    0 -0.48554003642E+02  0.47900640022E+03 -0.13594442893E+04  0.17269607403E+04  0.95000000000E+03 0.  0.
   -2000013    1    1    2    0    0  0.48554003642E+02 -0.47900640022E+03 -0.67366699365E+03  0.12602110304E+04  0.95000000000E+03 0.  0.
<mgrwt>
<rscale>  0 0.21885277E+04</rscale>
<asrwt>0</asrwt>
<pdfrwt beam="2">  1        2 0.38617562E+00 0.21885277E+04</pdfrwt>
<pdfrwt beam="1">  1       -2 0.73389269E-01 0.21885277E+04</pdfrwt>
<totfact> 0.52649658E+00</totfact>
</mgrwt>
</event>
<event>
 4    1  0.2069825E-008  0.2605035E+04  0.7816531E-02  0.8366493E-01
          2   -1    0    0  501    0  0.00000000000E+00  0.00000000000E+00  0.31116141452E+04  0.31116141452E+04  0.00000000000E+00 0.  1.
         -2   -1    0    0    0  501 -0.00000000000E+00 -0.00000000000E+00 -0.54523209279E+03  0.54523209279E+03  0.00000000000E+00 0. -1.
    2000013    1    1    2    0    0 -0.65165519507E+03 -0.36687992139E+03  0.19633946794E+04  0.23057914123E+04  0.95000000000E+03 0.  0.
   -2000013    1    1    2    0    0  0.65165519507E+03  0.36687992139E+03  0.60298737302E+03  0.13510548257E+04  0.95000000000E+03 0.  0.
<mgrwt>
<rscale>  0 0.26050350E+04</rscale>
<asrwt>0</asrwt>
<pdfrwt beam="1">  1        2 0.47870986E+00 0.26050350E+04</pdfrwt>
<pdfrwt beam="2">  1       -2 0.83881862E-01 0.26050350E+04</pdfrwt>
<totfact> 0.16242522E+00</totfact>
</mgrwt>
</event>
<event>
 4    1  0.2069825E-008  0.2901141E+04  0.7816531E-02  0.8272538E-01
         -2   -1    0    0    0  501 -0.00000000000E+00  0.00000000000E+00  0.71843695765E+03  0.71843695765E+03  0.00000000000E+00 0. -1.
          2   -1    0    0  501    0  0.00000000000E+00 -0.00000000000E+00 -0.29287954020E+04  0.29287954020E+04  0.00000000000E+00 0.  1.
    2000013    1    1    2    0    0 -0.68108673531E+03 -0.80664841110E+03 -0.14761919856E+04  0.20484637118E+04  0.95000000000E+03 0.  0.
   -2000013    1    1    2    0    0  0.68108673531E+03  0.80664841110E+03 -0.73416645865E+03  0.15987686478E+04  0.95000000000E+03 0.  0.
<mgrwt>
<rscale>  0 0.29011411E+04</rscale>
<asrwt>0</asrwt>
<pdfrwt beam="2">  1        2 0.45058391E+00 0.29011411E+04</pdfrwt>
<pdfrwt beam="1">  1       -2 0.11052876E+00 0.29011411E+04</pdfrwt>
<totfact> 0.10802540E+00</totfact>
</mgrwt>
</event>
<event>
 4    1  0.2069825E-008  0.2649814E+04  0.7816531E-02  0.8351475E-01
          2   -1    0    0  501    0  0.00000000000E+00  0.00000000000E+00  0.15779930279E+04  0.15779930279E+04  0.00000000000E+00 0.  1.
         -2   -1    0    0    0  501 -0.00000000000E+00 -0.00000000000E+00 -0.11124118995E+04  0.11124118995E+04  0.00000000000E+00 0. -1.
    2000013    1    1    2    0    0  0.91103828501E+03  0.10665583152E+03  0.34172812860E+03  0.13640543747E+04  0.95000000000E+03 0.  0.
   -2000013    1    1    2    0    0 -0.91103828501E+03 -0.10665583152E+03  0.12385299988E+03  0.13263505527E+04  0.95000000000E+03 0.  0.
<mgrwt>
<rscale>  0 0.26498137E+04</rscale>
<asrwt>0</asrwt>
<pdfrwt beam="1">  1        2 0.24276816E+00 0.26498137E+04</pdfrwt>
<pdfrwt beam="2">  1       -2 0.17114029E+00 0.26498137E+04</pdfrwt>
<totfact> 0.21146705E+00</totfact>
</mgrwt>
</event>
<event>
 4    1  0.2069825E-008  0.2974841E+04  0.7816531E-02  0.8250952E-01
          2   -1    0    0  501    0  0.00000000000E+00  0.00000000000E+00  0.18551461332E+04  0.18551461332E+04  0.00000000000E+00 0.  1.
         -2   -1    0    0    0  501 -0.00000000000E+00 -0.00000000000E+00 -0.11925853085E+04  0.11925853085E+04  0.00000000000E+00 0. -1.
    2000013    1    1    2    0    0 -0.10406551967E+04 -0.21391426352E+03  0.76738331580E+03  0.16186722039E+04  0.95000000000E+03 0.  0.
   -2000013    1    1    2    0    0  0.10406551967E+04  0.21391426352E+03 -0.10482249109E+03  0.14290592378E+04  0.95000000000E+03 0.  0.
<mgrwt>
<rscale>  0 0.29748412E+04</rscale>
<asrwt>0</asrwt>
<pdfrwt beam="1">  1        2 0.28540710E+00 0.29748412E+04</pdfrwt>
<pdfrwt beam="2">  1       -2 0.18347466E+00 0.29748412E+04</pdfrwt>
<totfact> 0.11839454E+00</totfact>
</mgrwt>
</event>
<event>
 4    1  0.2069825E-008  0.2752427E+04  0.7816531E-02  0.8318192E-01
         -2   -1    0    0    0  501 -0.00000000000E+00  0.00000000000E+00  0.84208487807E+03  0.84208487807E+03  0.00000000000E+00 0. -1.
          2   -1    0    0  501    0  0.00000000000E+00 -0.00000000000E+00 -0.22491357429E+04  0.22491357429E+04  0.00000000000E+00 0.  1.
    2000013    1    1    2    0    0  0.80195008686E+03 -0.52477394826E+03 -0.40018414360E+03  0.14075364959E+04  0.95000000000E+03 0.  0.
   -2000013    1    1    2    0    0 -0.80195008686E+03  0.52477394826E+03 -0.10068667212E+04  0.16836841250E+04  0.95000000000E+03 0.  0.
<mgrwt>
<rscale>  0 0.27524267E+04</rscale>
<asrwt>0</asrwt>
<pdfrwt beam="2">  1        2 0.34602088E+00 0.27524267E+04</pdfrwt>
<pdfrwt beam="1">  1       -2 0.12955152E+00 0.27524267E+04</pdfrwt>
<totfact> 0.18539407E+00</totfact>
</mgrwt>
</event>
<event>
 4    1  0.2069825E-008  0.2286683E+04  0.7816531E-02  0.8483190E-01
         -2   -1    0    0    0  501 -0.00000000000E+00  0.00000000000E+00  0.35716705914E+03  0.35716705914E+03  0.00000000000E+00 0. -1.
          2   -1    0    0  501    0  0.00000000000E+00 -0.00000000000E+00 -0.36599945250E+04  0.36599945250E+04  0.00000000000E+00 0.  1.
    2000013    1    1    2    0    0 -0.52481220730E+03  0.25417264497E+03 -0.12045671281E+04  0.16411927226E+04  0.95000000000E+03 0.  0.
   -2000013    1    1    2    0    0  0.52481220730E+03 -0.25417264497E+03 -0.20982603377E+04  0.23759688616E+04  0.95000000000E+03 0.  0.
<mgrwt>
<rscale>  0 0.22866827E+04</rscale>
<asrwt>0</asrwt>
<pdfrwt beam="2">  1        2 0.56307609E+00 0.22866827E+04</pdfrwt>
<pdfrwt beam="1">  1       -2 0.54948777E-01 0.22866827E+04</pdfrwt>
<totfact> 0.17723349E+00</totfact>
</mgrwt>
</event>
<event>
 4    1  0.2069825E-008  0.2319685E+04  0.7816531E-02  0.8470200E-01
          2   -1    0    0  501    0  0.00000000000E+00  0.00000000000E+00  0.73850279904E+03  0.73850279904E+03  0.00000000000E+00 0.  1.
         -2   -1    0    0    0  501 -0.00000000000E+00 -0.00000000000E+00 -0.18215699842E+04  0.18215699842E+04  0.00000000000E+00 0. -1.
    2000013    1    1    2    0    0 -0.73210370355E+02 -0.59681793889E+03 -0.22708027122E+03  0.11470034264E+04  0.95000000000E+03 0.  0.
   -2000013    1    1    2    0    0  0.73210370355E+02  0.59681793889E+03 -0.85598691392E+03  0.14130693569E+04  0.95000000000E+03 0.  0.
<mgrwt>
<rscale>  0 0.23196849E+04</rscale>
<asrwt>0</asrwt>
<pdfrwt beam="1">  1        2 0.11361582E+00 0.23196849E+04</pdfrwt>
<pdfrwt beam="2">  1       -2 0.28024153E+00 0.23196849E+04</pdfrwt>
<totfact> 0.14535739E+00</totfact>
</mgrwt>
</event>
<event>
 4    1  0.2069825E-008  0.3098550E+04  0.7816531E-02  0.8216136E-01
          2   -1    0    0  501    0  0.00000000000E+00  0.00000000000E+00  0.31881764949E+04  0.31881764949E+04  0.00000000000E+00 0.  1.
         -2   -1    0    0    0  501 -0.00000000000E+00 -0.00000000000E+00 -0.75286054675E+03  0.75286054675E+03  0.00000000000E+00 0. -1.
    2000013    1    1    2    0    0 -0.78092957175E+03 -0.37249511163E+03  0.11678784548E+03  0.12902492027E+04  0.95000000000E+03 0.  0.
   -2000013    1    1    2    0    0  0.78092957175E+03  0.37249511163E+03  0.23185281027E+04  0.26507878390E+04  0.95000000000E+03 0.  0.
<mgrwt>
<rscale>  0 0.30985495E+04</rscale>
<asrwt>0</asrwt>
<pdfrwt beam="1">  1        2 0.49048868E+00 0.30985495E+04</pdfrwt>
<pdfrwt beam="2">  1       -2 0.11582470E+00 0.30985495E+04</pdfrwt>
<totfact> 0.64891115E-01</totfact>
</mgrwt>
</event>
<event>
 4    1  0.2069825E-008  0.2960461E+04  0.7816531E-02  0.8255113E-01
         -2   -1    0    0    0  501 -0.00000000000E+00  0.00000000000E+00  0.82614331380E+03  0.82614331380E+03  0.00000000000E+00 0. -1.
          2   -1    0    0  501    0  0.00000000000E+00 -0.00000000000E+00 -0.26521812032E+04  0.26521812032E+04  0.00000000000E+00 0.  1.
    2000013    1    1    2    0    0 -0.22449931952E+03  0.10104345333E+04 -0.14605951863E+04  0.20266268006E+04  0.95000000000E+03 0.  0.
   -2000013    1    1    2    0    0  0.22449931952E+03 -0.10104345333E+04 -0.36544270307E+03  0.14516977164E+04  0.95000000000E+03 0.  0.
<mgrwt>
<rscale>  0 0.29604606E+04</rscale>
<asrwt>0</asrwt>
<pdfrwt beam="2">  1        2 0.40802787E+00 0.29604606E+04</pdfrwt>
<pdfrwt beam="1">  1       -2 0.12709897E+00 0.29604606E+04</pdfrwt>
<totfact> 0.11191118E+00</totfact>
</mgrwt>
</event>
<event>
 4    1  0.2069825E-008  0.2231142E+04  0.7816531E-02  0.8505577E-01
          2   -1    0    0  501    0  0.00000000000E+00  0.00000000000E+00  0.11824755647E+04  0.11824755647E+04  0.00000000000E+00 0.  1.
         -2   -1    0    0    0  501 -0.00000000000E+00 -0.00000000000E+00 -0.10524518270E+04  0.10524518270E+04  0.00000000000E+00 0. -1.
    2000013    1    1    2    0    0 -0.14985156065E+03  0.43955141083E+03 -0.29103124798E+03  0.10967497984E+04  0.95000000000E+03 0.  0.
   -2000013    1    1    2    0    0  0.14985156065E+03 -0.43955141083E+03  0.42105498565E+03  0.11381775933E+04  0.95000000000E+03 0.  0.
<mgrwt>
<rscale>  0 0.22311419E+04</rscale>
<asrwt>0</asrwt>
<pdfrwt beam="1">  1        2 0.18191932E+00 0.22311419E+04</pdfrwt>
<pdfrwt beam="2">  1       -2 0.16191567E+00 0.22311419E+04</pdfrwt>
<totfact> 0.43140344E+00</totfact>
</mgrwt>
</event>
<event>
 4    1  0.2069825E-008  0.3195187E+04  0.7816531E-02  0.8190089E-01
          2   -1    0    0  501    0  0.00000000000E+00  0.00000000000E+00  0.37232609092E+04  0.37232609092E+04  0.00000000000E+00 0.  1.
         -2   -1    0    0    0  501 -0.00000000000E+00 -0.00000000000E+00 -0.68550272650E+03  0.68550272650E+03  0.00000000000E+00 0. -1.
    2000013    1    1    2    0    0 -0.94965042056E+03  0.86273678687E+03  0.14354622984E+04  0.21469053763E+04  0.95000000000E+03 0.  0.
   -2000013    1    1    2    0    0  0.94965042056E+03 -0.86273678687E+03  0.16022958843E+04  0.22618582594E+04  0.95000000000E+03 0.  0.
<mgrwt>
<rscale>  0 0.31951873E+04</rscale>
<asrwt>0</asrwt>
<pdfrwt beam="1">  1        2 0.57280936E+00 0.31951873E+04</pdfrwt>
<pdfrwt beam="2">  1       -2 0.10546196E+00 0.31951873E+04</pdfrwt>
<totfact> 0.34321876E-01</totfact>
</mgrwt>
</event>
<event>
 4    1  0.2069825E-008  0.2706017E+04  0.7816531E-02  0.8333055E-01
         -2   -1    0    0    0  501 -0.00000000000E+00  0.00000000000E+00  0.14154126831E+04  0.14154126831E+04  0.00000000000E+00 0. -1.
          2   -1    0    0  501    0  0.00000000000E+00 -0.00000000000E+00 -0.12933554881E+04  0.12933554881E+04  0.00000000000E+00 0.  1.
    2000013    1    1    2    0    0  0.46955070151E+03 -0.69775122739E+03  0.53139690550E+03  0.13755788991E+04  0.95000000000E+03 0.  0.
   -2000013    1    1    2    0    0 -0.46955070151E+03  0.69775122739E+03 -0.40933971051E+03  0.13331892721E+04  0.95000000000E+03 0.  0.
<mgrwt>
<rscale>  0 0.27060168E+04</rscale>
<asrwt>0</asrwt>
<pdfrwt beam="2">  1        2 0.19897777E+00 0.27060168E+04</pdfrwt>
<pdfrwt beam="1">  1       -2 0.21775580E+00 0.27060168E+04</pdfrwt>
<totfact> 0.14938300E+00</totfact>
</mgrwt>
</event>
<event>
 4    1  0.2069825E-008  0.2342176E+04  0.7816531E-02  0.8461475E-01
          2   -1    0    0  501    0  0.00000000000E+00  0.00000000000E+00  0.73628939520E+03  0.73628939520E+03  0.00000000000E+00 0.  1.
         -2   -1    0    0    0  501 -0.00000000000E+00 -0.00000000000E+00 -0.18626463095E+04  0.18626463095E+04  0.00000000000E+00 0. -1.
    2000013    1    1    2    0    0 -0.62494855663E+03  0.15425381796E+02 -0.25298314089E+03  0.11650318066E+04  0.95000000000E+03 0.  0.
   -2000013    1    1    2    0    0  0.62494855663E+03 -0.15425381796E+02 -0.87337377339E+03  0.14339038981E+04  0.95000000000E+03 0.  0.
<mgrwt>
<rscale>  0 0.23421757E+04</rscale>
<asrwt>0</asrwt>
<pdfrwt beam="1">  1        2 0.11327529E+00 0.23421757E+04</pdfrwt>
<pdfrwt beam="2">  1       -2 0.28656097E+00 0.23421757E+04</pdfrwt>
<totfact> 0.13328489E+00</totfact>
</mgrwt>
</event>
<event>
 4    1  0.2069825E-008  0.2586161E+04  0.7816531E-02  0.8372917E-01
          2   -1    0    0  501    0  0.00000000000E+00  0.00000000000E+00  0.23626616850E+04  0.23626616850E+04  0.00000000000E+00 0.  1.
         -2   -1    0    0    0  501 -0.00000000000E+00 -0.00000000000E+00 -0.70770053814E+03  0.70770053814E+03  0.00000000000E+00 0. -1.
    2000013    1    1    2    0    0 -0.81135311240E+03  0.32588300233E+03  0.91196034001E+03  0.15807166938E+04  0.95000000000E+03 0.  0.
   -2000013    1    1    2    0    0  0.81135311240E+03 -0.32588300233E+03  0.74300080686E+03  0.14896455294E+04  0.95000000000E+03 0.  0.
<mgrwt>
<rscale>  0 0.25861608E+04</rscale>
<asrwt>0</asrwt>
<pdfrwt beam="1">  1        2 0.36348641E+00 0.25861608E+04</pdfrwt>
<pdfrwt beam="2">  1       -2 0.10887701E+00 0.25861608E+04</pdfrwt>
<totfact> 0.24904393E+00</totfact>
</mgrwt>
</event>
<event>
 4    1  0.2069825E-008  0.2583780E+04  0.7816531E-02  0.8373732E-01
          2   -1    0    0  501    0  0.00000000000E+00  0.00000000000E+00  0.17181519221E+04  0.17181519221E+04  0.00000000000E+00 0.  1.
         -2   -1    0    0    0  501 -0.00000000000E+00 -0.00000000000E+00 -0.97138064098E+03  0.97138064098E+03  0.00000000000E+00 0. -1.
    2000013    1    1    2    0    0 -0.17696113858E+03  0.34070042795E+03 -0.44563966763E+03  0.11173570332E+04  0.95000000000E+03 0.  0.
   -2000013    1    1    2    0    0  0.17696113858E+03 -0.34070042795E+03  0.11924109487E+04  0.15721755299E+04  0.95000000000E+03 0.  0.
<mgrwt>
<rscale>  0 0.25837798E+04</rscale>
<asrwt>0</asrwt>
<pdfrwt beam="1">  1        2 0.26433106E+00 0.25837798E+04</pdfrwt>
<pdfrwt beam="2">  1       -2 0.14944318E+00 0.25837798E+04</pdfrwt>
<totfact> 0.25683766E+00</totfact>
</mgrwt>
</event>
<event>
 4    1  0.2069825E-008  0.4196670E+04  0.7816531E-02  0.7966006E-01
         -2   -1    0    0    0  501 -0.00000000000E+00  0.00000000000E+00  0.18223922793E+04  0.18223922793E+04  0.00000000000E+00 0. -1.
          2   -1    0    0  501    0  0.00000000000E+00 -0.00000000000E+00 -0.24160605969E+04  0.24160605969E+04  0.00000000000E+00 0.  1.
    2000013    1    1    2    0    0  0.11174479626E+03 -0.14244697782E+04  0.92304451696E+03  0.19483614215E+04  0.95000000000E+03 0.  0.
   -2000013    1    1    2    0    0 -0.11174479626E+03  0.14244697782E+04 -0.15167128346E+04  0.22900914547E+04  0.95000000000E+03 0.  0.
<mgrwt>
<rscale>  0 0.41966702E+04</rscale>
<asrwt>0</asrwt>
<pdfrwt beam="2">  1        2 0.37170163E+00 0.41966702E+04</pdfrwt>
<pdfrwt beam="1">  1       -2 0.28036804E+00 0.41966702E+04</pdfrwt>
<totfact> 0.12661407E-01</totfact>
</mgrwt>
</event>
<event>
 4    1  0.2069825E-008  0.4138565E+04  0.7816531E-02  0.7977162E-01
          2   -1    0    0  501    0  0.00000000000E+00  0.00000000000E+00  0.25031034740E+04  0.25031034740E+04  0.00000000000E+00 0.  1.
         -2   -1    0    0    0  501 -0.00000000000E+00 -0.00000000000E+00 -0.17106481441E+04  0.17106481441E+04  0.00000000000E+00 0. -1.
    2000013    1    1    2    0    0 -0.18305320299E+04  0.38940779612E+02  0.22872314123E+03  0.20753742246E+04  0.95000000000E+03 0.  0.
   -2000013    1    1    2    0    0  0.18305320299E+04 -0.38940779612E+02  0.56373218863E+03  0.21383773936E+04  0.95000000000E+03 0.  0.
<mgrwt>
<rscale>  0 0.41385646E+04</rscale>
<asrwt>0</asrwt>
<pdfrwt beam="1">  1        2 0.38509284E+00 0.41385646E+04</pdfrwt>
<pdfrwt beam="2">  1       -2 0.26317664E+00 0.41385646E+04</pdfrwt>
<totfact> 0.14428829E-01</totfact>
</mgrwt>
</event>
<event>
 4    1  0.2069825E-008  0.2165089E+04  0.7816531E-02  0.8533101E-01
         -2   -1    0    0    0  501 -0.00000000000E+00  0.00000000000E+00  0.10277046361E+04  0.10277046361E+04  0.00000000000E+00 0. -1.
          2   -1    0    0  501    0  0.00000000000E+00 -0.00000000000E+00 -0.11403106104E+04  0.11403106104E+04  0.00000000000E+00 0.  1.
    2000013    1    1    2    0    0 -0.46309478689E+03 -0.24151538153E+02 -0.28977562833E+03  0.10961341128E+04  0.95000000000E+03 0.  0.
   -2000013    1    1    2    0    0  0.46309478689E+03  0.24151538153E+02  0.17716965404E+03  0.10718811337E+04  0.95000000000E+03 0.  0.
<mgrwt>
<rscale>  0 0.21650889E+04</rscale>
<asrwt>0</asrwt>
<pdfrwt beam="2">  1        2 0.17543240E+00 0.21650889E+04</pdfrwt>
<pdfrwt beam="1">  1       -2 0.15810841E+00 0.21650889E+04</pdfrwt>
<totfact> 0.49081763E+00</totfact>
</mgrwt>
</event>
<event>
 4    1  0.2069825E-008  0.2296625E+04  0.7816531E-02  0.8479253E-01
          2   -1    0    0  501    0  0.00000000000E+00  0.00000000000E+00  0.26878868002E+04  0.26878868002E+04  0.00000000000E+00 0.  1.
         -2   -1    0    0    0  501 -0.00000000000E+00 -0.00000000000E+00 -0.49057913654E+03  0.49057913654E+03  0.00000000000E+00 0. -1.
    2000013    1    1    2    0    0  0.23615273450E+03  0.59924230673E+03  0.11478136926E+04  0.16232177085E+04  0.95000000000E+03 0.  0.
   -2000013    1    1    2    0    0 -0.23615273450E+03 -0.59924230673E+03  0.10494939710E+04  0.15552482282E+04  0.95000000000E+03 0.  0.
<mgrwt>
<rscale>  0 0.22966246E+04</rscale>
<asrwt>0</asrwt>
<pdfrwt beam="1">  1        2 0.41352104E+00 0.22966246E+04</pdfrwt>
<pdfrwt beam="2">  1       -2 0.75473715E-01 0.22966246E+04</pdfrwt>
<totfact> 0.38562581E+00</totfact>
</mgrwt>
</event>
<event>
 4    1  0.2069825E-008  0.2009398E+04  0.7816531E-02  0.8602239E-01
          2   -1    0    0  501    0  0.00000000000E+00  0.00000000000E+00  0.32540079011E+04  0.32540079011E+04  0.00000000000E+00 0.  1.
         -2   -1    0    0    0  501 -0.00000000000E+00 -0.00000000000E+00 -0.31020833211E+03  0.31020833211E+03  0.00000000000E+00 0. -1.
    2000013    1    1    2    0    0  0.31782553520E+03  0.76306363040E+02  0.14555818633E+04  0.17686306264E+04  0.95000000000E+03 0.  0.
   -2000013    1    1    2    0    0 -0.31782553520E+03 -0.76306363040E+02  0.14882177056E+04  0.17955856068E+04  0.95000000000E+03 0.  0.
<mgrwt>
<rscale>  0 0.20093983E+04</rscale>
<asrwt>0</asrwt>
<pdfrwt beam="1">  1        2 0.50061658E+00 0.20093983E+04</pdfrwt>
<pdfrwt beam="2">  1       -2 0.47724361E-01 0.20093983E+04</pdfrwt>
<totfact> 0.46329997E+00</totfact>
</mgrwt>
</event>
<event>
 4    1  0.2069825E-008  0.2616079E+04  0.7816531E-02  0.8362760E-01
         -2   -1    0    0    0  501 -0.00000000000E+00  0.00000000000E+00  0.16410601954E+04  0.16410601954E+04  0.00000000000E+00 0.  1.
          2   -1    0    0  501    0  0.00000000000E+00 -0.00000000000E+00 -0.10425985395E+04  0.10425985395E+04  0.00000000000E+00 0. -1.
    2000013    1    1    2    0    0  0.83541777625E+03  0.28904264314E+03  0.46778748814E+03  0.13794178644E+04  0.95000000000E+03 0.  0.
   -2000013    1    1    2    0    0 -0.83541777625E+03 -0.28904264314E+03  0.13067416778E+03  0.13042408706E+04  0.95000000000E+03 0.  0.
<mgrwt>
<rscale>  0 0.26160787E+04</rscale>
<asrwt>0</asrwt>
<pdfrwt beam="2">  1        2 0.16039978E+00 0.26160787E+04</pdfrwt>
<pdfrwt beam="1">  1       -2 0.25247080E+00 0.26160787E+04</pdfrwt>
<totfact> 0.12969191E+00</totfact>
</mgrwt>
</event>
<event>
 4    1  0.2069825E-008  0.2371868E+04  0.7816531E-02  0.8450111E-01
         -2   -1    0    0    0  501 -0.00000000000E+00  0.00000000000E+00  0.36459173373E+03  0.36459173373E+03  0.00000000000E+00 0. -1.
          2   -1    0    0  501    0  0.00000000000E+00 -0.00000000000E+00 -0.38575731634E+04  0.38575731634E+04  0.00000000000E+00 0.  1.
    2000013    1    1    2    0    0 -0.43243499583E+02  0.68558266806E+03 -0.14278292621E+04  0.18474550053E+04  0.95000000000E+03 0.  0.
   -2000013    1    1    2    0    0  0.43243499583E+02 -0.68558266806E+03 -0.20651521676E+04  0.23747098918E+04  0.95000000000E+03 0.  0.
<mgrwt>
<rscale>  0 0.23718679E+04</rscale>
<asrwt>0</asrwt>
<pdfrwt beam="2">  1        2 0.59347281E+00 0.23718679E+04</pdfrwt>
<pdfrwt beam="1">  1       -2 0.56091035E-01 0.23718679E+04</pdfrwt>
<totfact> 0.11979363E+00</totfact>
</mgrwt>
</event>
<event>
 4    1  0.2069825E-008  0.1980812E+04  0.7816531E-02  0.8615644E-01
         -2   -1    0    0    0  501 -0.00000000000E+00  0.00000000000E+00  0.78349095799E+03  0.78349095799E+03  0.00000000000E+00 0. -1.
          2   -1    0    0  501    0  0.00000000000E+00 -0.00000000000E+00 -0.12519662661E+04  0.12519662661E+04  0.00000000000E+00 0.  1.
    2000013    1    1    2    0    0  0.20161226529E+03  0.18709575721E+03 -0.28814360093E+03  0.10301354584E+04  0.95000000000E+03 0.  0.
   -2000013    1    1    2    0    0 -0.20161226529E+03 -0.18709575721E+03 -0.18033170713E+03  0.10053217656E+04  0.95000000000E+03 0.  0.
<mgrwt>
<rscale>  0 0.19808122E+04</rscale>
<asrwt>0</asrwt>
<pdfrwt beam="2">  1        2 0.19261019E+00 0.19808122E+04</pdfrwt>
<pdfrwt beam="1">  1       -2 0.12053707E+00 0.19808122E+04</pdfrwt>
<totfact> 0.86212412E+00</totfact>
</mgrwt>
</event>
<event>
 4    1  0.2069825E-008  0.2312968E+04  0.7816531E-02  0.8472825E-01
         -2   -1    0    0    0  501 -0.00000000000E+00  0.00000000000E+00  0.30455003071E+03  0.30455003071E+03  0.00000000000E+00 0. -1.
          2   -1    0    0  501    0  0.00000000000E+00 -0.00000000000E+00 -0.43915799041E+04  0.43915799041E+04  0.00000000000E+00 0.  1.
    2000013    1    1    2    0    0  0.45565109493E+03  0.43962148300E+03 -0.24182822645E+04  0.26742240145E+04  0.95000000000E+03 0.  0.
   -2000013    1    1    2    0    0 -0.45565109493E+03 -0.43962148300E+03 -0.16687476088E+04  0.20219059203E+04  0.95000000000E+03 0.  0.
<mgrwt>
<rscale>  0 0.23129685E+04</rscale>
<asrwt>0</asrwt>
<pdfrwt beam="2">  1        2 0.67562764E+00 0.23129685E+04</pdfrwt>
<pdfrwt beam="1">  1       -2 0.46853854E-01 0.23129685E+04</pdfrwt>
<totfact> 0.61638444E-01</totfact>
</mgrwt>
</event>
<event>
 4    1  0.2069825E-008  0.2557732E+04  0.7816531E-02  0.8382702E-01
          2   -1    0    0  501    0  0.00000000000E+00  0.00000000000E+00  0.17895555879E+04  0.17895555879E+04  0.00000000000E+00 0.  1.
         -2   -1    0    0    0  501 -0.00000000000E+00 -0.00000000000E+00 -0.91391338697E+03  0.91391338697E+03  0.00000000000E+00 0. -1.
    2000013    1    1    2    0    0 -0.20950032740E+03 -0.24143111900E+03  0.12773174485E+04  0.16236438146E+04  0.95000000000E+03 0.  0.
   -2000013    1    1    2    0    0  0.20950032740E+03  0.24143111900E+03 -0.40167524752E+03  0.10798251603E+04  0.95000000000E+03 0.  0.
<mgrwt>
<rscale>  0 0.25577324E+04</rscale>
<asrwt>0</asrwt>
<pdfrwt beam="1">  1        2 0.27531624E+00 0.25577324E+04</pdfrwt>
<pdfrwt beam="2">  1       -2 0.14060206E+00 0.25577324E+04</pdfrwt>
<totfact> 0.27573133E+00</totfact>
</mgrwt>
</event>
<event>
 4    1  0.2069825E-008  0.2303664E+04  0.7816531E-02  0.8476478E-01
          1   -1    0    0  501    0  0.00000000000E+00  0.00000000000E+00  0.97253148226E+03  0.97253148226E+03  0.00000000000E+00 0.  1.
         -1   -1    0    0    0  501 -0.00000000000E+00 -0.00000000000E+00 -0.13641889566E+04  0.13641889566E+04  0.00000000000E+00 0. -1.
    2000013    1    1    2    0    0 -0.89299474431E+02 -0.57506397365E+03 -0.49250429971E+03  0.12180859802E+04  0.95000000000E+03 0.  0.
   -2000013    1    1    2    0    0  0.89299474431E+02  0.57506397365E+03  0.10084682536E+03  0.11186344587E+04  0.95000000000E+03 0.  0.
<mgrwt>
<rscale>  0 0.23036638E+04</rscale>
<asrwt>0</asrwt>
<pdfrwt beam="1">  1        1 0.14962023E+00 0.23036638E+04</pdfrwt>
<pdfrwt beam="2">  1       -1 0.20987522E+00 0.23036638E+04</pdfrwt>
<totfact> 0.18510166E+00</totfact>
</mgrwt>
</event>
<event>
 4    1  0.2069825E-008  0.2950216E+04  0.7816531E-02  0.8258092E-01
          2   -1    0    0  501    0  0.00000000000E+00  0.00000000000E+00  0.10243023990E+04  0.10243023990E+04  0.00000000000E+00 0.  1.
         -2   -1    0    0    0  501 -0.00000000000E+00 -0.00000000000E+00 -0.21243178402E+04  0.21243178402E+04  0.00000000000E+00 0. -1.
    2000013    1    1    2    0    0 -0.89019868902E+03 -0.13803823112E+03  0.17535822253E+03  0.13208931696E+04  0.95000000000E+03 0.  0.
   -2000013    1    1    2    0    0  0.89019868902E+03  0.13803823112E+03 -0.12753736636E+04  0.18277270696E+04  0.95000000000E+03 0.  0.
<mgrwt>
<rscale>  0 0.29502162E+04</rscale>
<asrwt>0</asrwt>
<pdfrwt beam="1">  1        2 0.15758499E+00 0.29502162E+04</pdfrwt>
<pdfrwt beam="2">  1       -2 0.32681813E+00 0.29502162E+04</pdfrwt>
<totfact> 0.45374801E-01</totfact>
</mgrwt>
</event>
<event>
 4    1  0.2069825E-008  0.1961881E+04  0.7816531E-02  0.8624653E-01
         -2   -1    0    0    0  501 -0.00000000000E+00  0.00000000000E+00  0.61152309620E+03  0.61152309620E+03  0.00000000000E+00 0. -1.
          2   -1    0    0  501    0  0.00000000000E+00 -0.00000000000E+00 -0.15735211291E+04  0.15735211291E+04  0.00000000000E+00 0.  1.
    2000013    1    1    2    0    0  0.13610836791E+03  0.17930393198E+03 -0.37493447762E+03  0.10458256309E+04  0.95000000000E+03 0.  0.
   -2000013    1    1    2    0    0 -0.13610836791E+03 -0.17930393198E+03 -0.58706355533E+03  0.11392185944E+04  0.95000000000E+03 0.  0.
<mgrwt>
<rscale>  0 0.19618813E+04</rscale>
<asrwt>0</asrwt>
<pdfrwt beam="2">  1        2 0.24208017E+00 0.19618813E+04</pdfrwt>
<pdfrwt beam="1">  1       -2 0.94080477E-01 0.19618813E+04</pdfrwt>
<totfact> 0.10253791E+01</totfact>
</mgrwt>
</event>
<event>
 4    1  0.2069825E-008  0.3096083E+04  0.7816531E-02  0.8216814E-01
         -1   -1    0    0    0  501 -0.00000000000E+00  0.00000000000E+00  0.11302540983E+04  0.11302540983E+04  0.00000000000E+00 0. -1.
          1   -1    0    0  501    0  0.00000000000E+00 -0.00000000000E+00 -0.21202593403E+04  0.21202593403E+04  0.00000000000E+00 0.  1.
    2000013    1    1    2    0    0  0.11852840829E+03  0.12075000082E+04 -0.33989539409E+03  0.15780158847E+04  0.95000000000E+03 0.  0.
   -2000013    1    1    2    0    0 -0.11852840829E+03 -0.12075000082E+04 -0.65010984792E+03  0.16724975539E+04  0.95000000000E+03 0.  0.
<mgrwt>
<rscale>  0 0.30960826E+04</rscale>
<asrwt>0</asrwt>
<pdfrwt beam="2">  1        1 0.32619374E+00 0.30960826E+04</pdfrwt>
<pdfrwt beam="1">  1       -1 0.17388525E+00 0.30960826E+04</pdfrwt>
<totfact> 0.48024823E-01</totfact>
</mgrwt>
</event>
<event>
 4    1  0.2069825E-008  0.2389704E+04  0.7816531E-02  0.8443368E-01
         -2   -1    0    0    0  501 -0.00000000000E+00  0.00000000000E+00  0.72282280539E+03  0.72282280539E+03  0.00000000000E+00 0. -1.
          2   -1    0    0  501    0  0.00000000000E+00 -0.00000000000E+00 -0.19751325828E+04  0.19751325828E+04  0.00000000000E+00 0.  1.
    2000013    1    1    2    0    0  0.48602180678E+03  0.53463916303E+03 -0.56314700811E+03  0.13197313303E+04  0.95000000000E+03 0.  0.
   -2000013    1    1    2    0    0 -0.48602180678E+03 -0.53463916303E+03 -0.68916276934E+03  0.13782240580E+04  0.95000000000E+03 0.  0.
<mgrwt>
<rscale>  0 0.23897036E+04</rscale>
<asrwt>0</asrwt>
<pdfrwt beam="2">  1        2 0.30386655E+00 0.23897036E+04</pdfrwt>
<pdfrwt beam="1">  1       -2 0.11120351E+00 0.23897036E+04</pdfrwt>
<totfact> 0.39722032E+00</totfact>
</mgrwt>
</event>
<event>
 4    1  0.2069825E-008  0.2298409E+04  0.7816531E-02  0.8478549E-01
         -1   -1    0    0    0  501 -0.00000000000E+00  0.00000000000E+00  0.72456475397E+03  0.72456475397E+03  0.00000000000E+00 0. -1.
          1   -1    0    0  501    0  0.00000000000E+00 -0.00000000000E+00 -0.18227096879E+04  0.18227096879E+04  0.00000000000E+00 0.  1.
    2000013    1    1    2    0    0 -0.21587186439E+02 -0.49850423064E+03 -0.10049486765E+04  0.14701681254E+04  0.95000000000E+03 0.  0.
   -2000013    1    1    2    0    0  0.21587186439E+02  0.49850423064E+03 -0.93196257440E+02  0.10771063165E+04  0.95000000000E+03 0.  0.
<mgrwt>
<rscale>  0 0.22984092E+04</rscale>
<asrwt>0</asrwt>
<pdfrwt beam="2">  1        1 0.28041687E+00 0.22984092E+04</pdfrwt>
<pdfrwt beam="1">  1       -1 0.11147150E+00 0.22984092E+04</pdfrwt>
<totfact> 0.26280409E+00</totfact>
</mgrwt>
</event>
<event>
 4    1  0.2069825E-008  0.2989164E+04  0.7816531E-02  0.8246832E-01
          1   -1    0    0  501    0  0.00000000000E+00  0.00000000000E+00  0.14320413683E+04  0.14320413683E+04  0.00000000000E+00 0.  1.
         -1   -1    0    0    0  501 -0.00000000000E+00 -0.00000000000E+00 -0.15598538993E+04  0.15598538993E+04  0.00000000000E+00 0. -1.
    2000013    1    1    2    0    0 -0.36860627140E+03  0.61941875427E+03 -0.96568739904E+03  0.15344713517E+04  0.95000000000E+03 0.  0.
   -2000013    1    1    2    0    0  0.36860627140E+03 -0.61941875427E+03  0.83787486800E+03  0.14574239160E+04  0.95000000000E+03 0.  0.
<mgrwt>
<rscale>  0 0.29891640E+04</rscale>
<asrwt>0</asrwt>
<pdfrwt beam="1">  1        1 0.22031406E+00 0.29891640E+04</pdfrwt>
<pdfrwt beam="2">  1       -1 0.23997752E+00 0.29891640E+04</pdfrwt>
<totfact> 0.50400775E-01</totfact>
</mgrwt>
</event>
<event>
 4    1  0.2069825E-008  0.2309530E+04  0.7816531E-02  0.8474173E-01
         -2   -1    0    0    0  501 -0.00000000000E+00  0.00000000000E+00  0.80373063847E+03  0.80373063847E+03  0.00000000000E+00 0. -1.
          2   -1    0    0  501    0  0.00000000000E+00 -0.00000000000E+00 -0.16591155408E+04  0.16591155408E+04  0.00000000000E+00 0.  1.
    2000013    1    1    2    0    0  0.49123662005E+03  0.37553788568E+03 -0.66287761868E+03  0.13131065676E+04  0.95000000000E+03 0.  0.
   -2000013    1    1    2    0    0 -0.49123662005E+03 -0.37553788568E+03 -0.19250728366E+03  0.11497396117E+04  0.95000000000E+03 0.  0.
<mgrwt>
<rscale>  0 0.23095298E+04</rscale>
<asrwt>0</asrwt>
<pdfrwt beam="2">  1        2 0.25524854E+00 0.23095298E+04</pdfrwt>
<pdfrwt beam="1">  1       -2 0.12365087E+00 0.23095298E+04</pdfrwt>
<totfact> 0.46137428E+00</totfact>
</mgrwt>
</event>
<event>
 4    1  0.2069825E-008  0.2748007E+04  0.7816531E-02  0.8319594E-01
          1   -1    0    0  501    0  0.00000000000E+00  0.00000000000E+00  0.17208249256E+04  0.17208249256E+04  0.00000000000E+00 0.  1.
         -1   -1    0    0    0  501 -0.00000000000E+00 -0.00000000000E+00 -0.10970816626E+04  0.10970816626E+04  0.00000000000E+00 0. -1.
    2000013    1    1    2    0    0 -0.63453125107E+03 -0.75614970240E+03  0.41938702017E+03  0.14327518116E+04  0.95000000000E+03 0.  0.
   -2000013    1    1    2    0    0  0.63453125107E+03  0.75614970240E+03  0.20435624280E+03  0.13851547765E+04  0.95000000000E+03 0.  0.
<mgrwt>
<rscale>  0 0.27480069E+04</rscale>
<asrwt>0</asrwt>
<pdfrwt beam="1">  1        1 0.26474229E+00 0.27480069E+04</pdfrwt>
<pdfrwt beam="2">  1       -1 0.16878180E+00 0.27480069E+04</pdfrwt>
<totfact> 0.10076014E+00</totfact>
</mgrwt>
</event>
<event>
 4    1  0.2069825E-008  0.1990223E+04  0.7816531E-02  0.8611205E-01
          2   -1    0    0  501    0  0.00000000000E+00  0.00000000000E+00  0.28515766093E+04  0.28515766093E+04  0.00000000000E+00 0.  1.
         -2   -1    0    0    0  501 -0.00000000000E+00 -0.00000000000E+00 -0.34726294550E+03  0.34726294550E+03  0.00000000000E+00 0. -1.
    2000013    1    1    2    0    0  0.16138393053E+03  0.21567851859E+02  0.16498951972E+04  0.19108019539E+04  0.95000000000E+03 0.  0.
   -2000013    1    1    2    0    0 -0.16138393053E+03 -0.21567851859E+02  0.85441846661E+03  0.12880376009E+04  0.95000000000E+03 0.  0.
<mgrwt>
<rscale>  0 0.19902230E+04</rscale>
<asrwt>0</asrwt>
<pdfrwt beam="1">  1        2 0.43870408E+00 0.19902230E+04</pdfrwt>
<pdfrwt beam="2">  1       -2 0.53425070E-01 0.19902230E+04</pdfrwt>
<totfact> 0.66169508E+00</totfact>
</mgrwt>
</event>
<event>
 4    1  0.2069825E-008  0.2354991E+04  0.7816531E-02  0.8456549E-01
         -2   -1    0    0    0  501 -0.00000000000E+00  0.00000000000E+00  0.39971598295E+03  0.39971598295E+03  0.00000000000E+00 0. -1.
          2   -1    0    0  501    0  0.00000000000E+00 -0.00000000000E+00 -0.34687015793E+04  0.34687015793E+04  0.00000000000E+00 0.  1.
    2000013    1    1    2    0    0 -0.36330817166E+02 -0.53131213798E+03 -0.79917597519E+03  0.13508496421E+04  0.95000000000E+03 0.  0.
   -2000013    1    1    2    0    0  0.36330817166E+02  0.53131213798E+03 -0.22698096211E+04  0.25175679201E+04  0.95000000000E+03 0.  0.
<mgrwt>
<rscale>  0 0.23549908E+04</rscale>
<asrwt>0</asrwt>
<pdfrwt beam="2">  1        2 0.53364642E+00 0.23549908E+04</pdfrwt>
<pdfrwt beam="1">  1       -2 0.61494764E-01 0.23549908E+04</pdfrwt>
<totfact> 0.19007770E+00</totfact>
</mgrwt>
</event>
<event>
 4    1  0.2069825E-008  0.2872027E+04  0.7816531E-02  0.8281249E-01
         -1   -1    0    0    0  501 -0.00000000000E+00  0.00000000000E+00  0.13798255045E+04  0.13798255045E+04  0.00000000000E+00 0. -1.
          1   -1    0    0  501    0  0.00000000000E+00 -0.00000000000E+00 -0.14944893587E+04  0.14944893587E+04  0.00000000000E+00 0.  1.
    2000013    1    1    2    0    0 -0.98559139922E+03  0.23504438221E+03  0.30764787881E+03  0.14225974431E+04  0.95000000000E+03 0.  0.
   -2000013    1    1    2    0    0  0.98559139922E+03 -0.23504438221E+03 -0.42231173304E+03  0.14517174201E+04  0.95000000000E+03 0.  0.
<mgrwt>
<rscale>  0 0.28720268E+04</rscale>
<asrwt>0</asrwt>
<pdfrwt beam="2">  1        1 0.22992144E+00 0.28720268E+04</pdfrwt>
<pdfrwt beam="1">  1       -1 0.21228085E+00 0.28720268E+04</pdfrwt>
<totfact> 0.70447176E-01</totfact>
</mgrwt>
</event>
<event>
 4    1  0.2069825E-008  0.2211401E+04  0.7816531E-02  0.8513698E-01
          2   -1    0    0  501    0  0.00000000000E+00  0.00000000000E+00  0.30055969250E+04  0.30055969250E+04  0.00000000000E+00 0.  1.
         -2   -1    0    0    0  501 -0.00000000000E+00 -0.00000000000E+00 -0.40676580082E+03  0.40676580082E+03  0.00000000000E+00 0. -1.
    2000013    1    1    2    0    0 -0.43760686408E+03  0.11297458728E+03  0.77429074498E+03  0.13062500460E+04  0.95000000000E+03 0.  0.
   -2000013    1    1    2    0    0  0.43760686408E+03 -0.11297458728E+03  0.18245403792E+04  0.21061126799E+04  0.95000000000E+03 0.  0.
<mgrwt>
<rscale>  0 0.22114014E+04</rscale>
<asrwt>0</asrwt>
<pdfrwt beam="1">  1        2 0.46239951E+00 0.22114014E+04</pdfrwt>
<pdfrwt beam="2">  1       -2 0.62579356E-01 0.22114014E+04</pdfrwt>
<totfact> 0.37395727E+00</totfact>
</mgrwt>
</event>
<event>
 4    1  0.2069825E-008  0.3429119E+04  0.7816531E-02  0.8130796E-01
         -2   -1    0    0    0  501 -0.00000000000E+00  0.00000000000E+00  0.13691051738E+04  0.13691051738E+04  0.00000000000E+00 0.  1.
          2   -1    0    0  501    0  0.00000000000E+00 -0.00000000000E+00 -0.21471788977E+04  0.21471788977E+04  0.00000000000E+00 0. -1.
    2000013    1    1    2    0    0 -0.14135106462E+04 -0.16701459908E+03 -0.49807665384E+03  0.17822700627E+04  0.95000000000E+03 0.  0.
   -2000013    1    1    2    0    0  0.14135106462E+04  0.16701459908E+03 -0.27999707009E+03  0.17340140087E+04  0.95000000000E+03 0.  0.
<mgrwt>
<rscale>  0 0.34291187E+04</rscale>
<asrwt>0</asrwt>
<pdfrwt beam="2">  1        2 0.33033521E+00 0.34291187E+04</pdfrwt>
<pdfrwt beam="1">  1       -2 0.21063157E+00 0.34291187E+04</pdfrwt>
<totfact> 0.51840838E-01</totfact>
</mgrwt>
</event>
<event>
 4    1  0.2069825E-008  0.2329455E+04  0.7816531E-02  0.8466397E-01
          2   -1    0    0  501    0  0.00000000000E+00  0.00000000000E+00  0.34759617187E+04  0.34759617187E+04  0.00000000000E+00 0.  1.
         -2   -1    0    0    0  501 -0.00000000000E+00 -0.00000000000E+00 -0.39027759767E+03  0.39027759767E+03  0.00000000000E+00 0. -1.
    2000013    1    1    2    0    0 -0.26054156332E+03  0.62135627952E+03  0.15613579183E+04  0.19478973488E+04  0.95000000000E+03 0.  0.
   -2000013    1    1    2    0    0  0.26054156332E+03 -0.62135627952E+03  0.15243262027E+04  0.19183419676E+04  0.95000000000E+03 0.  0.
<mgrwt>
<rscale>  0 0.23294549E+04</rscale>
<asrwt>0</asrwt>
<pdfrwt beam="1">  1        2 0.53476332E+00 0.23294549E+04</pdfrwt>
<pdfrwt beam="2">  1       -2 0.60042710E-01 0.23294549E+04</pdfrwt>
<totfact> 0.19811057E+00</totfact>
</mgrwt>
</event>
<event>
 4    1  0.2069825E-008  0.2377546E+04  0.7816531E-02  0.8447958E-01
         -2   -1    0    0    0  501 -0.00000000000E+00  0.00000000000E+00  0.34112846566E+03  0.34112846566E+03  0.00000000000E+00 0. -1.
          2   -1    0    0  501    0  0.00000000000E+00 -0.00000000000E+00 -0.41426658114E+04  0.41426658114E+04  0.00000000000E+00 0.  1.
    2000013    1    1    2    0    0  0.59500149792E+03  0.39112170629E+03 -0.17863918617E+04  0.21449239742E+04  0.95000000000E+03 0.  0.
   -2000013    1    1    2    0    0 -0.59500149792E+03 -0.39112170629E+03 -0.20151454840E+04  0.23388703028E+04  0.95000000000E+03 0.  0.
<mgrwt>
<rscale>  0 0.23775460E+04</rscale>
<asrwt>0</asrwt>
<pdfrwt beam="2">  1        2 0.63733323E+00 0.23775460E+04</pdfrwt>
<pdfrwt beam="1">  1       -2 0.52481300E-01 0.23775460E+04</pdfrwt>
<totfact> 0.80858138E-01</totfact>
</mgrwt>
</event>
<event>
 4    1  0.2069825E-008  0.2189875E+04  0.7816531E-02  0.8522654E-01
         -2   -1    0    0    0  501 -0.00000000000E+00  0.00000000000E+00  0.14942681266E+04  0.14942681266E+04  0.00000000000E+00 0. -1.
          2   -1    0    0  501    0  0.00000000000E+00 -0.00000000000E+00 -0.80232464461E+03  0.80232464461E+03  0.00000000000E+00 0.  1.
    2000013    1    1    2    0    0 -0.43571320366E+03  0.32178257567E+03  0.28854828824E+03  0.11309951974E+04  0.95000000000E+03 0.  0.
   -2000013    1    1    2    0    0  0.43571320366E+03 -0.32178257567E+03  0.40339519380E+03  0.11655975739E+04  0.95000000000E+03 0.  0.
<mgrwt>
<rscale>  0 0.21898750E+04</rscale>
<asrwt>0</asrwt>
<pdfrwt beam="2">  1        2 0.12343456E+00 0.21898750E+04</pdfrwt>
<pdfrwt beam="1">  1       -2 0.22988740E+00 0.21898750E+04</pdfrwt>
<totfact> 0.26872124E+00</totfact>
</mgrwt>
</event>
<event>
 4    1  0.2069825E-008  0.2240289E+04  0.7816531E-02  0.8501844E-01
         -2   -1    0    0    0  501 -0.00000000000E+00  0.00000000000E+00  0.73885991567E+03  0.73885991567E+03  0.00000000000E+00 0. -1.
          2   -1    0    0  501    0  0.00000000000E+00 -0.00000000000E+00 -0.16981885938E+04  0.16981885938E+04  0.00000000000E+00 0.  1.
    2000013    1    1    2    0    0 -0.38736011158E+03 -0.42223257378E+03 -0.64782182929E+03  0.12847183835E+04  0.95000000000E+03 0.  0.
   -2000013    1    1    2    0    0  0.38736011158E+03  0.42223257378E+03 -0.31150684889E+03  0.11523301260E+04  0.95000000000E+03 0.  0.
<mgrwt>
<rscale>  0 0.22402888E+04</rscale>
<asrwt>0</asrwt>
<pdfrwt beam="2">  1        2 0.26125978E+00 0.22402888E+04</pdfrwt>
<pdfrwt beam="1">  1       -2 0.11367076E+00 0.22402888E+04</pdfrwt>
<totfact> 0.54329428E+00</totfact>
</mgrwt>
</event>
<event>
 4    1  0.2069825E-008  0.2086378E+04  0.7816531E-02  0.8567268E-01
          2   -1    0    0  501    0  0.00000000000E+00  0.00000000000E+00  0.12268045152E+04  0.12268045152E+04  0.00000000000E+00 0.  1.
         -2   -1    0    0    0  501 -0.00000000000E+00 -0.00000000000E+00 -0.88705503082E+03  0.88705503082E+03  0.00000000000E+00 0. -1.
    2000013    1    1    2    0    0 -0.26509022456E+03  0.33851757953E+03  0.19986426054E+03  0.10617498300E+04  0.95000000000E+03 0.  0.
   -2000013    1    1    2    0    0  0.26509022456E+03 -0.33851757953E+03  0.13988522386E+03  0.10521097161E+04  0.95000000000E+03 0.  0.
<mgrwt>
<rscale>  0 0.20863778E+04</rscale>
<asrwt>0</asrwt>
<pdfrwt beam="1">  1        2 0.18873916E+00 0.20863778E+04</pdfrwt>
<pdfrwt beam="2">  1       -2 0.13647000E+00 0.20863778E+04</pdfrwt>
<totfact> 0.64637865E+00</totfact>
</mgrwt>
</event>
<event>
 4    1  0.2069825E-008  0.2452372E+04  0.7816531E-02  0.8420153E-01
          2   -1    0    0  501    0  0.00000000000E+00  0.00000000000E+00  0.27308645734E+04  0.27308645734E+04  0.00000000000E+00 0.  1.
         -2   -1    0    0    0  501 -0.00000000000E+00 -0.00000000000E+00 -0.55056991850E+03  0.55056991850E+03  0.00000000000E+00 0. -1.
    2000013    1    1    2    0    0  0.40969345961E+03  0.58240092818E+03  0.15003737141E+04  0.19132853561E+04  0.95000000000E+03 0.  0.
   -2000013    1    1    2    0    0 -0.40969345961E+03 -0.58240092818E+03  0.67992094082E+03  0.13681491358E+04  0.95000000000E+03 0.  0.
<mgrwt>
<rscale>  0 0.24523718E+04</rscale>
<asrwt>0</asrwt>
<pdfrwt beam="1">  1        2 0.42013301E+00 0.24523718E+04</pdfrwt>
<pdfrwt beam="2">  1       -2 0.84703066E-01 0.24523718E+04</pdfrwt>
<totfact> 0.27676765E+00</totfact>
</mgrwt>
</event>
<event>
 4    1  0.2069825E-008  0.2388658E+04  0.7816531E-02  0.8443762E-01
         -2   -1    0    0    0  501 -0.00000000000E+00  0.00000000000E+00  0.22697401076E+04  0.22697401076E+04  0.00000000000E+00 0. -1.
          2   -1    0    0  501    0  0.00000000000E+00 -0.00000000000E+00 -0.62845183806E+03  0.62845183806E+03  0.00000000000E+00 0.  1.
    2000013    1    1    2    0    0  0.57182028674E+03  0.42354697706E+03  0.98138809418E+03  0.15401276160E+04  0.95000000000E+03 0.  0.
   -2000013    1    1    2    0    0 -0.57182028674E+03 -0.42354697706E+03  0.65990017534E+03  0.13580643297E+04  0.95000000000E+03 0.  0.
<mgrwt>
<rscale>  0 0.23886585E+04</rscale>
<asrwt>0</asrwt>
<pdfrwt beam="2">  1        2 0.96684899E-01 0.23886585E+04</pdfrwt>
<pdfrwt beam="1">  1       -2 0.34919078E+00 0.23886585E+04</pdfrwt>
<totfact> 0.66463755E-01</totfact>
</mgrwt>
</event>
<event>
 4    1  0.2069825E-008  0.3743293E+04  0.7816531E-02  0.8058435E-01
         -2   -1    0    0    0  501 -0.00000000000E+00  0.00000000000E+00  0.22210954984E+04  0.22210954984E+04  0.00000000000E+00 0. -1.
          2   -1    0    0  501    0  0.00000000000E+00 -0.00000000000E+00 -0.15771767204E+04  0.15771767204E+04  0.00000000000E+00 0.  1.
    2000013    1    1    2    0    0  0.80649155482E+02  0.16103039179E+04  0.29024135963E+03  0.18937589712E+04  0.95000000000E+03 0.  0.
   -2000013    1    1    2    0    0 -0.80649155482E+02 -0.16103039179E+04  0.35367741832E+03  0.19045132476E+04  0.95000000000E+03 0.  0.
<mgrwt>
<rscale>  0 0.37432927E+04</rscale>
<asrwt>0</asrwt>
<pdfrwt beam="2">  1        2 0.24264257E+00 0.37432927E+04</pdfrwt>
<pdfrwt beam="1">  1       -2 0.34170700E+00 0.37432927E+04</pdfrwt>
<totfact> 0.16225949E-01</totfact>
</mgrwt>
</event>
<event>
 4    1  0.2069825E-008  0.3592271E+04  0.7816531E-02  0.8092264E-01
         -2   -1    0    0    0  501 -0.00000000000E+00  0.00000000000E+00  0.11540401261E+04  0.11540401261E+04  0.00000000000E+00 0. -1.
          2   -1    0    0  501    0  0.00000000000E+00 -0.00000000000E+00 -0.27954859879E+04  0.27954859879E+04  0.00000000000E+00 0.  1.
    2000013    1    1    2    0    0  0.10908460617E+04  0.13354266982E+03 -0.19821014063E+04  0.24574386584E+04  0.95000000000E+03 0.  0.
   -2000013    1    1    2    0    0 -0.10908460617E+04 -0.13354266982E+03  0.34065554451E+03  0.14920874555E+04  0.95000000000E+03 0.  0.
<mgrwt>
<rscale>  0 0.35922711E+04</rscale>
<asrwt>0</asrwt>
<pdfrwt beam="2">  1        2 0.43007476E+00 0.35922711E+04</pdfrwt>
<pdfrwt beam="1">  1       -2 0.17754464E+00 0.35922711E+04</pdfrwt>
<totfact> 0.35775565E-01</totfact>
</mgrwt>
</event>
<event>
 4    1  0.2069825E-008  0.2213157E+04  0.7816531E-02  0.8512972E-01
          2   -1    0    0  501    0  0.00000000000E+00  0.00000000000E+00  0.20443537987E+04  0.20443537987E+04  0.00000000000E+00 0.  1.
         -2   -1    0    0    0  501 -0.00000000000E+00 -0.00000000000E+00 -0.59897448964E+03  0.59897448964E+03  0.00000000000E+00 0. -1.
    2000013    1    1    2    0    0  0.17084121683E+03 -0.30249728360E+03  0.18678544091E+03  0.10286302197E+04  0.95000000000E+03 0.  0.
   -2000013    1    1    2    0    0 -0.17084121683E+03  0.30249728360E+03  0.12585938682E+04  0.16146980687E+04  0.95000000000E+03 0.  0.
<mgrwt>
<rscale>  0 0.22131568E+04</rscale>
<asrwt>0</asrwt>
<pdfrwt beam="1">  1        2 0.31451597E+00 0.22131568E+04</pdfrwt>
<pdfrwt beam="2">  1       -2 0.92149922E-01 0.22131568E+04</pdfrwt>
<totfact> 0.57656728E+00</totfact>
</mgrwt>
</event>
<event>
 4    1  0.2069825E-008  0.2143406E+04  0.7816531E-02  0.8542360E-01
         -1   -1    0    0    0  501 -0.00000000000E+00  0.00000000000E+00  0.11826666207E+04  0.11826666207E+04  0.00000000000E+00 0. -1.
          1   -1    0    0  501    0  0.00000000000E+00 -0.00000000000E+00 -0.97115025803E+03  0.97115025803E+03  0.00000000000E+00 0.  1.
    2000013    1    1    2    0    0  0.27411321702E+03  0.40990274483E+03  0.51750696556E+02  0.10716046148E+04  0.95000000000E+03 0.  0.
   -2000013    1    1    2    0    0 -0.27411321702E+03 -0.40990274483E+03  0.15976566609E+03  0.10822122638E+04  0.95000000000E+03 0.  0.
<mgrwt>
<rscale>  0 0.21434057E+04</rscale>
<asrwt>0</asrwt>
<pdfrwt beam="2">  1        1 0.14940773E+00 0.21434057E+04</pdfrwt>
<pdfrwt beam="1">  1       -1 0.18194871E+00 0.21434057E+04</pdfrwt>
<totfact> 0.29438144E+00</totfact>
</mgrwt>
</event>
<event>
 4    1  0.2069825E-008  0.2107427E+04  0.7816531E-02  0.8557979E-01
         -3   -1    0    0    0  501 -0.00000000000E+00  0.00000000000E+00  0.67187265879E+03  0.67187265879E+03  0.00000000000E+00 0.  1.
          3   -1    0    0  501    0  0.00000000000E+00 -0.00000000000E+00 -0.16525634256E+04  0.16525634256E+04  0.00000000000E+00 0. -1.
    2000013    1    1    2    0    0  0.41045406105E+03 -0.14196523362E+03 -0.33757054453E+03  0.10977616027E+04  0.95000000000E+03 0.  0.
   -2000013    1    1    2    0    0 -0.41045406105E+03  0.14196523362E+03 -0.64312022231E+03  0.12266744817E+04  0.95000000000E+03 0.  0.
<mgrwt>
<rscale>  0 0.21074270E+04</rscale>
<asrwt>0</asrwt>
<pdfrwt beam="2">  1        3 0.25424053E+00 0.21074270E+04</pdfrwt>
<pdfrwt beam="1">  1       -3 0.10336503E+00 0.21074270E+04</pdfrwt>
<totfact> 0.13583706E-01</totfact>
</mgrwt>
</event>
<event>
 4    1  0.2069825E-008  0.2711444E+04  0.7816531E-02  0.8331301E-01
          2   -1    0    0  501    0  0.00000000000E+00  0.00000000000E+00  0.22830225395E+04  0.22830225395E+04  0.00000000000E+00 0.  1.
         -2   -1    0    0    0  501 -0.00000000000E+00 -0.00000000000E+00 -0.80506539111E+03  0.80506539111E+03  0.00000000000E+00 0. -1.
    2000013    1    1    2    0    0 -0.75189180124E+03 -0.36261215068E+03  0.18259671434E+03  0.12777599198E+04  0.95000000000E+03 0.  0.
   -2000013    1    1    2    0    0  0.75189180124E+03  0.36261215068E+03  0.12953604341E+04  0.18103280108E+04  0.95000000000E+03 0.  0.
<mgrwt>
<rscale>  0 0.27114442E+04</rscale>
<asrwt>0</asrwt>
<pdfrwt beam="1">  1        2 0.35123423E+00 0.27114442E+04</pdfrwt>
<pdfrwt beam="2">  1       -2 0.12385622E+00 0.27114442E+04</pdfrwt>
<totfact> 0.19932074E+00</totfact>
</mgrwt>
</event>
<event>
 4    1  0.2069825E-008  0.2376152E+04  0.7816531E-02  0.8448486E-01
          2   -1    0    0  501    0  0.00000000000E+00  0.00000000000E+00  0.13279966128E+04  0.13279966128E+04  0.00000000000E+00 0.  1.
         -2   -1    0    0    0  501 -0.00000000000E+00 -0.00000000000E+00 -0.10628981226E+04  0.10628981226E+04  0.00000000000E+00 0. -1.
    2000013    1    1    2    0    0  0.45267006483E+03 -0.54904903751E+03  0.18444513493E+03  0.12012014989E+04  0.95000000000E+03 0.  0.
   -2000013    1    1    2    0    0 -0.45267006483E+03  0.54904903751E+03  0.80653355295E+02  0.11896932365E+04  0.95000000000E+03 0.  0.
<mgrwt>
<rscale>  0 0.23761524E+04</rscale>
<asrwt>0</asrwt>
<pdfrwt beam="1">  1        2 0.20430717E+00 0.23761524E+04</pdfrwt>
<pdfrwt beam="2">  1       -2 0.16352279E+00 0.23761524E+04</pdfrwt>
<totfact> 0.34049464E+00</totfact>
</mgrwt>
</event>
<event>
 4    1  0.2069825E-008  0.2940361E+04  0.7816531E-02  0.8260969E-01
         -2   -1    0    0    0  501 -0.00000000000E+00  0.00000000000E+00  0.14306035558E+04  0.14306035558E+04  0.00000000000E+00 0. -1.
          2   -1    0    0  501    0  0.00000000000E+00 -0.00000000000E+00 -0.15108527875E+04  0.15108527875E+04  0.00000000000E+00 0.  1.
    2000013    1    1    2    0    0  0.14214520863E+03 -0.56529000499E+03  0.91896765517E+03  0.14445620794E+04  0.95000000000E+03 0.  0.
   -2000013    1    1    2    0    0 -0.14214520863E+03  0.56529000499E+03 -0.99921688695E+03  0.14968942639E+04  0.95000000000E+03 0.  0.
<mgrwt>
<rscale>  0 0.29403615E+04</rscale>
<asrwt>0</asrwt>
<pdfrwt beam="2">  1        2 0.23243889E+00 0.29403615E+04</pdfrwt>
<pdfrwt beam="1">  1       -2 0.22009286E+00 0.29403615E+04</pdfrwt>
<totfact> 0.10627283E+00</totfact>
</mgrwt>
</event>
<event>
 4    1  0.2069825E-008  0.3206793E+04  0.7816531E-02  0.8187026E-01
         -2   -1    0    0    0  501 -0.00000000000E+00  0.00000000000E+00  0.11396906386E+04  0.11396906386E+04  0.00000000000E+00 0. -1.
          2   -1    0    0  501    0  0.00000000000E+00 -0.00000000000E+00 -0.22557697195E+04  0.22557697195E+04  0.00000000000E+00 0.  1.
    2000013    1    1    2    0    0 -0.97590050022E+03 -0.30649891680E+03  0.27706843133E+03  0.14232323380E+04  0.95000000000E+03 0.  0.
   -2000013    1    1    2    0    0  0.97590050022E+03  0.30649891680E+03 -0.13931475123E+04  0.19722280201E+04  0.95000000000E+03 0.  0.
<mgrwt>
<rscale>  0 0.32067926E+04</rscale>
<asrwt>0</asrwt>
<pdfrwt beam="2">  1        2 0.34704150E+00 0.32067926E+04</pdfrwt>
<pdfrwt beam="1">  1       -2 0.17533702E+00 0.32067926E+04</pdfrwt>
<totfact> 0.78984940E-01</totfact>
</mgrwt>
</event>
<event>
 4    1  0.2069825E-008  0.2441295E+04  0.7816531E-02  0.8424203E-01
          2   -1    0    0  501    0  0.00000000000E+00  0.00000000000E+00  0.77821289622E+03  0.77821289622E+03  0.00000000000E+00 0.  1.
         -2   -1    0    0    0  501 -0.00000000000E+00 -0.00000000000E+00 -0.19146183466E+04  0.19146183466E+04  0.00000000000E+00 0. -1.
    2000013    1    1    2    0    0  0.60394695178E+03  0.74107733254E+02 -0.54093339714E+02  0.11294556061E+04  0.95000000000E+03 0.  0.
   -2000013    1    1    2    0    0 -0.60394695178E+03 -0.74107733254E+02 -0.10823121107E+04  0.15633756368E+04  0.95000000000E+03 0.  0.
<mgrwt>
<rscale>  0 0.24412953E+04</rscale>
<asrwt>0</asrwt>
<pdfrwt beam="1">  1        2 0.11972506E+00 0.24412953E+04</pdfrwt>
<pdfrwt beam="2">  1       -2 0.29455666E+00 0.24412953E+04</pdfrwt>
<totfact> 0.10990763E+00</totfact>
</mgrwt>
</event>
<event>
 4    1  0.2069825E-008  0.2055405E+04  0.7816531E-02  0.8581146E-01
         -2   -1    0    0    0  501 -0.00000000000E+00  0.00000000000E+00  0.84853869244E+03  0.84853869244E+03  0.00000000000E+00 0. -1.
          2   -1    0    0  501    0  0.00000000000E+00 -0.00000000000E+00 -0.12446953412E+04  0.12446953412E+04  0.00000000000E+00 0.  1.
    2000013    1    1    2    0    0  0.60878210767E+02  0.38522491485E+03 -0.23840208405E+03  0.10542485216E+04  0.95000000000E+03 0.  0.
   -2000013    1    1    2    0    0 -0.60878210767E+02 -0.38522491485E+03 -0.15775456470E+03  0.10389855121E+04  0.95000000000E+03 0.  0.
<mgrwt>
<rscale>  0 0.20554047E+04</rscale>
<asrwt>0</asrwt>
<pdfrwt beam="2">  1        2 0.19149159E+00 0.20554047E+04</pdfrwt>
<pdfrwt beam="1">  1       -2 0.13054441E+00 0.20554047E+04</pdfrwt>
<totfact> 0.70820197E+00</totfact>
</mgrwt>
</event>
<event>
 4    1  0.2069825E-008  0.2074981E+04  0.7816531E-02  0.8572345E-01
          2   -1    0    0  501    0  0.00000000000E+00  0.00000000000E+00  0.36413040706E+04  0.36413040706E+04  0.00000000000E+00 0.  1.
         -2   -1    0    0    0  501 -0.00000000000E+00 -0.00000000000E+00 -0.29560457701E+03  0.29560457701E+03  0.00000000000E+00 0. -1.
    2000013    1    1    2    0    0 -0.32851544877E+03  0.10501870338E+03  0.21175477199E+04  0.23463715976E+04  0.95000000000E+03 0.  0.
   -2000013    1    1    2    0    0  0.32851544877E+03 -0.10501870338E+03  0.12281517737E+04  0.15905370500E+04  0.95000000000E+03 0.  0.
<mgrwt>
<rscale>  0 0.20749806E+04</rscale>
<asrwt>0</asrwt>
<pdfrwt beam="1">  1        2 0.56020059E+00 0.20749806E+04</pdfrwt>
<pdfrwt beam="2">  1       -2 0.45477630E-01 0.20749806E+04</pdfrwt>
<totfact> 0.27449610E+00</totfact>
</mgrwt>
</event>
<event>
 4    1  0.2069825E-008  0.2489146E+04  0.7816531E-02  0.8406863E-01
         -2   -1    0    0    0  501 -0.00000000000E+00  0.00000000000E+00  0.52386589163E+03  0.52386589163E+03  0.00000000000E+00 0. -1.
          2   -1    0    0  501    0  0.00000000000E+00 -0.00000000000E+00 -0.29567898523E+04  0.29567898523E+04  0.00000000000E+00 0.  1.
    2000013    1    1    2    0    0 -0.63412008981E+03  0.37743346087E+03 -0.16628284700E+04  0.20523310713E+04  0.95000000000E+03 0.  0.
   -2000013    1    1    2    0    0  0.63412008981E+03 -0.37743346087E+03 -0.77009549071E+03  0.14283246726E+04  0.95000000000E+03 0.  0.
<mgrwt>
<rscale>  0 0.24891455E+04</rscale>
<asrwt>0</asrwt>
<pdfrwt beam="2">  1        2 0.45489074E+00 0.24891455E+04</pdfrwt>
<pdfrwt beam="1">  1       -2 0.80594754E-01 0.24891455E+04</pdfrwt>
<totfact> 0.22487566E+00</totfact>
</mgrwt>
</event>
<event>
 4    1  0.2069825E-008  0.3895510E+04  0.7816531E-02  0.8025964E-01
         -2   -1    0    0    0  501 -0.00000000000E+00  0.00000000000E+00  0.12595697997E+04  0.12595697997E+04  0.00000000000E+00 0. -1.
          2   -1    0    0  501    0  0.00000000000E+00 -0.00000000000E+00 -0.30119405467E+04  0.30119405467E+04  0.00000000000E+00 0.  1.
    2000013    1    1    2    0    0 -0.43189057816E+03 -0.16439430781E+04 -0.82509364155E+03  0.21147949860E+04  0.95000000000E+03 0.  0.
   -2000013    1    1    2    0    0  0.43189057816E+03  0.16439430781E+04 -0.92727710550E+03  0.21567153604E+04  0.95000000000E+03 0.  0.
<mgrwt>
<rscale>  0 0.38955099E+04</rscale>
<asrwt>0</asrwt>
<pdfrwt beam="2">  1        2 0.46337546E+00 0.38955099E+04</pdfrwt>
<pdfrwt beam="1">  1       -2 0.19377997E+00 0.38955099E+04</pdfrwt>
<totfact> 0.19896097E-01</totfact>
</mgrwt>
</event>
<event>
 4    1  0.2069825E-008  0.2046700E+04  0.7816531E-02  0.8585093E-01
          2   -1    0    0  501    0  0.00000000000E+00  0.00000000000E+00  0.15698906608E+04  0.15698906608E+04  0.00000000000E+00 0.  1.
         -2   -1    0    0    0  501 -0.00000000000E+00 -0.00000000000E+00 -0.66708137874E+03  0.66708137874E+03  0.00000000000E+00 0. -1.
    2000013    1    1    2    0    0 -0.22810418139E+03  0.75286621612E+02  0.12894234222E+03  0.98834494008E+03  0.95000000000E+03 0.  0.
   -2000013    1    1    2    0    0  0.22810418139E+03 -0.75286621612E+02  0.77386693987E+03  0.12486270995E+04  0.95000000000E+03 0.  0.
<mgrwt>
<rscale>  0 0.20466996E+04</rscale>
<asrwt>0</asrwt>
<pdfrwt beam="1">  1        2 0.24152164E+00 0.20466996E+04</pdfrwt>
<pdfrwt beam="2">  1       -2 0.10262790E+00 0.20466996E+04</pdfrwt>
<totfact> 0.83329501E+00</totfact>
</mgrwt>
</event>
<event>
 4    1  0.2069825E-008  0.2254353E+04  0.7816531E-02  0.8496140E-01
          2   -1    0    0  501    0  0.00000000000E+00  0.00000000000E+00  0.17789784887E+04  0.17789784887E+04  0.00000000000E+00 0.  1.
         -2   -1    0    0    0  501 -0.00000000000E+00 -0.00000000000E+00 -0.71418925066E+03  0.71418925066E+03  0.00000000000E+00 0. -1.
    2000013    1    1    2    0    0  0.51424505002E+03 -0.31873863595E+03  0.48312123303E+03  0.12255400505E+04  0.95000000000E+03 0.  0.
   -2000013    1    1    2    0    0 -0.51424505002E+03  0.31873863595E+03  0.58166800497E+03  0.12676276888E+04  0.95000000000E+03 0.  0.
<mgrwt>
<rscale>  0 0.22543534E+04</rscale>
<asrwt>0</asrwt>
<pdfrwt beam="1">  1        2 0.27368900E+00 0.22543534E+04</pdfrwt>
<pdfrwt beam="2">  1       -2 0.10987527E+00 0.22543534E+04</pdfrwt>
<totfact> 0.53144008E+00</totfact>
</mgrwt>
</event>
<event>
 4    1  0.2069825E-008  0.3639976E+04  0.7816531E-02  0.8081396E-01
          2   -1    0    0  501    0  0.00000000000E+00  0.00000000000E+00  0.22350299815E+04  0.22350299815E+04  0.00000000000E+00 0.  1.
         -2   -1    0    0    0  501 -0.00000000000E+00 -0.00000000000E+00 -0.14820185332E+04  0.14820185332E+04  0.00000000000E+00 0. -1.
    2000013    1    1    2    0    0 -0.13875025742E+04 -0.69034688808E+03  0.28452274109E+03  0.18398900536E+04  0.95000000000E+03 0.  0.
   -2000013    1    1    2    0    0  0.13875025742E+04  0.69034688808E+03  0.46848870717E+03  0.18771584611E+04  0.95000000000E+03 0.  0.
<mgrwt>
<rscale>  0 0.36399757E+04</rscale>
<asrwt>0</asrwt>
<pdfrwt beam="1">  1        2 0.34385077E+00 0.36399757E+04</pdfrwt>
<pdfrwt beam="2">  1       -2 0.22800285E+00 0.36399757E+04</pdfrwt>
<totfact> 0.35275751E-01</totfact>
</mgrwt>
</event>
<event>
 4    1  0.2069825E-008  0.2962083E+04  0.7816531E-02  0.8254642E-01
          2   -1    0    0  501    0  0.00000000000E+00  0.00000000000E+00  0.17437154997E+04  0.17437154997E+04  0.00000000000E+00 0.  1.
         -2   -1    0    0    0  501 -0.00000000000E+00 -0.00000000000E+00 -0.12579369012E+04  0.12579369012E+04  0.00000000000E+00 0. -1.
    2000013    1    1    2    0    0 -0.97058239588E+03 -0.38178541769E+03  0.69968116835E+03  0.15747520534E+04  0.95000000000E+03 0.  0.
   -2000013    1    1    2    0    0  0.97058239588E+03  0.38178541769E+03 -0.21390256978E+03  0.14269003475E+04  0.95000000000E+03 0.  0.
<mgrwt>
<rscale>  0 0.29620831E+04</rscale>
<asrwt>0</asrwt>
<pdfrwt beam="1">  1        2 0.26826392E+00 0.29620831E+04</pdfrwt>
<pdfrwt beam="2">  1       -2 0.19352875E+00 0.29620831E+04</pdfrwt>
<totfact> 0.11689924E+00</totfact>
</mgrwt>
</event>
<event>
 4    1  0.2069825E-008  0.2358551E+04  0.7816531E-02  0.8455187E-01
         -2   -1    0    0    0  501 -0.00000000000E+00  0.00000000000E+00  0.39367297632E+03  0.39367297632E+03  0.00000000000E+00 0. -1.
          2   -1    0    0  501    0  0.00000000000E+00 -0.00000000000E+00 -0.35326024888E+04  0.35326024888E+04  0.00000000000E+00 0.  1.
    2000013    1    1    2    0    0  0.41561659559E+03  0.45927082117E+03 -0.10312666965E+04  0.15328658914E+04  0.95000000000E+03 0.  0.
   -2000013    1    1    2    0    0 -0.41561659559E+03 -0.45927082117E+03 -0.21076628160E+04  0.23934095737E+04  0.95000000000E+03 0.  0.
<mgrwt>
<rscale>  0 0.23585505E+04</rscale>
<asrwt>0</asrwt>
<pdfrwt beam="2">  1        2 0.54347729E+00 0.23585505E+04</pdfrwt>
<pdfrwt beam="1">  1       -2 0.60565075E-01 0.23585505E+04</pdfrwt>
<totfact> 0.17708895E+00</totfact>
</mgrwt>
</event>
<event>
 4    1  0.2069825E-008  0.2333202E+04  0.7816531E-02  0.8464944E-01
         -2   -1    0    0    0  501 -0.00000000000E+00  0.00000000000E+00  0.40561809054E+03  0.40561809054E+03  0.00000000000E+00 0. -1.
          2   -1    0    0  501    0  0.00000000000E+00 -0.00000000000E+00 -0.33552702528E+04  0.33552702528E+04  0.00000000000E+00 0.  1.
    2000013    1    1    2    0    0  0.48462684349E+03  0.46195912287E+03 -0.13121207511E+04  0.17528349250E+04  0.95000000000E+03 0.  0.
   -2000013    1    1    2    0    0 -0.48462684349E+03 -0.46195912287E+03 -0.16375314111E+04  0.20080534184E+04  0.95000000000E+03 0.  0.
<mgrwt>
<rscale>  0 0.23332024E+04</rscale>
<asrwt>0</asrwt>
<pdfrwt beam="2">  1        2 0.51619544E+00 0.23332024E+04</pdfrwt>
<pdfrwt beam="1">  1       -2 0.62402781E-01 0.23332024E+04</pdfrwt>
<totfact> 0.22068036E+00</totfact>
</mgrwt>
</event>
<event>
 4    1  0.2069825E-008  0.2889833E+04  0.7816531E-02  0.8275909E-01
         -2   -1    0    0    0  501 -0.00000000000E+00  0.00000000000E+00  0.89199658530E+03  0.89199658530E+03  0.00000000000E+00 0. -1.
          2   -1    0    0  501    0  0.00000000000E+00 -0.00000000000E+00 -0.23405731697E+04  0.23405731697E+04  0.00000000000E+00 0.  1.
    2000013    1    1    2    0    0  0.29498682231E+03  0.10410377679E+04 -0.85901548441E+03  0.16766587196E+04  0.95000000000E+03 0.  0.
   -2000013    1    1    2    0    0 -0.29498682231E+03 -0.10410377679E+04 -0.58956110003E+03  0.15559110354E+04  0.95000000000E+03 0.  0.
<mgrwt>
<rscale>  0 0.28898327E+04</rscale>
<asrwt>0</asrwt>
<pdfrwt beam="2">  1        2 0.36008818E+00 0.28898327E+04</pdfrwt>
<pdfrwt beam="1">  1       -2 0.13723024E+00 0.28898327E+04</pdfrwt>
<totfact> 0.14044724E+00</totfact>
</mgrwt>
</event>
<event>
 4    1  0.2069825E-008  0.3812083E+04  0.7816531E-02  0.8043567E-01
          2   -1    0    0  501    0  0.00000000000E+00  0.00000000000E+00  0.17321393988E+04  0.17321393988E+04  0.00000000000E+00 0.  1.
         -2   -1    0    0    0  501 -0.00000000000E+00 -0.00000000000E+00 -0.20974026320E+04  0.20974026320E+04  0.00000000000E+00 0. -1.
    2000013    1    1    2    0    0 -0.29746004780E+02 -0.73067145733E+03 -0.16712171817E+04  0.20567528952E+04  0.95000000000E+03 0.  0.
   -2000013    1    1    2    0    0  0.29746004780E+02  0.73067145733E+03  0.13059539486E+04  0.17727891356E+04  0.95000000000E+03 0.  0.
<mgrwt>
<rscale>  0 0.38120828E+04</rscale>
<asrwt>0</asrwt>
<pdfrwt beam="1">  1        2 0.26648298E+00 0.38120828E+04</pdfrwt>
<pdfrwt beam="2">  1       -2 0.32267733E+00 0.38120828E+04</pdfrwt>
<totfact> 0.17372750E-01</totfact>
</mgrwt>
</event>
<event>
 4    1  0.2069825E-008  0.2716395E+04  0.7816531E-02  0.8329705E-01
          1   -1    0    0  501    0  0.00000000000E+00  0.00000000000E+00  0.13581252297E+04  0.13581252297E+04  0.00000000000E+00 0.  1.
         -1   -1    0    0    0  501 -0.00000000000E+00 -0.00000000000E+00 -0.13582695941E+04  0.13582695941E+04  0.00000000000E+00 0. -1.
    2000013    1    1    2    0    0 -0.24930149891E+03 -0.93559414186E+03 -0.68720335097E+02  0.13582010603E+04  0.95000000000E+03 0.  0.
   -2000013    1    1    2    0    0  0.24930149891E+03  0.93559414186E+03  0.68575970644E+02  0.13581937636E+04  0.95000000000E+03 0.  0.
<mgrwt>
<rscale>  0 0.27163948E+04</rscale>
<asrwt>0</asrwt>
<pdfrwt beam="1">  1        1 0.20894234E+00 0.27163948E+04</pdfrwt>
<pdfrwt beam="2">  1       -1 0.20896455E+00 0.27163948E+04</pdfrwt>
<totfact> 0.93692623E-01</totfact>
</mgrwt>
</event>
<event>
 4    1  0.2069825E-008  0.1937282E+04  0.7816531E-02  0.8636518E-01
          2   -1    0    0  501    0  0.00000000000E+00  0.00000000000E+00  0.10763322188E+04  0.10763322188E+04  0.00000000000E+00 0.  1.
         -2   -1    0    0    0  501 -0.00000000000E+00 -0.00000000000E+00 -0.87172506158E+03  0.87172506158E+03  0.00000000000E+00 0. -1.
    2000013    1    1    2    0    0 -0.10190255148E+03  0.10363138570E+03  0.22398144785E+03  0.98680863549E+03  0.95000000000E+03 0.  0.
   -2000013    1    1    2    0    0  0.10190255148E+03 -0.10363138570E+03 -0.19374290666E+02  0.96124864486E+03  0.95000000000E+03 0.  0.
<mgrwt>
<rscale>  0 0.19372824E+04</rscale>
<asrwt>0</asrwt>
<pdfrwt beam="1">  1        2 0.16558957E+00 0.19372824E+04</pdfrwt>
<pdfrwt beam="2">  1       -2 0.13411155E+00 0.19372824E+04</pdfrwt>
<totfact> 0.84434730E+00</totfact>
</mgrwt>
</event>
<event>
 4    1  0.2069825E-008  0.2244794E+04  0.7816531E-02  0.8500012E-01
         -2   -1    0    0    0  501 -0.00000000000E+00  0.00000000000E+00  0.83204491413E+03  0.83204491413E+03  0.00000000000E+00 0. -1.
          2   -1    0    0  501    0  0.00000000000E+00 -0.00000000000E+00 -0.15140706947E+04  0.15140706947E+04  0.00000000000E+00 0.  1.
    2000013    1    1    2    0    0  0.38667815786E+03 -0.14787947141E+03  0.10959299460E+03  0.10420647582E+04  0.95000000000E+03 0.  0.
   -2000013    1    1    2    0    0 -0.38667815786E+03  0.14787947141E+03 -0.79161877518E+03  0.13040508506E+04  0.95000000000E+03 0.  0.
<mgrwt>
<rscale>  0 0.22447938E+04</rscale>
<asrwt>0</asrwt>
<pdfrwt beam="2">  1        2 0.23293395E+00 0.22447938E+04</pdfrwt>
<pdfrwt beam="1">  1       -2 0.12800691E+00 0.22447938E+04</pdfrwt>
<totfact> 0.51270081E+00</totfact>
</mgrwt>
</event>
<event>
 4    1  0.2069825E-008  0.2180639E+04  0.7816531E-02  0.8526530E-01
          2   -1    0    0  501    0  0.00000000000E+00  0.00000000000E+00  0.13970817769E+04  0.13970817769E+04  0.00000000000E+00 0.  1.
         -2   -1    0    0    0  501 -0.00000000000E+00 -0.00000000000E+00 -0.85091375738E+03  0.85091375738E+03  0.00000000000E+00 0. -1.
    2000013    1    1    2    0    0  0.19634286470E+03 -0.34906170679E+03 -0.92702116038E+02  0.10351271796E+04  0.95000000000E+03 0.  0.
   -2000013    1    1    2    0    0 -0.19634286470E+03  0.34906170679E+03  0.63887013559E+03  0.12128683547E+04  0.95000000000E+03 0.  0.
<mgrwt>
<rscale>  0 0.21806385E+04</rscale>
<asrwt>0</asrwt>
<pdfrwt beam="1">  1        2 0.21493566E+00 0.21806385E+04</pdfrwt>
<pdfrwt beam="2">  1       -2 0.13090981E+00 0.21806385E+04</pdfrwt>
<totfact> 0.56754847E+00</totfact>
</mgrwt>
</event>
<event>
 4    1  0.2069825E-008  0.3029910E+04  0.7816531E-02  0.8235241E-01
          2   -1    0    0  501    0  0.00000000000E+00  0.00000000000E+00  0.23308591628E+04  0.23308591628E+04  0.00000000000E+00 0.  1.
         -2   -1    0    0    0  501 -0.00000000000E+00 -0.00000000000E+00 -0.98465368696E+03  0.98465368696E+03  0.00000000000E+00 0. -1.
    2000013    1    1    2    0    0 -0.26056825271E+03 -0.11045053189E+04  0.31892497285E+03  0.15139487944E+04  0.95000000000E+03 0.  0.
   -2000013    1    1    2    0    0  0.26056825271E+03  0.11045053189E+04  0.10272805030E+04  0.18015640554E+04  0.95000000000E+03 0.  0.
<mgrwt>
<rscale>  0 0.30299103E+04</rscale>
<asrwt>0</asrwt>
<pdfrwt beam="1">  1        2 0.35859372E+00 0.30299103E+04</pdfrwt>
<pdfrwt beam="2">  1       -2 0.15148518E+00 0.30299103E+04</pdfrwt>
<totfact> 0.10850975E+00</totfact>
</mgrwt>
</event>
<event>
 4    1  0.2069825E-008  0.2382403E+04  0.7816531E-02  0.8446121E-01
         -2   -1    0    0    0  501 -0.00000000000E+00  0.00000000000E+00  0.74162689596E+03  0.74162689596E+03  0.00000000000E+00 0. -1.
          2   -1    0    0  501    0  0.00000000000E+00 -0.00000000000E+00 -0.19133077202E+04  0.19133077202E+04  0.00000000000E+00 0.  1.
    2000013    1    1    2    0    0 -0.25876190415E+03 -0.58661580577E+03 -0.22407474980E+03  0.11678121939E+04  0.95000000000E+03 0.  0.
   -2000013    1    1    2    0    0  0.25876190415E+03  0.58661580577E+03 -0.94760607445E+03  0.14871224223E+04  0.95000000000E+03 0.  0.
<mgrwt>
<rscale>  0 0.23824025E+04</rscale>
<asrwt>0</asrwt>
<pdfrwt beam="2">  1        2 0.29435503E+00 0.23824025E+04</pdfrwt>
<pdfrwt beam="1">  1       -2 0.11409645E+00 0.23824025E+04</pdfrwt>
<totfact> 0.40412217E+00</totfact>
</mgrwt>
</event>
<event>
 4    1  0.2069825E-008  0.1988509E+04  0.7816531E-02  0.8612012E-01
         -2   -1    0    0    0  501 -0.00000000000E+00  0.00000000000E+00  0.12883277848E+04  0.12883277848E+04  0.00000000000E+00 0. -1.
          2   -1    0    0  501    0  0.00000000000E+00 -0.00000000000E+00 -0.76730655531E+03  0.76730655531E+03  0.00000000000E+00 0.  1.
    2000013    1    1    2    0    0 -0.96375899633E+02 -0.25244207855E+03  0.37849949016E+03  0.10577226390E+04  0.95000000000E+03 0.  0.
   -2000013    1    1    2    0    0  0.96375899633E+02  0.25244207855E+03  0.14252173937E+03  0.99791170113E+03  0.95000000000E+03 0.  0.
<mgrwt>
<rscale>  0 0.19885093E+04</rscale>
<asrwt>0</asrwt>
<pdfrwt beam="2">  1        2 0.11804716E+00 0.19885093E+04</pdfrwt>
<pdfrwt beam="1">  1       -2 0.19820427E+00 0.19885093E+04</pdfrwt>
<totfact> 0.46235804E+00</totfact>
</mgrwt>
</event>
<event>
 4    1  0.2069825E-008  0.2231264E+04  0.7816531E-02  0.8505527E-01
         -1   -1    0    0    0  501 -0.00000000000E+00  0.00000000000E+00  0.71917923306E+03  0.71917923306E+03  0.00000000000E+00 0. -1.
          1   -1    0    0  501    0  0.00000000000E+00 -0.00000000000E+00 -0.17306327430E+04  0.17306327430E+04  0.00000000000E+00 0.  1.
    2000013    1    1    2    0    0  0.55749503500E+03 -0.17294532104E+03 -0.54716364400E+03  0.12420140303E+04  0.95000000000E+03 0.  0.
   -2000013    1    1    2    0    0 -0.55749503500E+03  0.17294532104E+03 -0.46428986591E+03  0.12077979457E+04  0.95000000000E+03 0.  0.
<mgrwt>
<rscale>  0 0.22312643E+04</rscale>
<asrwt>0</asrwt>
<pdfrwt beam="2">  1        1 0.26625119E+00 0.22312643E+04</pdfrwt>
<pdfrwt beam="1">  1       -1 0.11064296E+00 0.22312643E+04</pdfrwt>
<totfact> 0.31082681E+00</totfact>
</mgrwt>
</event>
<event>
 4    1  0.2069825E-008  0.4032641E+04  0.7816531E-02  0.7997994E-01
          2   -1    0    0  501    0  0.00000000000E+00  0.00000000000E+00  0.32132771412E+04  0.32132771412E+04  0.00000000000E+00 0.  1.
         -2   -1    0    0    0  501 -0.00000000000E+00 -0.00000000000E+00 -0.12652340415E+04  0.12652340415E+04  0.00000000000E+00 0. -1.
    2000013    1    1    2    0    0  0.16707976366E+04  0.13335919567E+02  0.16507424037E+04  0.25336126524E+04  0.95000000000E+03 0.  0.
   -2000013    1    1    2    0    0 -0.16707976366E+04 -0.13335919567E+02  0.29730069604E+03  0.19448985303E+04  0.95000000000E+03 0.  0.
<mgrwt>
<rscale>  0 0.40326406E+04</rscale>
<asrwt>0</asrwt>
<pdfrwt beam="1">  1        2 0.49435033E+00 0.40326406E+04</pdfrwt>
<pdfrwt beam="2">  1       -2 0.19465139E+00 0.40326406E+04</pdfrwt>
<totfact> 0.14415217E-01</totfact>
</mgrwt>
</event>
<event>
 4    1  0.2069825E-008  0.2287636E+04  0.7816531E-02  0.8482812E-01
          2   -1    0    0  501    0  0.00000000000E+00  0.00000000000E+00  0.93303899557E+03  0.93303899557E+03  0.00000000000E+00 0.  1.
         -2   -1    0    0    0  501 -0.00000000000E+00 -0.00000000000E+00 -0.14022133151E+04  0.14022133151E+04  0.00000000000E+00 0. -1.
    2000013    1    1    2    0    0  0.50146336057E+03 -0.13627932441E+03  0.14156902713E+03  0.10920528127E+04  0.95000000000E+03 0.  0.
   -2000013    1    1    2    0    0 -0.50146336057E+03  0.13627932441E+03 -0.61074334662E+03  0.12431994979E+04  0.95000000000E+03 0.  0.
<mgrwt>
<rscale>  0 0.22876361E+04</rscale>
<asrwt>0</asrwt>
<pdfrwt beam="1">  1        2 0.14354446E+00 0.22876361E+04</pdfrwt>
<pdfrwt beam="2">  1       -2 0.21572513E+00 0.22876361E+04</pdfrwt>
<totfact> 0.26598035E+00</totfact>
</mgrwt>
</event>
<event>
 4    1  0.2069825E-008  0.2277987E+04  0.7816531E-02  0.8486651E-01
         -2   -1    0    0    0  501 -0.00000000000E+00  0.00000000000E+00  0.54771600803E+03  0.54771600803E+03  0.00000000000E+00 0. -1.
          2   -1    0    0  501    0  0.00000000000E+00 -0.00000000000E+00 -0.23685743891E+04  0.23685743891E+04  0.00000000000E+00 0.  1.
    2000013    1    1    2    0    0 -0.22749337940E+03  0.55549691889E+03 -0.11481341577E+04  0.16065622019E+04  0.95000000000E+03 0.  0.
   -2000013    1    1    2    0    0  0.22749337940E+03 -0.55549691889E+03 -0.67272422338E+03  0.13097281952E+04  0.95000000000E+03 0.  0.
<mgrwt>
<rscale>  0 0.22779869E+04</rscale>
<asrwt>0</asrwt>
<pdfrwt beam="2">  1        2 0.36439606E+00 0.22779869E+04</pdfrwt>
<pdfrwt beam="1">  1       -2 0.84264001E-01 0.22779869E+04</pdfrwt>
<totfact> 0.46248636E+00</totfact>
</mgrwt>
</event>
<event>
 4    1  0.2069825E-008  0.2542231E+04  0.7816531E-02  0.8388093E-01
          2   -1    0    0  501    0  0.00000000000E+00  0.00000000000E+00  0.19096348559E+04  0.19096348559E+04  0.00000000000E+00 0.  1.
         -2   -1    0    0    0  501 -0.00000000000E+00 -0.00000000000E+00 -0.84609579472E+03  0.84609579472E+03  0.00000000000E+00 0. -1.
    2000013    1    1    2    0    0 -0.48894686926E+02 -0.66618274321E+03 -0.28391836830E+02  0.11616781973E+04  0.95000000000E+03 0.  0.
   -2000013    1    1    2    0    0  0.48894686926E+02  0.66618274321E+03  0.10919308980E+04  0.15940524533E+04  0.95000000000E+03 0.  0.
<mgrwt>
<rscale>  0 0.25422305E+04</rscale>
<asrwt>0</asrwt>
<pdfrwt beam="1">  1        2 0.29378998E+00 0.25422305E+04</pdfrwt>
<pdfrwt beam="2">  1       -2 0.13016858E+00 0.25422305E+04</pdfrwt>
<totfact> 0.28858873E+00</totfact>
</mgrwt>
</event>
<event>
 4    1  0.2069825E-008  0.2311129E+04  0.7816531E-02  0.8473546E-01
         -2   -1    0    0    0  501 -0.00000000000E+00  0.00000000000E+00  0.63812024710E+03  0.63812024710E+03  0.00000000000E+00 0. -1.
          2   -1    0    0  501    0  0.00000000000E+00 -0.00000000000E+00 -0.20925980967E+04  0.20925980967E+04  0.00000000000E+00 0.  1.
    2000013    1    1    2    0    0 -0.63146519512E+03 -0.14460061344E+03 -0.86284268980E+03  0.14375865669E+04  0.95000000000E+03 0.  0.
   -2000013    1    1    2    0    0  0.63146519512E+03  0.14460061344E+03 -0.59163515980E+03  0.12931317769E+04  0.95000000000E+03 0.  0.
<mgrwt>
<rscale>  0 0.23111289E+04</rscale>
<asrwt>0</asrwt>
<pdfrwt beam="2">  1        2 0.32193817E+00 0.23111289E+04</pdfrwt>
<pdfrwt beam="1">  1       -2 0.98172347E-01 0.23111289E+04</pdfrwt>
<totfact> 0.46356822E+00</totfact>
</mgrwt>
</event>
<event>
 4    1  0.2069825E-008  0.2256283E+04  0.7816531E-02  0.8495360E-01
         -2   -1    0    0    0  501 -0.00000000000E+00  0.00000000000E+00  0.49288327107E+03  0.49288327107E+03  0.00000000000E+00 0. -1.
          2   -1    0    0  501    0  0.00000000000E+00 -0.00000000000E+00 -0.25821603622E+04  0.25821603622E+04  0.00000000000E+00 0.  1.
    2000013    1    1    2    0    0  0.32712014475E+03 -0.46914583102E+03 -0.13275740444E+04  0.17297567006E+04  0.95000000000E+03 0.  0.
   -2000013    1    1    2    0    0 -0.32712014475E+03  0.46914583102E+03 -0.76170304676E+03  0.13452869327E+04  0.95000000000E+03 0.  0.
<mgrwt>
<rscale>  0 0.22562834E+04</rscale>
<asrwt>0</asrwt>
<pdfrwt beam="2">  1        2 0.39725544E+00 0.22562834E+04</pdfrwt>
<pdfrwt beam="1">  1       -2 0.75828195E-01 0.22562834E+04</pdfrwt>
<totfact> 0.44205803E+00</totfact>
</mgrwt>
</event>
<event>
 4    1  0.2069825E-008  0.2530441E+04  0.7816531E-02  0.8392220E-01
          1   -1    0    0  501    0  0.00000000000E+00  0.00000000000E+00  0.73869181553E+03  0.73869181553E+03  0.00000000000E+00 0.  1.
         -1   -1    0    0    0  501 -0.00000000000E+00 -0.00000000000E+00 -0.21670512491E+04  0.21670512491E+04  0.00000000000E+00 0. -1.
    2000013    1    1    2    0    0 -0.63621887076E+03 -0.52153950480E+03 -0.54578368080E+03  0.13700940598E+04  0.95000000000E+03 0.  0.
   -2000013    1    1    2    0    0  0.63621887076E+03  0.52153950480E+03 -0.88257575281E+03  0.15356490048E+04  0.95000000000E+03 0.  0.
<mgrwt>
<rscale>  0 0.25304411E+04</rscale>
<asrwt>0</asrwt>
<pdfrwt beam="1">  1        1 0.11364489E+00 0.25304411E+04</pdfrwt>
<pdfrwt beam="2">  1       -1 0.33339250E+00 0.25304411E+04</pdfrwt>
<totfact> 0.44451410E-01</totfact>
</mgrwt>
</event>
<event>
 4    1  0.2069825E-008  0.2264071E+04  0.7816531E-02  0.8492224E-01
         -2   -1    0    0    0  501 -0.00000000000E+00  0.00000000000E+00  0.55426803129E+03  0.55426803129E+03  0.00000000000E+00 0. -1.
          2   -1    0    0  501    0  0.00000000000E+00 -0.00000000000E+00 -0.23120656231E+04  0.23120656231E+04  0.00000000000E+00 0.  1.
    2000013    1    1    2    0    0 -0.59048751360E+03  0.92070729288E+02 -0.10660435946E+04  0.15479345814E+04  0.95000000000E+03 0.  0.
   -2000013    1    1    2    0    0  0.59048751360E+03 -0.92070729288E+02 -0.69175399729E+03  0.13183990730E+04  0.95000000000E+03 0.  0.
<mgrwt>
<rscale>  0 0.22640707E+04</rscale>
<asrwt>0</asrwt>
<pdfrwt beam="2">  1        2 0.35570242E+00 0.22640707E+04</pdfrwt>
<pdfrwt beam="1">  1       -2 0.85272002E-01 0.22640707E+04</pdfrwt>
<totfact> 0.48531667E+00</totfact>
</mgrwt>
</event>
<event>
 4    1  0.2069825E-008  0.2567092E+04  0.7816531E-02  0.8379466E-01
         -1   -1    0    0    0  501 -0.00000000000E+00  0.00000000000E+00  0.66939465936E+03  0.66939465936E+03  0.00000000000E+00 0. -1.
          1   -1    0    0  501    0  0.00000000000E+00 -0.00000000000E+00 -0.24611648039E+04  0.24611648039E+04  0.00000000000E+00 0.  1.
    2000013    1    1    2    0    0  0.40463429919E+03  0.73224943819E+03 -0.11547873845E+04  0.17134620099E+04  0.95000000000E+03 0.  0.
   -2000013    1    1    2    0    0 -0.40463429919E+03 -0.73224943819E+03 -0.63698275998E+03  0.14170974534E+04  0.95000000000E+03 0.  0.
<mgrwt>
<rscale>  0 0.25670922E+04</rscale>
<asrwt>0</asrwt>
<pdfrwt beam="2">  1        1 0.37864073E+00 0.25670922E+04</pdfrwt>
<pdfrwt beam="1">  1       -1 0.10298380E+00 0.25670922E+04</pdfrwt>
<totfact> 0.11334590E+00</totfact>
</mgrwt>
</event>
<event>
 4    1  0.2069825E-008  0.2548034E+04  0.7816531E-02  0.8386070E-01
          2   -1    0    0  501    0  0.00000000000E+00  0.00000000000E+00  0.12040941835E+04  0.12040941835E+04  0.00000000000E+00 0.  1.
         -2   -1    0    0    0  501 -0.00000000000E+00 -0.00000000000E+00 -0.13480007230E+04  0.13480007230E+04  0.00000000000E+00 0. -1.
    2000013    1    1    2    0    0  0.79532262594E+03  0.21118282853E+03  0.13690616440E+03  0.12642703683E+04  0.95000000000E+03 0.  0.
   -2000013    1    1    2    0    0 -0.79532262594E+03 -0.21118282853E+03 -0.28081270390E+03  0.12878245382E+04  0.95000000000E+03 0.  0.
<mgrwt>
<rscale>  0 0.25480344E+04</rscale>
<asrwt>0</asrwt>
<pdfrwt beam="1">  1        2 0.18524526E+00 0.25480344E+04</pdfrwt>
<pdfrwt beam="2">  1       -2 0.20738473E+00 0.25480344E+04</pdfrwt>
<totfact> 0.19917665E+00</totfact>
</mgrwt>
</event>
<event>
 4    1  0.2069825E-008  0.3174565E+04  0.7816531E-02  0.8195567E-01
         -2   -1    0    0    0  501 -0.00000000000E+00  0.00000000000E+00  0.12310816429E+04  0.12310816429E+04  0.00000000000E+00 0. -1.
          2   -1    0    0  501    0  0.00000000000E+00 -0.00000000000E+00 -0.20465462808E+04  0.20465462808E+04  0.00000000000E+00 0.  1.
    2000013    1    1    2    0    0 -0.68878908211E+03  0.35462883014E+03 -0.14488206113E+04  0.18978338101E+04  0.95000000000E+03 0.  0.
   -2000013    1    1    2    0    0  0.68878908211E+03 -0.35462883014E+03  0.63335597352E+03  0.13797941136E+04  0.95000000000E+03 0.  0.
<mgrwt>
<rscale>  0 0.31745649E+04</rscale>
<asrwt>0</asrwt>
<pdfrwt beam="2">  1        2 0.31485327E+00 0.31745649E+04</pdfrwt>
<pdfrwt beam="1">  1       -2 0.18939718E+00 0.31745649E+04</pdfrwt>
<totfact> 0.83097960E-01</totfact>
</mgrwt>
</event>
<event>
 4    1  0.2069825E-008  0.2708643E+04  0.7816531E-02  0.8332206E-01
         -2   -1    0    0    0  501 -0.00000000000E+00  0.00000000000E+00  0.68377028242E+03  0.68377028242E+03  0.00000000000E+00 0. -1.
          2   -1    0    0  501    0  0.00000000000E+00 -0.00000000000E+00 -0.26824598753E+04  0.26824598753E+04  0.00000000000E+00 0.  1.
    2000013    1    1    2    0    0  0.34806228665E+03 -0.78594703315E+03 -0.45361814619E+03  0.13590914306E+04  0.95000000000E+03 0.  0.
   -2000013    1    1    2    0    0 -0.34806228665E+03  0.78594703315E+03 -0.15450714466E+04  0.20071387270E+04  0.95000000000E+03 0.  0.
<mgrwt>
<rscale>  0 0.27086427E+04</rscale>
<asrwt>0</asrwt>
<pdfrwt beam="2">  1        2 0.41268612E+00 0.27086427E+04</pdfrwt>
<pdfrwt beam="1">  1       -2 0.10519543E+00 0.27086427E+04</pdfrwt>
<totfact> 0.17445944E+00</totfact>
</mgrwt>
</event>
<event>
 4    1  0.2069825E-008  0.2187081E+04  0.7816531E-02  0.8523825E-01
         -2   -1    0    0    0  501 -0.00000000000E+00  0.00000000000E+00  0.94539594230E+03  0.94539594230E+03  0.00000000000E+00 0. -1.
          2   -1    0    0  501    0  0.00000000000E+00 -0.00000000000E+00 -0.12648992234E+04  0.12648992234E+04  0.00000000000E+00 0.  1.
    2000013    1    1    2    0    0  0.19074602951E+03 -0.43846410206E+03 -0.41680507662E+03  0.11423052519E+04  0.95000000000E+03 0.  0.
   -2000013    1    1    2    0    0 -0.19074602951E+03  0.43846410206E+03  0.97301795534E+02  0.10679899138E+04  0.95000000000E+03 0.  0.
<mgrwt>
<rscale>  0 0.21870808E+04</rscale>
<asrwt>0</asrwt>
<pdfrwt beam="2">  1        2 0.19459988E+00 0.21870808E+04</pdfrwt>
<pdfrwt beam="1">  1       -2 0.14544553E+00 0.21870808E+04</pdfrwt>
<totfact> 0.51560011E+00</totfact>
</mgrwt>
</event>
<event>
 4    1  0.2069825E-008  0.2265468E+04  0.7816531E-02  0.8491662E-01
         -2   -1    0    0    0  501 -0.00000000000E+00  0.00000000000E+00  0.12140564298E+04  0.12140564298E+04  0.00000000000E+00 0. -1.
          2   -1    0    0  501    0  0.00000000000E+00 -0.00000000000E+00 -0.10568590481E+04  0.10568590481E+04  0.00000000000E+00 0.  1.
    2000013    1    1    2    0    0  0.38392241358E+03  0.35627439057E+03 -0.24815851512E+03  0.11128389415E+04  0.95000000000E+03 0.  0.
   -2000013    1    1    2    0    0 -0.38392241358E+03 -0.35627439057E+03  0.40535589688E+03  0.11580765364E+04  0.95000000000E+03 0.  0.
<mgrwt>
<rscale>  0 0.22654682E+04</rscale>
<asrwt>0</asrwt>
<pdfrwt beam="2">  1        2 0.16259370E+00 0.22654682E+04</pdfrwt>
<pdfrwt beam="1">  1       -2 0.18677791E+00 0.22654682E+04</pdfrwt>
<totfact> 0.34332613E+00</totfact>
</mgrwt>
</event>
<event>
 4    1  0.2069825E-008  0.3505564E+04  0.7816531E-02  0.8112473E-01
         -2   -1    0    0    0  501 -0.00000000000E+00  0.00000000000E+00  0.14152056743E+04  0.14152056743E+04  0.00000000000E+00 0. -1.
          2   -1    0    0  501    0  0.00000000000E+00 -0.00000000000E+00 -0.21708820308E+04  0.21708820308E+04  0.00000000000E+00 0.  1.
    2000013    1    1    2    0    0 -0.71709458966E+03  0.98970575530E+03  0.46324151786E+03  0.16158077969E+04  0.95000000000E+03 0.  0.
   -2000013    1    1    2    0    0  0.71709458966E+03 -0.98970575530E+03 -0.12189178743E+04  0.19702799083E+04  0.95000000000E+03 0.  0.
<mgrwt>
<rscale>  0 0.35055639E+04</rscale>
<asrwt>0</asrwt>
<pdfrwt beam="2">  1        2 0.33398185E+00 0.35055639E+04</pdfrwt>
<pdfrwt beam="1">  1       -2 0.21772395E+00 0.35055639E+04</pdfrwt>
<totfact> 0.45004311E-01</totfact>
</mgrwt>
</event>
<event>
 4    1  0.2069825E-008  0.2169277E+04  0.7816531E-02  0.8531326E-01
         -1   -1    0    0    0  501 -0.00000000000E+00  0.00000000000E+00  0.48694704459E+03  0.48694704459E+03  0.00000000000E+00 0.  1.
          1   -1    0    0  501    0  0.00000000000E+00 -0.00000000000E+00 -0.24159520239E+04  0.24159520239E+04  0.00000000000E+00 0. -1.
    2000013    1    1    2    0    0  0.18048400303E+03  0.48285002499E+03 -0.10858435154E+04  0.15320818392E+04  0.95000000000E+03 0.  0.
   -2000013    1    1    2    0    0 -0.18048400303E+03 -0.48285002499E+03 -0.84316146391E+03  0.13708172293E+04  0.95000000000E+03 0.  0.
<mgrwt>
<rscale>  0 0.21692770E+04</rscale>
<asrwt>0</asrwt>
<pdfrwt beam="2">  1        1 0.37168493E+00 0.21692770E+04</pdfrwt>
<pdfrwt beam="1">  1       -1 0.74914929E-01 0.21692770E+04</pdfrwt>
<totfact> 0.25377043E+00</totfact>
</mgrwt>
</event>
<event>
 4    1  0.2069825E-008  0.2184717E+04  0.7816531E-02  0.8524816E-01
          2   -1    0    0  501    0  0.00000000000E+00  0.00000000000E+00  0.31996592069E+04  0.31996592069E+04  0.00000000000E+00 0. -1.
         -2   -1    0    0    0  501 -0.00000000000E+00 -0.00000000000E+00 -0.37292955286E+03  0.37292955286E+03  0.00000000000E+00 0.  1.
    2000013    1    1    2    0    0 -0.22594752394E+03 -0.48531641746E+03  0.15188763214E+04  0.18697779516E+04  0.95000000000E+03 0.  0.
   -2000013    1    1    2    0    0  0.22594752394E+03  0.48531641746E+03  0.13078533326E+04  0.17028108081E+04  0.95000000000E+03 0.  0.
<mgrwt>
<rscale>  0 0.21847174E+04</rscale>
<asrwt>0</asrwt>
<pdfrwt beam="1">  1        2 0.49225525E+00 0.21847174E+04</pdfrwt>
<pdfrwt beam="2">  1       -2 0.57373779E-01 0.21847174E+04</pdfrwt>
<totfact> 0.33866104E+00</totfact>
</mgrwt>
</event>
<event>
 4    1  0.2069825E-008  0.2195454E+04  0.7816531E-02  0.8520322E-01
         -2   -1    0    0    0  501 -0.00000000000E+00  0.00000000000E+00  0.30737223434E+03  0.30737223434E+03  0.00000000000E+00 0. -1.
          2   -1    0    0  501    0  0.00000000000E+00 -0.00000000000E+00 -0.39203446166E+04  0.39203446166E+04  0.00000000000E+00 0.  1.
    2000013    1    1    2    0    0 -0.13957040613E+02 -0.54376903411E+03 -0.16497419718E+04  0.19799060924E+04  0.95000000000E+03 0.  0.
   -2000013    1    1    2    0    0  0.13957040613E+02  0.54376903411E+03 -0.19632304105E+04  0.22478107585E+04  0.95000000000E+03 0.  0.
<mgrwt>
<rscale>  0 0.21954545E+04</rscale>
<asrwt>0</asrwt>
<pdfrwt beam="2">  1        2 0.60312995E+00 0.21954545E+04</pdfrwt>
<pdfrwt beam="1">  1       -2 0.47288036E-01 0.21954545E+04</pdfrwt>
<totfact> 0.15455469E+00</totfact>
</mgrwt>
</event>
<event>
 4    1  0.2069825E-008  0.2725646E+04  0.7816531E-02  0.8326732E-01
         -2   -1    0    0    0  501 -0.00000000000E+00  0.00000000000E+00  0.22084970230E+04  0.22084970230E+04  0.00000000000E+00 0. -1.
          2   -1    0    0  501    0  0.00000000000E+00 -0.00000000000E+00 -0.84097279687E+03  0.84097279687E+03  0.00000000000E+00 0.  1.
    2000013    1    1    2    0    0 -0.89408625229E+03  0.36596791570E+03  0.84767079543E+03  0.15982391934E+04  0.95000000000E+03 0.  0.
   -2000013    1    1    2    0    0  0.89408625229E+03 -0.36596791570E+03  0.51985343072E+03  0.14512306265E+04  0.95000000000E+03 0.  0.
<mgrwt>
<rscale>  0 0.27256456E+04</rscale>
<asrwt>0</asrwt>
<pdfrwt beam="2">  1        2 0.12938043E+00 0.27256456E+04</pdfrwt>
<pdfrwt beam="1">  1       -2 0.33976877E+00 0.27256456E+04</pdfrwt>
<totfact> 0.50867670E-01</totfact>
</mgrwt>
</event>
<event>
 4    1  0.2069825E-008  0.3314031E+04  0.7816531E-02  0.8159334E-01
         -2   -1    0    0    0  501 -0.00000000000E+00  0.00000000000E+00  0.81238319115E+03  0.81238319115E+03  0.00000000000E+00 0. -1.
          2   -1    0    0  501    0  0.00000000000E+00 -0.00000000000E+00 -0.33798097730E+04  0.33798097730E+04  0.00000000000E+00 0.  1.
    2000013    1    1    2    0    0  0.77416565767E+03  0.82114493874E+03 -0.32901633321E+03  0.15114110041E+04  0.95000000000E+03 0.  0.
   -2000013    1    1    2    0    0 -0.77416565767E+03 -0.82114493874E+03 -0.22384102487E+04  0.26807819600E+04  0.95000000000E+03 0.  0.
<mgrwt>
<rscale>  0 0.33140312E+04</rscale>
<asrwt>0</asrwt>
<pdfrwt beam="2">  1        2 0.51997073E+00 0.33140312E+04</pdfrwt>
<pdfrwt beam="1">  1       -2 0.12498203E+00 0.33140312E+04</pdfrwt>
<totfact> 0.39329761E-01</totfact>
</mgrwt>
</event>
<event>
 4    1  0.2069825E-008  0.2296991E+04  0.7816531E-02  0.8479109E-01
          2   -1    0    0  501    0  0.00000000000E+00  0.00000000000E+00  0.23235441246E+04  0.23235441246E+04  0.00000000000E+00 0.  1.
         -2   -1    0    0    0  501 -0.00000000000E+00 -0.00000000000E+00 -0.56768522831E+03  0.56768522831E+03  0.00000000000E+00 0. -1.
    2000013    1    1    2    0    0 -0.26462264937E+03  0.50231599226E+03  0.49161796602E+03  0.12110056677E+04  0.95000000000E+03 0.  0.
   -2000013    1    1    2    0    0  0.26462264937E+03 -0.50231599226E+03  0.12642409302E+04  0.16802236852E+04  0.95000000000E+03 0.  0.
<mgrwt>
<rscale>  0 0.22969908E+04</rscale>
<asrwt>0</asrwt>
<pdfrwt beam="1">  1        2 0.35746832E+00 0.22969908E+04</pdfrwt>
<pdfrwt beam="2">  1       -2 0.87336190E-01 0.22969908E+04</pdfrwt>
<totfact> 0.45140585E+00</totfact>
</mgrwt>
</event>
<event>
 4    1  0.2069825E-008  0.3230471E+04  0.7816531E-02  0.8180816E-01
         -2   -1    0    0    0  501 -0.00000000000E+00  0.00000000000E+00  0.29775831515E+04  0.29775831515E+04  0.00000000000E+00 0. -1.
          2   -1    0    0  501    0  0.00000000000E+00 -0.00000000000E+00 -0.87620934958E+03  0.87620934958E+03  0.00000000000E+00 0.  1.
    2000013    1    1    2    0    0 -0.54019649499E+03  0.10252254485E+04  0.33135975676E+03  0.15346656840E+04  0.95000000000E+03 0.  0.
   -2000013    1    1    2    0    0  0.54019649499E+03 -0.10252254485E+04  0.17700140451E+04  0.23191268170E+04  0.95000000000E+03 0.  0.
<mgrwt>
<rscale>  0 0.32304713E+04</rscale>
<asrwt>0</asrwt>
<pdfrwt beam="2">  1        2 0.13480144E+00 0.32304713E+04</pdfrwt>
<pdfrwt beam="1">  1       -2 0.45808971E+00 0.32304713E+04</pdfrwt>
<totfact> 0.78348552E-02</totfact>
</mgrwt>
</event>
<event>
 4    1  0.2069825E-008  0.2662703E+04  0.7816531E-02  0.8347209E-01
          2   -1    0    0  501    0  0.00000000000E+00  0.00000000000E+00  0.36671305296E+04  0.36671305296E+04  0.00000000000E+00 0.  1.
         -2   -1    0    0    0  501 -0.00000000000E+00 -0.00000000000E+00 -0.48334697641E+03  0.48334697641E+03  0.00000000000E+00 0. -1.
    2000013    1    1    2    0    0  0.22796012891E+03  0.74790166691E+03  0.79911386011E+03  0.14671079324E+04  0.95000000000E+03 0.  0.
   -2000013    1    1    2    0    0 -0.22796012891E+03 -0.74790166691E+03  0.23846696931E+04  0.26833695736E+04  0.95000000000E+03 0.  0.
<mgrwt>
<rscale>  0 0.26627027E+04</rscale>
<asrwt>0</asrwt>
<pdfrwt beam="1">  1        2 0.56417391E+00 0.26627027E+04</pdfrwt>
<pdfrwt beam="2">  1       -2 0.74361076E-01 0.26627027E+04</pdfrwt>
<totfact> 0.88445578E-01</totfact>
</mgrwt>
</event>
<event>
 4    1  0.2069825E-008  0.2279121E+04  0.7816531E-02  0.8486199E-01
         -2   -1    0    0    0  501 -0.00000000000E+00  0.00000000000E+00  0.49965744762E+03  0.49965744762E+03  0.00000000000E+00 0. -1.
          2   -1    0    0  501    0  0.00000000000E+00 -0.00000000000E+00 -0.25989770807E+04  0.25989770807E+04  0.00000000000E+00 0.  1.
    2000013    1    1    2    0    0 -0.24049697671E+03  0.46894230206E+03 -0.58193349519E+03  0.12324334754E+04  0.95000000000E+03 0.  0.
   -2000013    1    1    2    0    0  0.24049697671E+03 -0.46894230206E+03 -0.15173861379E+04  0.18662010529E+04  0.95000000000E+03 0.  0.
<mgrwt>
<rscale>  0 0.22791211E+04</rscale>
<asrwt>0</asrwt>
<pdfrwt beam="2">  1        2 0.39984263E+00 0.22791211E+04</pdfrwt>
<pdfrwt beam="1">  1       -2 0.76870376E-01 0.22791211E+04</pdfrwt>
<totfact> 0.41839482E+00</totfact>
</mgrwt>
</event>
<event>
 4    1  0.2069825E-008  0.3480645E+04  0.7816531E-02  0.8118392E-01
         -1   -1    0    0    0  501 -0.00000000000E+00  0.00000000000E+00  0.95965691559E+03  0.95965691559E+03  0.00000000000E+00 0. -1.
          1   -1    0    0  501    0  0.00000000000E+00 -0.00000000000E+00 -0.31560474114E+04  0.31560474114E+04  0.00000000000E+00 0.  1.
    2000013    1    1    2    0    0 -0.41221395168E+03 -0.13397037530E+04 -0.15733834139E+04  0.23114415102E+04  0.95000000000E+03 0.  0.
   -2000013    1    1    2    0    0  0.41221395168E+03  0.13397037530E+04 -0.62300708184E+03  0.18042628167E+04  0.95000000000E+03 0.  0.
<mgrwt>
<rscale>  0 0.34806452E+04</rscale>
<asrwt>0</asrwt>
<pdfrwt beam="2">  1        1 0.48554575E+00 0.34806452E+04</pdfrwt>
<pdfrwt beam="1">  1       -1 0.14763953E+00 0.34806452E+04</pdfrwt>
<totfact> 0.13629250E-01</totfact>
</mgrwt>
</event>
<event>
 4    1  0.2069825E-008  0.2395374E+04  0.7816531E-02  0.8441237E-01
         -2   -1    0    0    0  501 -0.00000000000E+00  0.00000000000E+00  0.74423686548E+03  0.74423686548E+03  0.00000000000E+00 0. -1.
          2   -1    0    0  501    0  0.00000000000E+00 -0.00000000000E+00 -0.19274161736E+04  0.19274161736E+04  0.00000000000E+00 0.  1.
    2000013    1    1    2    0    0 -0.70690469473E+03  0.51881197048E+02 -0.39986731524E+03  0.12509195721E+04  0.95000000000E+03 0.  0.
   -2000013    1    1    2    0    0  0.70690469473E+03 -0.51881197048E+02 -0.78331199288E+03  0.14207334670E+04  0.95000000000E+03 0.  0.
<mgrwt>
<rscale>  0 0.23953740E+04</rscale>
<asrwt>0</asrwt>
<pdfrwt beam="2">  1        2 0.29652556E+00 0.23953740E+04</pdfrwt>
<pdfrwt beam="1">  1       -2 0.11449798E+00 0.23953740E+04</pdfrwt>
<totfact> 0.39308732E+00</totfact>
</mgrwt>
</event>
<event>
 4    1  0.2069825E-008  0.2820336E+04  0.7816531E-02  0.8296983E-01
          1   -1    0    0  501    0  0.00000000000E+00  0.00000000000E+00  0.18997108272E+04  0.18997108272E+04  0.00000000000E+00 0.  1.
         -1   -1    0    0    0  501 -0.00000000000E+00 -0.00000000000E+00 -0.10467769954E+04  0.10467769954E+04  0.00000000000E+00 0. -1.
    2000013    1    1    2    0    0 -0.46269691397E+03  0.71510091835E+03 -0.20090665172E+03  0.12916351034E+04  0.95000000000E+03 0.  0.
   -2000013    1    1    2    0    0  0.46269691397E+03 -0.71510091835E+03  0.10538404835E+04  0.16548527192E+04  0.95000000000E+03 0.  0.
<mgrwt>
<rscale>  0 0.28203359E+04</rscale>
<asrwt>0</asrwt>
<pdfrwt beam="1">  1        1 0.29226320E+00 0.28203359E+04</pdfrwt>
<pdfrwt beam="2">  1       -1 0.16104261E+00 0.28203359E+04</pdfrwt>
<totfact> 0.86445867E-01</totfact>
</mgrwt>
</event>
<event>
 4    1  0.2069825E-008  0.2437921E+04  0.7816531E-02  0.8425441E-01
          2   -1    0    0  501    0  0.00000000000E+00  0.00000000000E+00  0.11342713582E+04  0.11342713582E+04  0.00000000000E+00 0.  1.
         -2   -1    0    0    0  501 -0.00000000000E+00 -0.00000000000E+00 -0.13099729914E+04  0.13099729914E+04  0.00000000000E+00 0. -1.
    2000013    1    1    2    0    0 -0.39991466254E+03 -0.59458887395E+03  0.17721565129E+03  0.12030681832E+04  0.95000000000E+03 0.  0.
   -2000013    1    1    2    0    0  0.39991466254E+03  0.59458887395E+03 -0.35291728450E+03  0.12411761664E+04  0.95000000000E+03 0.  0.
<mgrwt>
<rscale>  0 0.24379211E+04</rscale>
<asrwt>0</asrwt>
<pdfrwt beam="1">  1        2 0.17450329E+00 0.24379211E+04</pdfrwt>
<pdfrwt beam="2">  1       -2 0.20153431E+00 0.24379211E+04</pdfrwt>
<totfact> 0.24176675E+00</totfact>
</mgrwt>
</event>
<event>
 4    1  0.2069825E-008  0.3070533E+04  0.7816531E-02  0.8223872E-01
          2   -1    0    0  501    0  0.00000000000E+00  0.00000000000E+00  0.36223388856E+04  0.36223388856E+04  0.00000000000E+00 0.  1.
         -2   -1    0    0    0  501 -0.00000000000E+00 -0.00000000000E+00 -0.65069646789E+03  0.65069646789E+03  0.00000000000E+00 0. -1.
    2000013    1    1    2    0    0 -0.13198122569E+03 -0.11610622937E+04  0.10705228347E+04  0.18477023119E+04  0.95000000000E+03 0.  0.
   -2000013    1    1    2    0    0  0.13198122569E+03  0.11610622937E+04  0.19011195830E+04  0.24253330415E+04  0.95000000000E+03 0.  0.
<mgrwt>
<rscale>  0 0.30705329E+04</rscale>
<asrwt>0</asrwt>
<pdfrwt beam="1">  1        2 0.55728290E+00 0.30705329E+04</pdfrwt>
<pdfrwt beam="2">  1       -2 0.10010715E+00 0.30705329E+04</pdfrwt>
<totfact> 0.46601015E-01</totfact>
</mgrwt>
</event>
<event>
 4    1  0.2069825E-008  0.2481738E+04  0.7816531E-02  0.8409521E-01
          2   -1    0    0  501    0  0.00000000000E+00  0.00000000000E+00  0.15512000970E+04  0.15512000970E+04  0.00000000000E+00 0.  1.
         -2   -1    0    0    0  501 -0.00000000000E+00 -0.00000000000E+00 -0.99262223067E+03  0.99262223067E+03  0.00000000000E+00 0. -1.
    2000013    1    1    2    0    0  0.24316408474E+03  0.35507432415E+03 -0.40987683725E+03  0.11205826919E+04  0.95000000000E+03 0.  0.
   -2000013    1    1    2    0    0 -0.24316408474E+03 -0.35507432415E+03  0.96845470354E+03  0.14232396357E+04  0.95000000000E+03 0.  0.
<mgrwt>
<rscale>  0 0.24817379E+04</rscale>
<asrwt>0</asrwt>
<pdfrwt beam="1">  1        2 0.23864617E+00 0.24817379E+04</pdfrwt>
<pdfrwt beam="2">  1       -2 0.15271111E+00 0.24817379E+04</pdfrwt>
<totfact> 0.30312867E+00</totfact>
</mgrwt>
</event>
<event>
 4    1  0.2069825E-008  0.2999269E+04  0.7816531E-02  0.8243940E-01
         -2   -1    0    0    0  501 -0.00000000000E+00  0.00000000000E+00  0.69157803396E+03  0.69157803396E+03  0.00000000000E+00 0. -1.
          2   -1    0    0  501    0  0.00000000000E+00 -0.00000000000E+00 -0.32518433612E+04  0.32518433612E+04  0.00000000000E+00 0.  1.
    2000013    1    1    2    0    0 -0.34882957419E+03 -0.85572916635E+03 -0.22027856697E+04  0.25707429246E+04  0.95000000000E+03 0.  0.
   -2000013    1    1    2    0    0  0.34882957419E+03  0.85572916635E+03 -0.35747965758E+03  0.13726784706E+04  0.95000000000E+03 0.  0.
<mgrwt>
<rscale>  0 0.29992689E+04</rscale>
<asrwt>0</asrwt>
<pdfrwt beam="2">  1        2 0.50028360E+00 0.29992689E+04</pdfrwt>
<pdfrwt beam="1">  1       -2 0.10639662E+00 0.29992689E+04</pdfrwt>
<totfact> 0.73034105E-01</totfact>
</mgrwt>
</event>
<event>
 4    1  0.2069825E-008  0.2912761E+04  0.7816531E-02  0.8269091E-01
         -2   -1    0    0    0  501 -0.00000000000E+00  0.00000000000E+00  0.91626160522E+03  0.91626160522E+03  0.00000000000E+00 0. -1.
          2   -1    0    0  501    0  0.00000000000E+00 -0.00000000000E+00 -0.23148890387E+04  0.23148890387E+04  0.00000000000E+00 0.  1.
    2000013    1    1    2    0    0  0.10086481794E+04  0.23326091745E+03 -0.11242848165E+04  0.17995272029E+04  0.95000000000E+03 0.  0.
   -2000013    1    1    2    0    0 -0.10086481794E+04 -0.23326091745E+03 -0.27434261703E+03  0.14316234410E+04  0.95000000000E+03 0.  0.
<mgrwt>
<rscale>  0 0.29127609E+04</rscale>
<asrwt>0</asrwt>
<pdfrwt beam="2">  1        2 0.35613678E+00 0.29127609E+04</pdfrwt>
<pdfrwt beam="1">  1       -2 0.14096332E+00 0.29127609E+04</pdfrwt>
<totfact> 0.13522730E+00</totfact>
</mgrwt>
</event>
<event>
 4    1  0.2069825E-008  0.2514409E+04  0.7816531E-02  0.8397870E-01
         -2   -1    0    0    0  501 -0.00000000000E+00  0.00000000000E+00  0.12685024145E+04  0.12685024145E+04  0.00000000000E+00 0. -1.
          2   -1    0    0  501    0  0.00000000000E+00 -0.00000000000E+00 -0.12460070666E+04  0.12460070666E+04  0.00000000000E+00 0.  1.
    2000013    1    1    2    0    0  0.60573952527E+03 -0.55763843088E+03 -0.22428774377E+01  0.12571340512E+04  0.95000000000E+03 0.  0.
   -2000013    1    1    2    0    0 -0.60573952527E+03  0.55763843088E+03  0.24738225401E+02  0.12573754300E+04  0.95000000000E+03 0.  0.
<mgrwt>
<rscale>  0 0.25144089E+04</rscale>
<asrwt>0</asrwt>
<pdfrwt beam="2">  1        2 0.19169339E+00 0.25144089E+04</pdfrwt>
<pdfrwt beam="1">  1       -2 0.19515422E+00 0.25144089E+04</pdfrwt>
<totfact> 0.22683376E+00</totfact>
</mgrwt>
</event>
<event>
 4    1  0.2069825E-008  0.2851521E+04  0.7816531E-02  0.8287449E-01
          2   -1    0    0  501    0  0.00000000000E+00  0.00000000000E+00  0.11399178491E+04  0.11399178491E+04  0.00000000000E+00 0.  1.
         -2   -1    0    0    0  501 -0.00000000000E+00 -0.00000000000E+00 -0.17832798372E+04  0.17832798372E+04  0.00000000000E+00 0. -1.
    2000013    1    1    2    0    0 -0.32263034170E+03 -0.96446255293E+03 -0.63933132627E+03  0.15315100059E+04  0.95000000000E+03 0.  0.
   -2000013    1    1    2    0    0  0.32263034170E+03  0.96446255293E+03 -0.40306618425E+01  0.13916876803E+04  0.95000000000E+03 0.  0.
<mgrwt>
<rscale>  0 0.28515207E+04</rscale>
<asrwt>0</asrwt>
<pdfrwt beam="1">  1        2 0.17537198E+00 0.28515207E+04</pdfrwt>
<pdfrwt beam="2">  1       -2 0.27435074E+00 0.28515207E+04</pdfrwt>
<totfact> 0.81342453E-01</totfact>
</mgrwt>
</event>
<event>
 4    1  0.2069825E-008  0.2400218E+04  0.7816531E-02  0.8439422E-01
         -2   -1    0    0    0  501 -0.00000000000E+00  0.00000000000E+00  0.95439239922E+03  0.95439239922E+03  0.00000000000E+00 0. -1.
          2   -1    0    0  501    0  0.00000000000E+00 -0.00000000000E+00 -0.15090868977E+04  0.15090868977E+04  0.00000000000E+00 0.  1.
    2000013    1    1    2    0    0 -0.28115441193E+03  0.59366426270E+03 -0.61193953256E+03  0.13070788238E+04  0.95000000000E+03 0.  0.
   -2000013    1    1    2    0    0  0.28115441193E+03 -0.59366426270E+03  0.57245034116E+02  0.11564004731E+04  0.95000000000E+03 0.  0.
<mgrwt>
<rscale>  0 0.24002175E+04</rscale>
<asrwt>0</asrwt>
<pdfrwt beam="2">  1        2 0.23216721E+00 0.24002175E+04</pdfrwt>
<pdfrwt beam="1">  1       -2 0.14682960E+00 0.24002175E+04</pdfrwt>
<totfact> 0.35769092E+00</totfact>
</mgrwt>
</event>
<event>
 4    1  0.2069825E-008  0.2122581E+04  0.7816531E-02  0.8551361E-01
          2   -1    0    0  501    0  0.00000000000E+00  0.00000000000E+00  0.30340086051E+04  0.30340086051E+04  0.00000000000E+00 0.  1.
         -2   -1    0    0    0  501 -0.00000000000E+00 -0.00000000000E+00 -0.37123756914E+03  0.37123756914E+03  0.00000000000E+00 0. -1.
    2000013    1    1    2    0    0 -0.23437678000E+03 -0.23787998941E+03  0.79372267581E+03  0.12821915030E+04  0.95000000000E+03 0.  0.
   -2000013    1    1    2    0    0  0.23437678000E+03  0.23787998941E+03  0.18690483601E+04  0.21230546712E+04  0.95000000000E+03 0.  0.
<mgrwt>
<rscale>  0 0.21225814E+04</rscale>
<asrwt>0</asrwt>
<pdfrwt beam="1">  1        2 0.46677054E+00 0.21225814E+04</pdfrwt>
<pdfrwt beam="2">  1       -2 0.57113474E-01 0.21225814E+04</pdfrwt>
<totfact> 0.43886474E+00</totfact>
</mgrwt>
</event>
<event>
 4    1  0.2069825E-008  0.3046476E+04  0.7816531E-02  0.8230583E-01
          2   -1    0    0  501    0  0.00000000000E+00  0.00000000000E+00  0.43057196034E+04  0.43057196034E+04  0.00000000000E+00 0.  1.
         -2   -1    0    0    0  501 -0.00000000000E+00 -0.00000000000E+00 -0.53887717964E+03  0.53887717964E+03  0.00000000000E+00 0. -1.
    2000013    1    1    2    0    0  0.98569196601E+03  0.26636943103E+03  0.90933220222E+03  0.16649103218E+04  0.95000000000E+03 0.  0.
   -2000013    1    1    2    0    0 -0.98569196601E+03 -0.26636943103E+03  0.28575102216E+04  0.31796864613E+04  0.95000000000E+03 0.  0.
<mgrwt>
<rscale>  0 0.30464760E+04</rscale>
<asrwt>0</asrwt>
<pdfrwt beam="1">  1        2 0.66241838E+00 0.30464760E+04</pdfrwt>
<pdfrwt beam="2">  1       -2 0.82904184E-01 0.30464760E+04</pdfrwt>
<totfact> 0.20362503E-01</totfact>
</mgrwt>
</event>
<event>
 4    1  0.2069825E-008  0.2667373E+04  0.7816531E-02  0.8345670E-01
          2   -1    0    0  501    0  0.00000000000E+00  0.00000000000E+00  0.19762631603E+04  0.19762631603E+04  0.00000000000E+00 0.  1.
         -2   -1    0    0    0  501 -0.00000000000E+00 -0.00000000000E+00 -0.90004189281E+03  0.90004189281E+03  0.00000000000E+00 0. -1.
    2000013    1    1    2    0    0  0.24392367954E+03 -0.90370038134E+03  0.54546344816E+03  0.14409037143E+04  0.95000000000E+03 0.  0.
   -2000013    1    1    2    0    0 -0.24392367954E+03  0.90370038134E+03  0.53075781938E+03  0.14354013388E+04  0.95000000000E+03 0.  0.
<mgrwt>
<rscale>  0 0.26673730E+04</rscale>
<asrwt>0</asrwt>
<pdfrwt beam="1">  1        2 0.30404048E+00 0.26673730E+04</pdfrwt>
<pdfrwt beam="2">  1       -2 0.13846798E+00 0.26673730E+04</pdfrwt>
<totfact> 0.22392341E+00</totfact>
</mgrwt>
</event>
<event>
 4    1  0.2069825E-008  0.2243175E+04  0.7816531E-02  0.8500670E-01
         -2   -1    0    0    0  501 -0.00000000000E+00  0.00000000000E+00  0.33654618290E+03  0.33654618290E+03  0.00000000000E+00 0. -1.
          2   -1    0    0  501    0  0.00000000000E+00 -0.00000000000E+00 -0.37378469371E+04  0.37378469371E+04  0.00000000000E+00 0.  1.
    2000013    1    1    2    0    0  0.47384618479E+03 -0.36100250251E+03 -0.17453305987E+04  0.20744955802E+04  0.95000000000E+03 0.  0.
   -2000013    1    1    2    0    0 -0.47384618479E+03  0.36100250251E+03 -0.16559701555E+04  0.19998975397E+04  0.95000000000E+03 0.  0.
<mgrwt>
<rscale>  0 0.22431746E+04</rscale>
<asrwt>0</asrwt>
<pdfrwt beam="2">  1        2 0.57505337E+00 0.22431746E+04</pdfrwt>
<pdfrwt beam="1">  1       -2 0.51776336E-01 0.22431746E+04</pdfrwt>
<totfact> 0.17635306E+00</totfact>
</mgrwt>
</event>
<event>
 4    1  0.2069825E-008  0.1942152E+04  0.7816531E-02  0.8634154E-01
          2   -1    0    0  501    0  0.00000000000E+00  0.00000000000E+00  0.40035615781E+04  0.40035615781E+04  0.00000000000E+00 0.  1.
         -2   -1    0    0    0  501 -0.00000000000E+00 -0.00000000000E+00 -0.23553751222E+03  0.23553751222E+03  0.00000000000E+00 0. -1.
    2000013    1    1    2    0    0  0.15326282894E+03 -0.13005175711E+03  0.18637730527E+04  0.21015596461E+04  0.95000000000E+03 0.  0.
   -2000013    1    1    2    0    0 -0.15326282894E+03  0.13005175711E+03  0.19042510132E+04  0.21375394442E+04  0.95000000000E+03 0.  0.
<mgrwt>
<rscale>  0 0.19421523E+04</rscale>
<asrwt>0</asrwt>
<pdfrwt beam="1">  1        2 0.61593250E+00 0.19421523E+04</pdfrwt>
<pdfrwt beam="2">  1       -2 0.36236543E-01 0.19421523E+04</pdfrwt>
<totfact> 0.23000528E+00</totfact>
</mgrwt>
</event>
<event>
 4    1  0.2069825E-008  0.2585116E+04  0.7816531E-02  0.8373275E-01
         -2   -1    0    0    0  501 -0.00000000000E+00  0.00000000000E+00  0.11844453845E+04  0.11844453845E+04  0.00000000000E+00 0. -1.
          2   -1    0    0  501    0  0.00000000000E+00 -0.00000000000E+00 -0.14105384298E+04  0.14105384298E+04  0.00000000000E+00 0.  1.
    2000013    1    1    2    0    0  0.27916963276E+02 -0.84087363690E+03  0.13356975991E+03  0.12760049807E+04  0.95000000000E+03 0.  0.
   -2000013    1    1    2    0    0 -0.27916963276E+02  0.84087363690E+03 -0.35966280522E+03  0.13189788336E+04  0.95000000000E+03 0.  0.
<mgrwt>
<rscale>  0 0.25851157E+04</rscale>
<asrwt>0</asrwt>
<pdfrwt beam="2">  1        2 0.21700591E+00 0.25851157E+04</pdfrwt>
<pdfrwt beam="1">  1       -2 0.18222237E+00 0.25851157E+04</pdfrwt>
<totfact> 0.22126435E+00</totfact>
</mgrwt>
</event>
<event>
 4    1  0.2069825E-008  0.2675861E+04  0.7816531E-02  0.8342880E-01
         -1   -1    0    0    0  501 -0.00000000000E+00  0.00000000000E+00  0.21171068639E+04  0.21171068639E+04  0.00000000000E+00 0. -1.
          1   -1    0    0  501    0  0.00000000000E+00 -0.00000000000E+00 -0.84552058803E+03  0.84552058803E+03  0.00000000000E+00 0.  1.
    2000013    1    1    2    0    0  0.91150652481E+03 -0.16312941953E+03  0.44369998922E+03  0.13988656235E+04  0.95000000000E+03 0.  0.
   -2000013    1    1    2    0    0 -0.91150652481E+03  0.16312941953E+03  0.82788628662E+03  0.15637618284E+04  0.95000000000E+03 0.  0.
<mgrwt>
<rscale>  0 0.26758606E+04</rscale>
<asrwt>0</asrwt>
<pdfrwt beam="2">  1        1 0.13008009E+00 0.26758606E+04</pdfrwt>
<pdfrwt beam="1">  1       -1 0.32570875E+00 0.26758606E+04</pdfrwt>
<totfact> 0.39702787E-01</totfact>
</mgrwt>
</event>
<event>
 4    1  0.2069825E-008  0.2496925E+04  0.7816531E-02  0.8404082E-01
          2   -1    0    0  501    0  0.00000000000E+00  0.00000000000E+00  0.16290841758E+04  0.16290841758E+04  0.00000000000E+00 0.  1.
         -2   -1    0    0    0  501 -0.00000000000E+00 -0.00000000000E+00 -0.95677018583E+03  0.95677018583E+03  0.00000000000E+00 0. -1.
    2000013    1    1    2    0    0 -0.55060569801E+03 -0.53925199033E+03  0.77875631487E+02  0.12257748397E+04  0.95000000000E+03 0.  0.
   -2000013    1    1    2    0    0  0.55060569801E+03  0.53925199033E+03  0.59443835844E+03  0.13600795218E+04  0.95000000000E+03 0.  0.
<mgrwt>
<rscale>  0 0.24969254E+04</rscale>
<asrwt>0</asrwt>
<pdfrwt beam="1">  1        2 0.25062833E+00 0.24969254E+04</pdfrwt>
<pdfrwt beam="2">  1       -2 0.14719541E+00 0.24969254E+04</pdfrwt>
<totfact> 0.30187623E+00</totfact>
</mgrwt>
</event>
<event>
 4    1  0.2069825E-008  0.2176706E+04  0.7816531E-02  0.8528186E-01
          2   -1    0    0  501    0  0.00000000000E+00  0.00000000000E+00  0.16497720608E+04  0.16497720608E+04  0.00000000000E+00 0.  1.
         -2   -1    0    0    0  501 -0.00000000000E+00 -0.00000000000E+00 -0.71798564751E+03  0.71798564751E+03  0.00000000000E+00 0. -1.
    2000013    1    1    2    0    0 -0.43102667028E+03  0.23495072514E+03  0.24556435141E+03  0.10971725864E+04  0.95000000000E+03 0.  0.
   -2000013    1    1    2    0    0  0.43102667028E+03 -0.23495072514E+03  0.68622206189E+03  0.12705851219E+04  0.95000000000E+03 0.  0.
<mgrwt>
<rscale>  0 0.21767064E+04</rscale>
<asrwt>0</asrwt>
<pdfrwt beam="1">  1        2 0.25381109E+00 0.21767064E+04</pdfrwt>
<pdfrwt beam="2">  1       -2 0.11045933E+00 0.21767064E+04</pdfrwt>
<totfact> 0.62309720E+00</totfact>
</mgrwt>
</event>
<event>
 4    1  0.2069825E-008  0.3174196E+04  0.7816531E-02  0.8195665E-01
          2   -1    0    0  501    0  0.00000000000E+00  0.00000000000E+00  0.18578802477E+04  0.18578802477E+04  0.00000000000E+00 0.  1.
         -2   -1    0    0    0  501 -0.00000000000E+00 -0.00000000000E+00 -0.13557817531E+04  0.13557817531E+04  0.00000000000E+00 0. -1.
    2000013    1    1    2    0    0  0.67942206299E+03 -0.90509078271E+03 -0.33544290393E+03  0.15151982070E+04  0.95000000000E+03 0.  0.
   -2000013    1    1    2    0    0 -0.67942206299E+03  0.90509078271E+03  0.83754139856E+03  0.16984637938E+04  0.95000000000E+03 0.  0.
<mgrwt>
<rscale>  0 0.31741960E+04</rscale>
<asrwt>0</asrwt>
<pdfrwt beam="1">  1        2 0.28582773E+00 0.31741960E+04</pdfrwt>
<pdfrwt beam="2">  1       -2 0.20858181E+00 0.31741960E+04</pdfrwt>
<totfact> 0.79087410E-01</totfact>
</mgrwt>
</event>
<event>
 4    1  0.2069825E-008  0.2417798E+04  0.7816531E-02  0.8432870E-01
          2   -1    0    0  501    0  0.00000000000E+00  0.00000000000E+00  0.25925144344E+04  0.25925144344E+04  0.00000000000E+00 0.  1.
         -2   -1    0    0    0  501 -0.00000000000E+00 -0.00000000000E+00 -0.56371399823E+03  0.56371399823E+03  0.00000000000E+00 0. -1.
    2000013    1    1    2    0    0 -0.20108701946E+03 -0.42642188321E+03  0.25696157606E+03  0.10912382249E+04  0.95000000000E+03 0.  0.
   -2000013    1    1    2    0    0  0.20108701946E+03  0.42642188321E+03  0.17718388601E+04  0.20649902077E+04  0.95000000000E+03 0.  0.
<mgrwt>
<rscale>  0 0.24177979E+04</rscale>
<asrwt>0</asrwt>
<pdfrwt beam="1">  1        2 0.39884837E+00 0.24177979E+04</pdfrwt>
<pdfrwt beam="2">  1       -2 0.86725232E-01 0.24177979E+04</pdfrwt>
<totfact> 0.31765171E+00</totfact>
</mgrwt>
</event>
<event>
 4    1  0.2069825E-008  0.2231785E+04  0.7816531E-02  0.8505314E-01
          1   -1    0    0  501    0  0.00000000000E+00  0.00000000000E+00  0.73729325960E+03  0.73729325960E+03  0.00000000000E+00 0.  1.
         -1   -1    0    0    0  501 -0.00000000000E+00 -0.00000000000E+00 -0.16889020410E+04  0.16889020410E+04  0.00000000000E+00 0. -1.
    2000013    1    1    2    0    0  0.47093751792E+03 -0.20662996096E+03 -0.77988048744E+03  0.13323631867E+04  0.95000000000E+03 0.  0.
   -2000013    1    1    2    0    0 -0.47093751792E+03  0.20662996096E+03 -0.17172829399E+03  0.10938321139E+04  0.95000000000E+03 0.  0.
<mgrwt>
<rscale>  0 0.22317850E+04</rscale>
<asrwt>0</asrwt>
<pdfrwt beam="1">  1        1 0.11342973E+00 0.22317850E+04</pdfrwt>
<pdfrwt beam="2">  1       -1 0.25983108E+00 0.22317850E+04</pdfrwt>
<totfact> 0.13756953E+00</totfact>
</mgrwt>
</event>
<event>
 4    1  0.2069825E-008  0.2174847E+04  0.7816531E-02  0.8528971E-01
          2   -1    0    0  501    0  0.00000000000E+00  0.00000000000E+00  0.42411855565E+04  0.42411855565E+04  0.00000000000E+00 0.  1.
         -2   -1    0    0    0  501 -0.00000000000E+00 -0.00000000000E+00 -0.27881126866E+03  0.27881126866E+03  0.00000000000E+00 0. -1.
    2000013    1    1    2    0    0  0.22804559455E+02  0.41611124569E+03  0.26588603428E+04  0.28540684888E+04  0.95000000000E+03 0.  0.
   -2000013    1    1    2    0    0 -0.22804559455E+02 -0.41611124569E+03  0.13035139451E+04  0.16659283363E+04  0.95000000000E+03 0.  0.
<mgrwt>
<rscale>  0 0.21748474E+04</rscale>
<asrwt>0</asrwt>
<pdfrwt beam="1">  1        2 0.65249004E+00 0.21748474E+04</pdfrwt>
<pdfrwt beam="2">  1       -2 0.42894044E-01 0.21748474E+04</pdfrwt>
<totfact> 0.10199346E+00</totfact>
</mgrwt>
</event>
<event>
 4    1  0.2069825E-008  0.3057084E+04  0.7816531E-02  0.8227615E-01
         -2   -1    0    0    0  501 -0.00000000000E+00  0.00000000000E+00  0.11808193799E+04  0.11808193799E+04  0.00000000000E+00 0. -1.
          2   -1    0    0  501    0  0.00000000000E+00 -0.00000000000E+00 -0.19786611120E+04  0.19786611120E+04  0.00000000000E+00 0.  1.
    2000013    1    1    2    0    0 -0.99142426389E+03 -0.29843587518E+02 -0.10923092757E+04  0.17548368199E+04  0.95000000000E+03 0.  0.
   -2000013    1    1    2    0    0  0.99142426389E+03  0.29843587518E+02  0.29446754363E+03  0.14046436719E+04  0.95000000000E+03 0.  0.
<mgrwt>
<rscale>  0 0.30570845E+04</rscale>
<asrwt>0</asrwt>
<pdfrwt beam="2">  1        2 0.30440940E+00 0.30570845E+04</pdfrwt>
<pdfrwt beam="1">  1       -2 0.18166452E+00 0.30570845E+04</pdfrwt>
<totfact> 0.10332311E+00</totfact>
</mgrwt>
</event>
<event>
 4    1  0.2069825E-008  0.3251031E+04  0.7816531E-02  0.8175468E-01
         -2   -1    0    0    0  501 -0.00000000000E+00  0.00000000000E+00  0.66108974567E+03  0.66108974567E+03  0.00000000000E+00 0. -1.
          2   -1    0    0  501    0  0.00000000000E+00 -0.00000000000E+00 -0.39968873387E+04  0.39968873387E+04  0.00000000000E+00 0.  1.
    2000013    1    1    2    0    0  0.26676816247E+03 -0.52353964941E+03  0.24068721425E+02  0.11172906159E+04  0.95000000000E+03 0.  0.
   -2000013    1    1    2    0    0 -0.26676816247E+03  0.52353964941E+03 -0.33598663144E+04  0.35406864684E+04  0.95000000000E+03 0.  0.
<mgrwt>
<rscale>  0 0.32510314E+04</rscale>
<asrwt>0</asrwt>
<pdfrwt beam="2">  1        2 0.61490573E+00 0.32510314E+04</pdfrwt>
<pdfrwt beam="1">  1       -2 0.10170612E+00 0.32510314E+04</pdfrwt>
<totfact> 0.22850038E-01</totfact>
</mgrwt>
</event>
<event>
 4    1  0.2069825E-008  0.2833858E+04  0.7816531E-02  0.8292833E-01
         -2   -1    0    0    0  501 -0.00000000000E+00  0.00000000000E+00  0.10433519629E+04  0.10433519629E+04  0.00000000000E+00 0. -1.
          2   -1    0    0  501    0  0.00000000000E+00 -0.00000000000E+00 -0.19242669769E+04  0.19242669769E+04  0.00000000000E+00 0.  1.
    2000013    1    1    2    0    0  0.13816550807E+03  0.95802452721E+03 -0.10866310341E+02  0.13562886046E+04  0.95000000000E+03 0.  0.
   -2000013    1    1    2    0    0 -0.13816550807E+03 -0.95802452721E+03 -0.87004870366E+03  0.16113303352E+04  0.95000000000E+03 0.  0.
<mgrwt>
<rscale>  0 0.28338580E+04</rscale>
<asrwt>0</asrwt>
<pdfrwt beam="2">  1        2 0.29604107E+00 0.28338580E+04</pdfrwt>
<pdfrwt beam="1">  1       -2 0.16051569E+00 0.28338580E+04</pdfrwt>
<totfact> 0.15951676E+00</totfact>
</mgrwt>
</event>
<event>
 4    1  0.2069825E-008  0.2662852E+04  0.7816531E-02  0.8347160E-01
          2   -1    0    0  501    0  0.00000000000E+00  0.00000000000E+00  0.15453776575E+04  0.15453776575E+04  0.00000000000E+00 0.  1.
         -2   -1    0    0    0  501 -0.00000000000E+00 -0.00000000000E+00 -0.11470950228E+04  0.11470950228E+04  0.00000000000E+00 0. -1.
    2000013    1    1    2    0    0  0.45355073253E+03 -0.70142231984E+02  0.10203124944E+04  0.14677076636E+04  0.95000000000E+03 0.  0.
   -2000013    1    1    2    0    0 -0.45355073253E+03  0.70142231984E+02 -0.62202985975E+03  0.12247650167E+04  0.95000000000E+03 0.  0.
<mgrwt>
<rscale>  0 0.26628519E+04</rscale>
<asrwt>0</asrwt>
<pdfrwt beam="1">  1        2 0.23775041E+00 0.26628519E+04</pdfrwt>
<pdfrwt beam="2">  1       -2 0.17647616E+00 0.26628519E+04</pdfrwt>
<totfact> 0.20207537E+00</totfact>
</mgrwt>
</event>
<event>
 4    1  0.2069825E-008  0.2235591E+04  0.7816531E-02  0.8503759E-01
         -2   -1    0    0    0  501 -0.00000000000E+00  0.00000000000E+00  0.35686065245E+03  0.35686065245E+03  0.00000000000E+00 0. -1.
          2   -1    0    0  501    0  0.00000000000E+00 -0.00000000000E+00 -0.35012726707E+04  0.35012726707E+04  0.00000000000E+00 0.  1.
    2000013    1    1    2    0    0  0.21097883589E+03 -0.30708252885E+03 -0.23595745302E+04  0.25707788144E+04  0.95000000000E+03 0.  0.
   -2000013    1    1    2    0    0 -0.21097883589E+03  0.30708252885E+03 -0.78483748806E+03  0.12873545088E+04  0.95000000000E+03 0.  0.
<mgrwt>
<rscale>  0 0.22355907E+04</rscale>
<asrwt>0</asrwt>
<pdfrwt beam="2">  1        2 0.53865736E+00 0.22355907E+04</pdfrwt>
<pdfrwt beam="1">  1       -2 0.54901636E-01 0.22355907E+04</pdfrwt>
<totfact> 0.23147978E+00</totfact>
</mgrwt>
</event>
<event>
 4    1  0.2069825E-008  0.2728260E+04  0.7816531E-02  0.8325893E-01
         -2   -1    0    0    0  501 -0.00000000000E+00  0.00000000000E+00  0.11318147122E+04  0.11318147122E+04  0.00000000000E+00 0. -1.
          2   -1    0    0  501    0  0.00000000000E+00 -0.00000000000E+00 -0.16441304055E+04  0.16441304055E+04  0.00000000000E+00 0.  1.
    2000013    1    1    2    0    0 -0.35688552352E+03 -0.85613992387E+03 -0.57469210367E+03  0.14467597797E+04  0.95000000000E+03 0.  0.
   -2000013    1    1    2    0    0  0.35688552352E+03  0.85613992387E+03  0.62376410442E+02  0.13291853380E+04  0.95000000000E+03 0.  0.
<mgrwt>
<rscale>  0 0.27282602E+04</rscale>
<asrwt>0</asrwt>
<pdfrwt beam="2">  1        2 0.25294314E+00 0.27282602E+04</pdfrwt>
<pdfrwt beam="1">  1       -2 0.17412534E+00 0.27282602E+04</pdfrwt>
<totfact> 0.18380627E+00</totfact>
</mgrwt>
</event>
<event>
 4    1  0.2069825E-008  0.2305454E+04  0.7816531E-02  0.8475774E-01
         -2   -1    0    0    0  501 -0.00000000000E+00  0.00000000000E+00  0.84891491647E+03  0.84891491647E+03  0.00000000000E+00 0. -1.
          2   -1    0    0  501    0  0.00000000000E+00 -0.00000000000E+00 -0.15652682383E+04  0.15652682383E+04  0.00000000000E+00 0.  1.
    2000013    1    1    2    0    0  0.40989595337E+03  0.23435727366E+03 -0.83037754500E+03  0.13472063285E+04  0.95000000000E+03 0.  0.
   -2000013    1    1    2    0    0 -0.40989595337E+03 -0.23435727366E+03  0.11402422318E+03  0.10669768263E+04  0.95000000000E+03 0.  0.
<mgrwt>
<rscale>  0 0.23054540E+04</rscale>
<asrwt>0</asrwt>
<pdfrwt beam="2">  1        2 0.24081049E+00 0.23054540E+04</pdfrwt>
<pdfrwt beam="1">  1       -2 0.13060230E+00 0.23054540E+04</pdfrwt>
<totfact> 0.45376052E+00</totfact>
</mgrwt>
</event>
<event>
 4    1  0.2069825E-008  0.2577425E+04  0.7816531E-02  0.8375910E-01
          2   -1    0    0  501    0  0.00000000000E+00  0.00000000000E+00  0.70094380718E+03  0.70094380718E+03  0.00000000000E+00 0.  1.
         -2   -1    0    0    0  501 -0.00000000000E+00 -0.00000000000E+00 -0.23693481548E+04  0.23693481548E+04  0.00000000000E+00 0. -1.
    2000013    1    1    2    0    0  0.73438594806E+03 -0.35122379995E+03 -0.12025180152E+04  0.17352897324E+04  0.95000000000E+03 0.  0.
   -2000013    1    1    2    0    0 -0.73438594806E+03  0.35122379995E+03 -0.46588633243E+03  0.13350022296E+04  0.95000000000E+03 0.  0.
<mgrwt>
<rscale>  0 0.25774250E+04</rscale>
<asrwt>0</asrwt>
<pdfrwt beam="1">  1        2 0.10783751E+00 0.25774250E+04</pdfrwt>
<pdfrwt beam="2">  1       -2 0.36451510E+00 0.25774250E+04</pdfrwt>
<totfact> 0.45637141E-01</totfact>
</mgrwt>
</event>
<event>
 4    1  0.2069825E-008  0.2694114E+04  0.7816531E-02  0.8336917E-01
          2   -1    0    0  501    0  0.00000000000E+00  0.00000000000E+00  0.23318976088E+04  0.23318976088E+04  0.00000000000E+00 0.  1.
         -2   -1    0    0    0  501 -0.00000000000E+00 -0.00000000000E+00 -0.77814843685E+03  0.77814843685E+03  0.00000000000E+00 0. -1.
    2000013    1    1    2    0    0  0.25047868030E+03  0.86120765377E+03  0.39813007029E+03  0.13658058958E+04  0.95000000000E+03 0.  0.
   -2000013    1    1    2    0    0 -0.25047868030E+03 -0.86120765377E+03  0.11556191017E+04  0.17442401499E+04  0.95000000000E+03 0.  0.
<mgrwt>
<rscale>  0 0.26941139E+04</rscale>
<asrwt>0</asrwt>
<pdfrwt beam="1">  1        2 0.35875348E+00 0.26941139E+04</pdfrwt>
<pdfrwt beam="2">  1       -2 0.11971515E+00 0.26941139E+04</pdfrwt>
<totfact> 0.20382599E+00</totfact>
</mgrwt>
</event>
<event>
 4    1  0.2069825E-008  0.2656253E+04  0.7816531E-02  0.8349341E-01
         -2   -1    0    0    0  501 -0.00000000000E+00  0.00000000000E+00  0.97376875333E+03  0.97376875333E+03  0.00000000000E+00 0. -1.
          2   -1    0    0  501    0  0.00000000000E+00 -0.00000000000E+00 -0.18114360591E+04  0.18114360591E+04  0.00000000000E+00 0.  1.
    2000013    1    1    2    0    0  0.10630950828E+03  0.45712677707E+03  0.42075901490E+03  0.11400897993E+04  0.95000000000E+03 0.  0.
   -2000013    1    1    2    0    0 -0.10630950828E+03 -0.45712677707E+03 -0.12584263207E+04  0.16451150131E+04  0.95000000000E+03 0.  0.
<mgrwt>
<rscale>  0 0.26562529E+04</rscale>
<asrwt>0</asrwt>
<pdfrwt beam="2">  1        2 0.27868247E+00 0.26562529E+04</pdfrwt>
<pdfrwt beam="1">  1       -2 0.14981058E+00 0.26562529E+04</pdfrwt>
<totfact> 0.22510987E+00</totfact>
</mgrwt>
</event>
<event>
 4    1  0.2069825E-008  0.2175505E+04  0.7816531E-02  0.8528693E-01
         -1   -1    0    0    0  501 -0.00000000000E+00  0.00000000000E+00  0.11762275765E+04  0.11762275765E+04  0.00000000000E+00 0. -1.
          1   -1    0    0  501    0  0.00000000000E+00 -0.00000000000E+00 -0.10059321842E+04  0.10059321842E+04  0.00000000000E+00 0.  1.
    2000013    1    1    2    0    0  0.14470584442E+03 -0.15235139709E+03 -0.40270877964E+03  0.10530076404E+04  0.95000000000E+03 0.  0.
   -2000013    1    1    2    0    0 -0.14470584442E+03  0.15235139709E+03  0.57300417199E+03  0.11291521203E+04  0.95000000000E+03 0.  0.
<mgrwt>
<rscale>  0 0.21755047E+04</rscale>
<asrwt>0</asrwt>
<pdfrwt beam="2">  1        1 0.15475880E+00 0.21755047E+04</pdfrwt>
<pdfrwt beam="1">  1       -1 0.18095809E+00 0.21755047E+04</pdfrwt>
<totfact> 0.28017942E+00</totfact>
</mgrwt>
</event>
<event>
 4    1  0.2069825E-008  0.2930124E+04  0.7816531E-02  0.8263971E-01
          2   -1    0    0  501    0  0.00000000000E+00  0.00000000000E+00  0.38008119477E+04  0.38008119477E+04  0.00000000000E+00 0.  1.
         -2   -1    0    0    0  501 -0.00000000000E+00 -0.00000000000E+00 -0.56472306341E+03  0.56472306341E+03  0.00000000000E+00 0. -1.
    2000013    1    1    2    0    0  0.10322415489E+04  0.22636717650E+03  0.21492897544E+04  0.25765696502E+04  0.95000000000E+03 0.  0.
   -2000013    1    1    2    0    0 -0.10322415489E+04 -0.22636717650E+03  0.10867991300E+04  0.17889653610E+04  0.95000000000E+03 0.  0.
<mgrwt>
<rscale>  0 0.29301237E+04</rscale>
<asrwt>0</asrwt>
<pdfrwt beam="1">  1        2 0.58474028E+00 0.29301237E+04</pdfrwt>
<pdfrwt beam="2">  1       -2 0.86880474E-01 0.29301237E+04</pdfrwt>
<totfact> 0.48373799E-01</totfact>
</mgrwt>
</event>
<event>
 4    1  0.2069825E-008  0.2136538E+04  0.7816531E-02  0.8545317E-01
          1   -1    0    0  501    0  0.00000000000E+00  0.00000000000E+00  0.99982425700E+03  0.99982425700E+03  0.00000000000E+00 0. -1.
         -1   -1    0    0    0  501 -0.00000000000E+00 -0.00000000000E+00 -0.11413991195E+04  0.11413991195E+04  0.00000000000E+00 0.  1.
    2000013    1    1    2    0    0  0.40058408161E+03 -0.25231241704E+03  0.50180897692E+02  0.10626134221E+04  0.95000000000E+03 0.  0.
   -2000013    1    1    2    0    0 -0.40058408161E+03  0.25231241704E+03 -0.19175576018E+03  0.10786099544E+04  0.95000000000E+03 0.  0.
<mgrwt>
<rscale>  0 0.21365379E+04</rscale>
<asrwt>0</asrwt>
<pdfrwt beam="1">  1        1 0.15381912E+00 0.21365379E+04</pdfrwt>
<pdfrwt beam="2">  1       -1 0.17559986E+00 0.21365379E+04</pdfrwt>
<totfact> 0.31072705E+00</totfact>
</mgrwt>
</event>
<event>
 4    1  0.2069825E-008  0.2919403E+04  0.7816531E-02  0.8267128E-01
         -1   -1    0    0    0  501 -0.00000000000E+00  0.00000000000E+00  0.18412523186E+04  0.18412523186E+04  0.00000000000E+00 0. -1.
          1   -1    0    0  501    0  0.00000000000E+00 -0.00000000000E+00 -0.11572173174E+04  0.11572173174E+04  0.00000000000E+00 0.  1.
    2000013    1    1    2    0    0  0.69179792876E+03  0.15541936216E+03  0.12168423583E+04  0.16988068982E+04  0.95000000000E+03 0.  0.
   -2000013    1    1    2    0    0 -0.69179792876E+03 -0.15541936216E+03 -0.53280735714E+03  0.12996627379E+04  0.95000000000E+03 0.  0.
<mgrwt>
<rscale>  0 0.29194034E+04</rscale>
<asrwt>0</asrwt>
<pdfrwt beam="2">  1        1 0.17803343E+00 0.29194034E+04</pdfrwt>
<pdfrwt beam="1">  1       -1 0.28326959E+00 0.29194034E+04</pdfrwt>
<totfact> 0.41734025E-01</totfact>
</mgrwt>
</event>
<event>
 4    1  0.2069825E-008  0.2144406E+04  0.7816531E-02  0.8541931E-01
         -1   -1    0    0    0  501 -0.00000000000E+00  0.00000000000E+00  0.61721525037E+03  0.61721525037E+03  0.00000000000E+00 0. -1.
          1   -1    0    0  501    0  0.00000000000E+00 -0.00000000000E+00 -0.18625900944E+04  0.18625900944E+04  0.00000000000E+00 0.  1.
    2000013    1    1    2    0    0 -0.49585884598E+03 -0.30246017897E+02 -0.64363705592E+03  0.12504237188E+04  0.95000000000E+03 0.  0.
   -2000013    1    1    2    0    0  0.49585884598E+03  0.30246017897E+02 -0.60173778816E+03  0.12293816260E+04  0.95000000000E+03 0.  0.
<mgrwt>
<rscale>  0 0.21444058E+04</rscale>
<asrwt>0</asrwt>
<pdfrwt beam="2">  1        1 0.28655233E+00 0.21444058E+04</pdfrwt>
<pdfrwt beam="1">  1       -1 0.94956191E-01 0.21444058E+04</pdfrwt>
<totfact> 0.36268915E+00</totfact>
</mgrwt>
</event>
<event>
 4    1  0.2069825E-008  0.2362469E+04  0.7816531E-02  0.8453690E-01
         -2   -1    0    0    0  501 -0.00000000000E+00  0.00000000000E+00  0.57273857510E+03  0.57273857510E+03  0.00000000000E+00 0. -1.
          2   -1    0    0  501    0  0.00000000000E+00 -0.00000000000E+00 -0.24362159956E+04  0.24362159956E+04  0.00000000000E+00 0.  1.
    2000013    1    1    2    0    0 -0.74064676108E+02  0.68402113637E+03 -0.11093402178E+04  0.16144677792E+04  0.95000000000E+03 0.  0.
   -2000013    1    1    2    0    0  0.74064676108E+02 -0.68402113637E+03 -0.75413720274E+03  0.13944867916E+04  0.95000000000E+03 0.  0.
<mgrwt>
<rscale>  0 0.23624689E+04</rscale>
<asrwt>0</asrwt>
<pdfrwt beam="2">  1        2 0.37480246E+00 0.23624689E+04</pdfrwt>
<pdfrwt beam="1">  1       -2 0.88113626E-01 0.23624689E+04</pdfrwt>
<totfact> 0.37925327E+00</totfact>
</mgrwt>
</event>
<event>
 4    1  0.2069825E-008  0.2309593E+04  0.7816531E-02  0.8474148E-01
          2   -1    0    0  501    0  0.00000000000E+00  0.00000000000E+00  0.70705283225E+03  0.70705283225E+03  0.00000000000E+00 0.  1.
         -2   -1    0    0    0  501 -0.00000000000E+00 -0.00000000000E+00 -0.18860748130E+04  0.18860748130E+04  0.00000000000E+00 0. -1.
    2000013    1    1    2    0    0  0.28545730363E+02  0.50751412451E+03 -0.10560584325E+04  0.15086897819E+04  0.95000000000E+03 0.  0.
   -2000013    1    1    2    0    0 -0.28545730363E+02 -0.50751412451E+03 -0.12296354834E+03  0.10844378634E+04  0.95000000000E+03 0.  0.
<mgrwt>
<rscale>  0 0.23095926E+04</rscale>
<asrwt>0</asrwt>
<pdfrwt beam="1">  1        2 0.10877736E+00 0.23095926E+04</pdfrwt>
<pdfrwt beam="2">  1       -2 0.29016536E+00 0.23095926E+04</pdfrwt>
<totfact> 0.13381518E+00</totfact>
</mgrwt>
</event>
<event>
 4    1  0.2069825E-008  0.2907896E+04  0.7816531E-02  0.8270532E-01
          2   -1    0    0  501    0  0.00000000000E+00  0.00000000000E+00  0.12506644054E+04  0.12506644054E+04  0.00000000000E+00 0.  1.
         -2   -1    0    0    0  501 -0.00000000000E+00 -0.00000000000E+00 -0.16902733595E+04  0.16902733595E+04  0.00000000000E+00 0. -1.
    2000013    1    1    2    0    0  0.99945941355E+03  0.20039817650E+03  0.20010743071E+03  0.14077007964E+04  0.95000000000E+03 0.  0.
   -2000013    1    1    2    0    0 -0.99945941355E+03 -0.20039817650E+03 -0.63971638480E+03  0.15332369685E+04  0.95000000000E+03 0.  0.
<mgrwt>
<rscale>  0 0.29078960E+04</rscale>
<asrwt>0</asrwt>
<pdfrwt beam="1">  1        2 0.19240991E+00 0.29078960E+04</pdfrwt>
<pdfrwt beam="2">  1       -2 0.26004206E+00 0.29078960E+04</pdfrwt>
<totfact> 0.84987808E-01</totfact>
</mgrwt>
</event>
<event>
 4    1  0.2069825E-008  0.2788853E+04  0.7816531E-02  0.8306737E-01
          2   -1    0    0  501    0  0.00000000000E+00  0.00000000000E+00  0.42787040344E+04  0.42787040344E+04  0.00000000000E+00 0.  1.
         -2   -1    0    0    0  501 -0.00000000000E+00 -0.00000000000E+00 -0.45444254875E+03  0.45444254875E+03  0.00000000000E+00 0. -1.
    2000013    1    1    2    0    0 -0.31706118586E+03 -0.73385127464E+03  0.29893428915E+04  0.32369331800E+04  0.95000000000E+03 0.  0.
   -2000013    1    1    2    0    0  0.31706118586E+03  0.73385127464E+03  0.83491859414E+03  0.14962134031E+04  0.95000000000E+03 0.  0.
<mgrwt>
<rscale>  0 0.27888529E+04</rscale>
<asrwt>0</asrwt>
<pdfrwt beam="1">  1        2 0.65826213E+00 0.27888529E+04</pdfrwt>
<pdfrwt beam="2">  1       -2 0.69914241E-01 0.27888529E+04</pdfrwt>
<totfact> 0.32218738E-01</totfact>
</mgrwt>
</event>
<event>
 4    1  0.2069825E-008  0.2823087E+04  0.7816531E-02  0.8296136E-01
         -2   -1    0    0    0  501 -0.00000000000E+00  0.00000000000E+00  0.12089975850E+04  0.12089975850E+04  0.00000000000E+00 0. -1.
          2   -1    0    0  501    0  0.00000000000E+00 -0.00000000000E+00 -0.16480228129E+04  0.16480228129E+04  0.00000000000E+00 0.  1.
    2000013    1    1    2    0    0 -0.40454067931E+03  0.96233394246E+03 -0.23438010249E+03  0.14307948177E+04  0.95000000000E+03 0.  0.
   -2000013    1    1    2    0    0  0.40454067931E+03 -0.96233394246E+03 -0.20464512538E+03  0.14262255801E+04  0.95000000000E+03 0.  0.
<mgrwt>
<rscale>  0 0.28230874E+04</rscale>
<asrwt>0</asrwt>
<pdfrwt beam="2">  1        2 0.25354197E+00 0.28230874E+04</pdfrwt>
<pdfrwt beam="1">  1       -2 0.18599963E+00 0.28230874E+04</pdfrwt>
<totfact> 0.15020794E+00</totfact>
</mgrwt>
</event>
<event>
 4    1  0.2069825E-008  0.2874482E+04  0.7816531E-02  0.8280511E-01
          2   -1    0    0  501    0  0.00000000000E+00  0.00000000000E+00  0.21662110879E+04  0.21662110879E+04  0.00000000000E+00 0.  1.
         -2   -1    0    0    0  501 -0.00000000000E+00 -0.00000000000E+00 -0.95358254009E+03  0.95358254009E+03  0.00000000000E+00 0. -1.
    2000013    1    1    2    0    0 -0.47205339979E+03  0.95192437062E+03  0.40569735774E+03  0.14819192845E+04  0.95000000000E+03 0.  0.
   -2000013    1    1    2    0    0  0.47205339979E+03 -0.95192437062E+03  0.80693119006E+03  0.16378743435E+04  0.95000000000E+03 0.  0.
<mgrwt>
<rscale>  0 0.28744816E+04</rscale>
<asrwt>0</asrwt>
<pdfrwt beam="1">  1        2 0.33326324E+00 0.28744816E+04</pdfrwt>
<pdfrwt beam="2">  1       -2 0.14670501E+00 0.28744816E+04</pdfrwt>
<totfact> 0.14825071E+00</totfact>
</mgrwt>
</event>
<event>
 4    1  0.2069825E-008  0.2148446E+04  0.7816531E-02  0.8540198E-01
         -2   -1    0    0    0  501 -0.00000000000E+00  0.00000000000E+00  0.15371041306E+04  0.15371041306E+04  0.00000000000E+00 0. -1.
          2   -1    0    0  501    0  0.00000000000E+00 -0.00000000000E+00 -0.75073292005E+03  0.75073292005E+03  0.00000000000E+00 0.  1.
    2000013    1    1    2    0    0  0.47212872186E+03  0.12204450621E+03  0.26875273048E+03  0.11011486828E+04  0.95000000000E+03 0.  0.
   -2000013    1    1    2    0    0 -0.47212872186E+03 -0.12204450621E+03  0.51761848010E+03  0.11866883679E+04  0.95000000000E+03 0.  0.
<mgrwt>
<rscale>  0 0.21484456E+04</rscale>
<asrwt>0</asrwt>
<pdfrwt beam="2">  1        2 0.11549737E+00 0.21484456E+04</pdfrwt>
<pdfrwt beam="1">  1       -2 0.23647756E+00 0.21484456E+04</pdfrwt>
<totfact> 0.26771574E+00</totfact>
</mgrwt>
</event>
<event>
 4    1  0.2069825E-008  0.1986325E+04  0.7816531E-02  0.8613041E-01
          2   -1    0    0  501    0  0.00000000000E+00  0.00000000000E+00  0.13694508064E+04  0.13694508064E+04  0.00000000000E+00 0.  1.
         -2   -1    0    0    0  501 -0.00000000000E+00 -0.00000000000E+00 -0.72026790359E+03  0.72026790359E+03  0.00000000000E+00 0. -1.
    2000013    1    1    2    0    0  0.12587285980E+03  0.24723714418E+03  0.41198963000E+03  0.10720100921E+04  0.95000000000E+03 0.  0.
   -2000013    1    1    2    0    0 -0.12587285980E+03 -0.24723714418E+03  0.23719327280E+03  0.10177086179E+04  0.95000000000E+03 0.  0.
<mgrwt>
<rscale>  0 0.19863247E+04</rscale>
<asrwt>0</asrwt>
<pdfrwt beam="1">  1        2 0.21068474E+00 0.19863247E+04</pdfrwt>
<pdfrwt beam="2">  1       -2 0.11081045E+00 0.19863247E+04</pdfrwt>
<totfact> 0.90465274E+00</totfact>
</mgrwt>
</event>
<event>
 4    1  0.2069825E-008  0.2756903E+04  0.7816531E-02  0.8316775E-01
          2   -1    0    0  501    0  0.00000000000E+00  0.00000000000E+00  0.16547185733E+04  0.16547185733E+04  0.00000000000E+00 0.  1.
         -2   -1    0    0    0  501 -0.00000000000E+00 -0.00000000000E+00 -0.11483088524E+04  0.11483088524E+04  0.00000000000E+00 0. -1.
    2000013    1    1    2    0    0 -0.48023112422E+03 -0.86324241119E+03  0.40338734777E+03  0.14286464732E+04  0.95000000000E+03 0.  0.
   -2000013    1    1    2    0    0  0.48023112422E+03  0.86324241119E+03  0.10302237308E+03  0.13743809525E+04  0.95000000000E+03 0.  0.
<mgrwt>
<rscale>  0 0.27569026E+04</rscale>
<asrwt>0</asrwt>
<pdfrwt beam="1">  1        2 0.25457209E+00 0.27569026E+04</pdfrwt>
<pdfrwt beam="2">  1       -2 0.17666290E+00 0.27569026E+04</pdfrwt>
<totfact> 0.17363046E+00</totfact>
</mgrwt>
</event>
<event>
 4    1  0.2069825E-008  0.2035253E+04  0.7816531E-02  0.8590314E-01
         -2   -1    0    0    0  501 -0.00000000000E+00  0.00000000000E+00  0.83158160574E+03  0.83158160574E+03  0.00000000000E+00 0. -1.
          2   -1    0    0  501    0  0.00000000000E+00 -0.00000000000E+00 -0.12452940933E+04  0.12452940933E+04  0.00000000000E+00 0.  1.
    2000013    1    1    2    0    0 -0.33710367335E+03 -0.39891096753E+01 -0.64691421748E+02  0.10101186958E+04  0.95000000000E+03 0.  0.
   -2000013    1    1    2    0    0  0.33710367335E+03  0.39891096753E+01 -0.34902106584E+03  0.10667570033E+04  0.95000000000E+03 0.  0.
<mgrwt>
<rscale>  0 0.20352530E+04</rscale>
<asrwt>0</asrwt>
<pdfrwt beam="2">  1        2 0.19158371E+00 0.20352530E+04</pdfrwt>
<pdfrwt beam="1">  1       -2 0.12793563E+00 0.20352530E+04</pdfrwt>
<totfact> 0.74594300E+00</totfact>
</mgrwt>
</event>
<event>
 4    1  0.2069825E-008  0.2237209E+04  0.7816531E-02  0.8503098E-01
         -2   -1    0    0    0  501 -0.00000000000E+00  0.00000000000E+00  0.68321245356E+03  0.68321245356E+03  0.00000000000E+00 0. -1.
          2   -1    0    0  501    0  0.00000000000E+00 -0.00000000000E+00 -0.18314602917E+04  0.18314602917E+04  0.00000000000E+00 0.  1.
    2000013    1    1    2    0    0  0.10422071267E+03  0.45445796899E+03 -0.16670277754E+03  0.10713000600E+04  0.95000000000E+03 0.  0.
   -2000013    1    1    2    0    0 -0.10422071267E+03 -0.45445796899E+03 -0.98154506057E+03  0.14433726852E+04  0.95000000000E+03 0.  0.
<mgrwt>
<rscale>  0 0.22372094E+04</rscale>
<asrwt>0</asrwt>
<pdfrwt beam="2">  1        2 0.28176312E+00 0.22372094E+04</pdfrwt>
<pdfrwt beam="1">  1       -2 0.10510961E+00 0.22372094E+04</pdfrwt>
<totfact> 0.55383607E+00</totfact>
</mgrwt>
</event>
<event>
 4    1  0.2069825E-008  0.2630737E+04  0.7816531E-02  0.8357835E-01
          1   -1    0    0  501    0  0.00000000000E+00  0.00000000000E+00  0.12570972141E+04  0.12570972141E+04  0.00000000000E+00 0.  1.
         -1   -1    0    0    0  501 -0.00000000000E+00 -0.00000000000E+00 -0.13763410259E+04  0.13763410259E+04  0.00000000000E+00 0. -1.
    2000013    1    1    2    0    0 -0.79477266575E+03  0.28327214463E+03 -0.40024730554E+03  0.13321428616E+04  0.95000000000E+03 0.  0.
   -2000013    1    1    2    0    0  0.79477266575E+03 -0.28327214463E+03  0.28100349377E+03  0.13012953783E+04  0.95000000000E+03 0.  0.
<mgrwt>
<rscale>  0 0.26307371E+04</rscale>
<asrwt>0</asrwt>
<pdfrwt beam="1">  1        1 0.19339957E+00 0.26307371E+04</pdfrwt>
<pdfrwt beam="2">  1       -1 0.21174477E+00 0.26307371E+04</pdfrwt>
<totfact> 0.10671877E+00</totfact>
</mgrwt>
</event>
<event>
 4    1  0.2069825E-008  0.2573768E+04  0.7816531E-02  0.8377166E-01
         -1   -1    0    0    0  501 -0.00000000000E+00  0.00000000000E+00  0.61934903004E+03  0.61934903004E+03  0.00000000000E+00 0. -1.
          1   -1    0    0  501    0  0.00000000000E+00 -0.00000000000E+00 -0.26738894007E+04  0.26738894007E+04  0.00000000000E+00 0.  1.
    2000013    1    1    2    0    0 -0.44727323225E+03  0.48148009105E+03 -0.17530008406E+04  0.20993780911E+04  0.95000000000E+03 0.  0.
   -2000013    1    1    2    0    0  0.44727323225E+03 -0.48148009105E+03 -0.30153953010E+03  0.11938603396E+04  0.95000000000E+03 0.  0.
<mgrwt>
<rscale>  0 0.25737683E+04</rscale>
<asrwt>0</asrwt>
<pdfrwt beam="2">  1        1 0.41136760E+00 0.25737683E+04</pdfrwt>
<pdfrwt beam="1">  1       -1 0.95284467E-01 0.25737683E+04</pdfrwt>
<totfact> 0.96096046E-01</totfact>
</mgrwt>
</event>
<event>
 4    1  0.2069825E-008  0.3403437E+04  0.7816531E-02  0.8137063E-01
          2   -1    0    0  501    0  0.00000000000E+00  0.00000000000E+00  0.10695320034E+04  0.10695320034E+04  0.00000000000E+00 0.  1.
         -2   -1    0    0    0  501 -0.00000000000E+00 -0.00000000000E+00 -0.27075816423E+04  0.27075816423E+04  0.00000000000E+00 0. -1.
    2000013    1    1    2    0    0  0.79082586543E+03  0.11494400198E+04 -0.10589234520E+04  0.19925954898E+04  0.95000000000E+03 0.  0.
   -2000013    1    1    2    0    0 -0.79082586543E+03 -0.11494400198E+04 -0.57912618687E+03  0.17845181560E+04  0.95000000000E+03 0.  0.
<mgrwt>
<rscale>  0 0.34034366E+04</rscale>
<asrwt>0</asrwt>
<pdfrwt beam="1">  1        2 0.16454339E+00 0.34034366E+04</pdfrwt>
<pdfrwt beam="2">  1       -2 0.41655101E+00 0.34034366E+04</pdfrwt>
<totfact> 0.10879089E-01</totfact>
</mgrwt>
</event>
<event>
 4    1  0.2069825E-008  0.3191548E+04  0.7816531E-02  0.8191053E-01
          2   -1    0    0  501    0  0.00000000000E+00  0.00000000000E+00  0.24543620467E+04  0.24543620467E+04  0.00000000000E+00 0.  1.
         -2   -1    0    0    0  501 -0.00000000000E+00 -0.00000000000E+00 -0.10375384532E+04  0.10375384532E+04  0.00000000000E+00 0. -1.
    2000013    1    1    2    0    0  0.26087744161E+03  0.12390331885E+04  0.92923403997E+03  0.18355479244E+04  0.95000000000E+03 0.  0.
   -2000013    1    1    2    0    0 -0.26087744161E+03 -0.12390331885E+04  0.48758955345E+03  0.16563525755E+04  0.95000000000E+03 0.  0.
<mgrwt>
<rscale>  0 0.31915482E+04</rscale>
<asrwt>0</asrwt>
<pdfrwt beam="1">  1        2 0.37759416E+00 0.31915482E+04</pdfrwt>
<pdfrwt beam="2">  1       -2 0.15962130E+00 0.31915482E+04</pdfrwt>
<totfact> 0.79016464E-01</totfact>
</mgrwt>
</event>
<event>
 4    1  0.2069825E-008  0.2769685E+04  0.7816531E-02  0.8312742E-01
          2   -1    0    0  501    0  0.00000000000E+00  0.00000000000E+00  0.16786759376E+04  0.16786759376E+04  0.00000000000E+00 0.  1.
         -2   -1    0    0    0  501 -0.00000000000E+00 -0.00000000000E+00 -0.11424415589E+04  0.11424415589E+04  0.00000000000E+00 0. -1.
    2000013    1    1    2    0    0  0.90794360564E+03  0.43816221962E+02 -0.17470614859E+03  0.13263874587E+04  0.95000000000E+03 0.  0.
   -2000013    1    1    2    0    0 -0.90794360564E+03 -0.43816221962E+02  0.71094052731E+03  0.14947300377E+04  0.95000000000E+03 0.  0.
<mgrwt>
<rscale>  0 0.27696853E+04</rscale>
<asrwt>0</asrwt>
<pdfrwt beam="1">  1        2 0.25825784E+00 0.27696853E+04</pdfrwt>
<pdfrwt beam="2">  1       -2 0.17576024E+00 0.27696853E+04</pdfrwt>
<totfact> 0.17065978E+00</totfact>
</mgrwt>
</event>
<event>
 4    1  0.2069825E-008  0.2554622E+04  0.7816531E-02  0.8383781E-01
          2   -1    0    0  501    0  0.00000000000E+00  0.00000000000E+00  0.28417858416E+04  0.28417858416E+04  0.00000000000E+00 0.  1.
         -2   -1    0    0    0  501 -0.00000000000E+00 -0.00000000000E+00 -0.57411890352E+03  0.57411890352E+03  0.00000000000E+00 0. -1.
    2000013    1    1    2    0    0  0.40876640453E+03 -0.61360258821E+03  0.55804476397E+03  0.13257119100E+04  0.95000000000E+03 0.  0.
   -2000013    1    1    2    0    0 -0.40876640453E+03  0.61360258821E+03  0.17096221741E+04  0.20901928351E+04  0.95000000000E+03 0.  0.
<mgrwt>
<rscale>  0 0.25546217E+04</rscale>
<asrwt>0</asrwt>
<pdfrwt beam="1">  1        2 0.43719782E+00 0.25546217E+04</pdfrwt>
<pdfrwt beam="2">  1       -2 0.88325986E-01 0.25546217E+04</pdfrwt>
<totfact> 0.21368093E+00</totfact>
</mgrwt>
</event>
<event>
 4    1  0.2069825E-008  0.3306892E+04  0.7816531E-02  0.8161144E-01
          2   -1    0    0  501    0  0.00000000000E+00  0.00000000000E+00  0.16142796294E+04  0.16142796294E+04  0.00000000000E+00 0.  1.
         -2   -1    0    0    0  501 -0.00000000000E+00 -0.00000000000E+00 -0.16935630281E+04  0.16935630281E+04  0.00000000000E+00 0. -1.
    2000013    1    1    2    0    0 -0.96965231203E+03 -0.94139759956E+03  0.30587098348E+02  0.16522380631E+04  0.95000000000E+03 0.  0.
   -2000013    1    1    2    0    0  0.96965231203E+03  0.94139759956E+03 -0.10987049706E+03  0.16556045943E+04  0.95000000000E+03 0.  0.
<mgrwt>
<rscale>  0 0.33068924E+04</rscale>
<asrwt>0</asrwt>
<pdfrwt beam="1">  1        2 0.24835071E+00 0.33068924E+04</pdfrwt>
<pdfrwt beam="2">  1       -2 0.26054816E+00 0.33068924E+04</pdfrwt>
<totfact> 0.50598699E-01</totfact>
</mgrwt>
</event>
<event>
 4    1  0.2069825E-008  0.2984647E+04  0.7816531E-02  0.8248129E-01
         -2   -1    0    0    0  501 -0.00000000000E+00  0.00000000000E+00  0.94322675484E+03  0.94322675484E+03  0.00000000000E+00 0. -1.
          2   -1    0    0  501    0  0.00000000000E+00 -0.00000000000E+00 -0.23610756671E+04  0.23610756671E+04  0.00000000000E+00 0.  1.
    2000013    1    1    2    0    0  0.56696199085E+03 -0.91729416465E+03 -0.26379975064E+03  0.14611518716E+04  0.95000000000E+03 0.  0.
   -2000013    1    1    2    0    0 -0.56696199085E+03  0.91729416465E+03 -0.11540491616E+04  0.18431505503E+04  0.95000000000E+03 0.  0.
<mgrwt>
<rscale>  0 0.29846472E+04</rscale>
<asrwt>0</asrwt>
<pdfrwt beam="2">  1        2 0.36324241E+00 0.29846472E+04</pdfrwt>
<pdfrwt beam="1">  1       -2 0.14511181E+00 0.29846472E+04</pdfrwt>
<totfact> 0.11727642E+00</totfact>
</mgrwt>
</event>
<event>
 4    1  0.2069825E-008  0.2611849E+04  0.7816531E-02  0.8364187E-01
         -3   -1    0    0    0  501 -0.00000000000E+00  0.00000000000E+00  0.14327158880E+04  0.14327158880E+04  0.00000000000E+00 0.  1.
          3   -1    0    0  501    0  0.00000000000E+00 -0.00000000000E+00 -0.11903540278E+04  0.11903540278E+04  0.00000000000E+00 0. -1.
    2000013    1    1    2    0    0  0.23875940258E+03  0.80445554489E+03 -0.19446910131E+03  0.12823700743E+04  0.95000000000E+03 0.  0.
   -2000013    1    1    2    0    0 -0.23875940258E+03 -0.80445554489E+03  0.43683096154E+03  0.13406998415E+04  0.95000000000E+03 0.  0.
<mgrwt>
<rscale>  0 0.26118493E+04</rscale>
<asrwt>0</asrwt>
<pdfrwt beam="2">  1        3 0.18313139E+00 0.26118493E+04</pdfrwt>
<pdfrwt beam="1">  1       -3 0.22041783E+00 0.26118493E+04</pdfrwt>
<totfact> 0.47629709E-02</totfact>
</mgrwt>
</event>
<event>
 4    1  0.2069825E-008  0.2311834E+04  0.7816531E-02  0.8473270E-01
          2   -1    0    0  501    0  0.00000000000E+00  0.00000000000E+00  0.28775209837E+04  0.28775209837E+04  0.00000000000E+00 0.  1.
         -2   -1    0    0    0  501 -0.00000000000E+00 -0.00000000000E+00 -0.46433857561E+03  0.46433857561E+03  0.00000000000E+00 0. -1.
    2000013    1    1    2    0    0 -0.65267819482E+03  0.44291842656E+02  0.13156642580E+04  0.17496922681E+04  0.95000000000E+03 0.  0.
   -2000013    1    1    2    0    0  0.65267819482E+03 -0.44291842656E+02  0.10975181500E+04  0.15921672911E+04  0.95000000000E+03 0.  0.
<mgrwt>
<rscale>  0 0.23118339E+04</rscale>
<asrwt>0</asrwt>
<pdfrwt beam="1">  1        2 0.44269553E+00 0.23118339E+04</pdfrwt>
<pdfrwt beam="2">  1       -2 0.71436706E-01 0.23118339E+04</pdfrwt>
<totfact> 0.33415795E+00</totfact>
</mgrwt>
</event>
<event>
 4    1  0.2069825E-008  0.2998989E+04  0.7816531E-02  0.8244020E-01
          2   -1    0    0  501    0  0.00000000000E+00  0.00000000000E+00  0.17141370505E+04  0.17141370505E+04  0.00000000000E+00 0.  1.
         -2   -1    0    0    0  501 -0.00000000000E+00 -0.00000000000E+00 -0.13117294106E+04  0.13117294106E+04  0.00000000000E+00 0. -1.
    2000013    1    1    2    0    0  0.41920265990E+03  0.62030392578E+03  0.10954176139E+04  0.16318540312E+04  0.95000000000E+03 0.  0.
   -2000013    1    1    2    0    0 -0.41920265990E+03 -0.62030392578E+03 -0.69300997409E+03  0.13940124299E+04  0.95000000000E+03 0.  0.
<mgrwt>
<rscale>  0 0.29989892E+04</rscale>
<asrwt>0</asrwt>
<pdfrwt beam="1">  1        2 0.26371339E+00 0.29989892E+04</pdfrwt>
<pdfrwt beam="2">  1       -2 0.20180452E+00 0.29989892E+04</pdfrwt>
<totfact> 0.10672029E+00</totfact>
</mgrwt>
</event>
<event>
 4    1  0.2069825E-008  0.3199644E+04  0.7816531E-02  0.8188911E-01
         -2   -1    0    0    0  501 -0.00000000000E+00  0.00000000000E+00  0.13447111175E+04  0.13447111175E+04  0.00000000000E+00 0. -1.
          2   -1    0    0  501    0  0.00000000000E+00 -0.00000000000E+00 -0.19033313754E+04  0.19033313754E+04  0.00000000000E+00 0.  1.
    2000013    1    1    2    0    0  0.10873674152E+04  0.24839956348E+03 -0.93157161691E+03  0.17362015771E+04  0.95000000000E+03 0.  0.
   -2000013    1    1    2    0    0 -0.10873674152E+04 -0.24839956348E+03  0.37295135897E+03  0.15118409159E+04  0.95000000000E+03 0.  0.
<mgrwt>
<rscale>  0 0.31996443E+04</rscale>
<asrwt>0</asrwt>
<pdfrwt beam="2">  1        2 0.29282021E+00 0.31996443E+04</pdfrwt>
<pdfrwt beam="1">  1       -2 0.20687863E+00 0.31996443E+04</pdfrwt>
<totfact> 0.76378733E-01</totfact>
</mgrwt>
</event>
<event>
 4    1  0.2069825E-008  0.2356665E+04  0.7816531E-02  0.8455908E-01
         -2   -1    0    0    0  501 -0.00000000000E+00  0.00000000000E+00  0.36339904791E+03  0.36339904791E+03  0.00000000000E+00 0. -1.
          2   -1    0    0  501    0  0.00000000000E+00 -0.00000000000E+00 -0.38207798844E+04  0.38207798844E+04  0.00000000000E+00 0.  1.
    2000013    1    1    2    0    0  0.62054005946E+03  0.29634287959E+03 -0.15256442886E+04  0.19243127508E+04  0.95000000000E+03 0.  0.
   -2000013    1    1    2    0    0 -0.62054005946E+03 -0.29634287959E+03 -0.19317365479E+04  0.22598661815E+04  0.95000000000E+03 0.  0.
<mgrwt>
<rscale>  0 0.23566652E+04</rscale>
<asrwt>0</asrwt>
<pdfrwt beam="2">  1        2 0.58781230E+00 0.23566652E+04</pdfrwt>
<pdfrwt beam="1">  1       -2 0.55907545E-01 0.23566652E+04</pdfrwt>
<totfact> 0.12889996E+00</totfact>
</mgrwt>
</event>
<event>
 4    1  0.2069825E-008  0.2255365E+04  0.7816531E-02  0.8495731E-01
          2   -1    0    0  501    0  0.00000000000E+00  0.00000000000E+00  0.67241832838E+03  0.67241832838E+03  0.00000000000E+00 0.  1.
         -2   -1    0    0    0  501 -0.00000000000E+00 -0.00000000000E+00 -0.18911858412E+04  0.18911858412E+04  0.00000000000E+00 0. -1.
    2000013    1    1    2    0    0  0.54010224397E+03  0.18421925759E+03 -0.84651173489E+03  0.13945355091E+04  0.95000000000E+03 0.  0.
   -2000013    1    1    2    0    0 -0.54010224397E+03 -0.18421925759E+03 -0.37225577796E+03  0.11690686605E+04  0.95000000000E+03 0.  0.
<mgrwt>
<rscale>  0 0.22553652E+04</rscale>
<asrwt>0</asrwt>
<pdfrwt beam="1">  1        2 0.10344897E+00 0.22553652E+04</pdfrwt>
<pdfrwt beam="2">  1       -2 0.29095167E+00 0.22553652E+04</pdfrwt>
<totfact> 0.14164035E+00</totfact>
</mgrwt>
</event>
<event>
 4    1  0.2069825E-008  0.2066307E+04  0.7816531E-02  0.8576232E-01
          2   -1    0    0  501    0  0.00000000000E+00  0.00000000000E+00  0.10888967895E+04  0.10888967895E+04  0.00000000000E+00 0.  1.
         -2   -1    0    0    0  501 -0.00000000000E+00 -0.00000000000E+00 -0.98026412369E+03  0.98026412369E+03  0.00000000000E+00 0. -1.
    2000013    1    1    2    0    0  0.40416151047E+03 -0.18088288082E+02  0.19157383749E+02  0.10327345826E+04  0.95000000000E+03 0.  0.
   -2000013    1    1    2    0    0 -0.40416151047E+03  0.18088288082E+02  0.89475282068E+02  0.10364263306E+04  0.95000000000E+03 0.  0.
<mgrwt>
<rscale>  0 0.20663073E+04</rscale>
<asrwt>0</asrwt>
<pdfrwt beam="1">  1        2 0.16752258E+00 0.20663073E+04</pdfrwt>
<pdfrwt beam="2">  1       -2 0.15080987E+00 0.20663073E+04</pdfrwt>
<totfact> 0.60411108E+00</totfact>
</mgrwt>
</event>
<event>
 4    1  0.2069825E-008  0.2988188E+04  0.7816531E-02  0.8247112E-01
          2   -1    0    0  501    0  0.00000000000E+00  0.00000000000E+00  0.96560552903E+03  0.96560552903E+03  0.00000000000E+00 0.  1.
         -2   -1    0    0    0  501 -0.00000000000E+00 -0.00000000000E+00 -0.23118305994E+04  0.23118305994E+04  0.00000000000E+00 0. -1.
    2000013    1    1    2    0    0  0.41626480936E+03  0.23243055229E+03 -0.18247580663E+04  0.21117628545E+04  0.95000000000E+03 0.  0.
   -2000013    1    1    2    0    0 -0.41626480936E+03 -0.23243055229E+03  0.47853299599E+03  0.11656732739E+04  0.95000000000E+03 0.  0.
<mgrwt>
<rscale>  0 0.29881877E+04</rscale>
<asrwt>0</asrwt>
<pdfrwt beam="1">  1        2 0.14855470E+00 0.29881877E+04</pdfrwt>
<pdfrwt beam="2">  1       -2 0.35566624E+00 0.29881877E+04</pdfrwt>
<totfact> 0.32541963E-01</totfact>
</mgrwt>
</event>
<event>
 4    1  0.2069825E-008  0.2480934E+04  0.7816531E-02  0.8409810E-01
         -2   -1    0    0    0  501 -0.00000000000E+00  0.00000000000E+00  0.47177728292E+03  0.47177728292E+03  0.00000000000E+00 0. -1.
          2   -1    0    0  501    0  0.00000000000E+00 -0.00000000000E+00 -0.32616190659E+04  0.32616190659E+04  0.00000000000E+00 0.  1.
    2000013    1    1    2    0    0  0.50967109048E+03  0.58139879448E+03 -0.10997713082E+04  0.16461427973E+04  0.95000000000E+03 0.  0.
   -2000013    1    1    2    0    0 -0.50967109048E+03 -0.58139879448E+03 -0.16900704748E+04  0.20872535516E+04  0.95000000000E+03 0.  0.
<mgrwt>
<rscale>  0 0.24809335E+04</rscale>
<asrwt>0</asrwt>
<pdfrwt beam="2">  1        2 0.50178755E+00 0.24809335E+04</pdfrwt>
<pdfrwt beam="1">  1       -2 0.72581120E-01 0.24809335E+04</pdfrwt>
<totfact> 0.18129713E+00</totfact>
</mgrwt>
</event>
<event>
 4    1  0.2069825E-008  0.2420670E+04  0.7816531E-02  0.8431805E-01
         -2   -1    0    0    0  501 -0.00000000000E+00  0.00000000000E+00  0.27053834880E+04  0.27053834880E+04  0.00000000000E+00 0. -1.
          2   -1    0    0  501    0  0.00000000000E+00 -0.00000000000E+00 -0.54147980891E+03  0.54147980891E+03  0.00000000000E+00 0.  1.
    2000013    1    1    2    0    0 -0.64968037793E+03 -0.35607127063E+03  0.92587990528E+03  0.15194159872E+04  0.95000000000E+03 0.  0.
   -2000013    1    1    2    0    0  0.64968037793E+03  0.35607127063E+03  0.12380237738E+04  0.17274473097E+04  0.95000000000E+03 0.  0.
<mgrwt>
<rscale>  0 0.24206698E+04</rscale>
<asrwt>0</asrwt>
<pdfrwt beam="2">  1        2 0.83304588E-01 0.24206698E+04</pdfrwt>
<pdfrwt beam="1">  1       -2 0.41621284E+00 0.24206698E+04</pdfrwt>
<totfact> 0.29249965E-01</totfact>
</mgrwt>
</event>
<event>
 4    1  0.2069825E-008  0.2896090E+04  0.7816531E-02  0.8274042E-01
         -2   -1    0    0    0  501 -0.00000000000E+00  0.00000000000E+00  0.19464769027E+04  0.19464769027E+04  0.00000000000E+00 0. -1.
          2   -1    0    0  501    0  0.00000000000E+00 -0.00000000000E+00 -0.10772456218E+04  0.10772456218E+04  0.00000000000E+00 0.  1.
    2000013    1    1    2    0    0  0.12615434739E+03  0.10754195011E+04  0.58909471996E+03  0.15562694535E+04  0.95000000000E+03 0.  0.
   -2000013    1    1    2    0    0 -0.12615434739E+03 -0.10754195011E+04  0.28013656099E+03  0.14674530710E+04  0.95000000000E+03 0.  0.
<mgrwt>
<rscale>  0 0.28960896E+04</rscale>
<asrwt>0</asrwt>
<pdfrwt beam="2">  1        2 0.16573010E+00 0.28960896E+04</pdfrwt>
<pdfrwt beam="1">  1       -2 0.29945798E+00 0.28960896E+04</pdfrwt>
<totfact> 0.62228057E-01</totfact>
</mgrwt>
</event>
<event>
 4    1  0.2069825E-008  0.2072065E+04  0.7816531E-02  0.8573650E-01
          2   -1    0    0  501    0  0.00000000000E+00  0.00000000000E+00  0.24477980465E+04  0.24477980465E+04  0.00000000000E+00 0.  1.
         -2   -1    0    0    0  501 -0.00000000000E+00 -0.00000000000E+00 -0.43850146858E+03  0.43850146858E+03  0.00000000000E+00 0. -1.
    2000013    1    1    2    0    0 -0.38512526805E+03 -0.31232231445E+02  0.80008672803E+03  0.13007442857E+04  0.95000000000E+03 0.  0.
   -2000013    1    1    2    0    0  0.38512526805E+03  0.31232231445E+02  0.12092098499E+04  0.15855552294E+04  0.95000000000E+03 0.  0.
<mgrwt>
<rscale>  0 0.20720647E+04</rscale>
<asrwt>0</asrwt>
<pdfrwt beam="1">  1        2 0.37658431E+00 0.20720647E+04</pdfrwt>
<pdfrwt beam="2">  1       -2 0.67461766E-01 0.20720647E+04</pdfrwt>
<totfact> 0.69458912E+00</totfact>
</mgrwt>
</event>
<event>
 4    1  0.2069825E-008  0.2337638E+04  0.7816531E-02  0.8463227E-01
         -2   -1    0    0    0  501 -0.00000000000E+00  0.00000000000E+00  0.10169735390E+04  0.10169735390E+04  0.00000000000E+00 0. -1.
          2   -1    0    0  501    0  0.00000000000E+00 -0.00000000000E+00 -0.13433367863E+04  0.13433367863E+04  0.00000000000E+00 0.  1.
    2000013    1    1    2    0    0 -0.10637866988E+03  0.39450309052E+03  0.38679274142E+03  0.11041094758E+04  0.95000000000E+03 0.  0.
   -2000013    1    1    2    0    0  0.10637866988E+03 -0.39450309052E+03 -0.71315598877E+03  0.12562008494E+04  0.95000000000E+03 0.  0.
<mgrwt>
<rscale>  0 0.23376381E+04</rscale>
<asrwt>0</asrwt>
<pdfrwt beam="2">  1        2 0.20666720E+00 0.23376381E+04</pdfrwt>
<pdfrwt beam="1">  1       -2 0.15645747E+00 0.23376381E+04</pdfrwt>
<totfact> 0.37746387E+00</totfact>
</mgrwt>
</event>
<event>
 4    1  0.2069825E-008  0.2246681E+04  0.7816531E-02  0.8499246E-01
         -1   -1    0    0    0  501 -0.00000000000E+00  0.00000000000E+00  0.77028970646E+03  0.77028970646E+03  0.00000000000E+00 0. -1.
          1   -1    0    0  501    0  0.00000000000E+00 -0.00000000000E+00 -0.16382067282E+04  0.16382067282E+04  0.00000000000E+00 0.  1.
    2000013    1    1    2    0    0  0.15842953169E+03 -0.56643245197E+03 -0.30964001880E+03  0.11594492574E+04  0.95000000000E+03 0.  0.
   -2000013    1    1    2    0    0 -0.15842953169E+03  0.56643245197E+03 -0.55827700297E+03  0.12490471773E+04  0.95000000000E+03 0.  0.
<mgrwt>
<rscale>  0 0.22466809E+04</rscale>
<asrwt>0</asrwt>
<pdfrwt beam="2">  1        1 0.25203181E+00 0.22466809E+04</pdfrwt>
<pdfrwt beam="1">  1       -1 0.11850611E+00 0.22466809E+04</pdfrwt>
<totfact> 0.30449183E+00</totfact>
</mgrwt>
</event>
<event>
 4    1  0.2069825E-008  0.2192597E+04  0.7816531E-02  0.8521516E-01
          2   -1    0    0  501    0  0.00000000000E+00  0.00000000000E+00  0.34920440195E+04  0.34920440195E+04  0.00000000000E+00 0.  1.
         -2   -1    0    0    0  501 -0.00000000000E+00 -0.00000000000E+00 -0.34417382822E+03  0.34417382822E+03  0.00000000000E+00 0. -1.
    2000013    1    1    2    0    0  0.41985195801E+03  0.25035315455E+03  0.20039929728E+04  0.22709998247E+04  0.95000000000E+03 0.  0.
   -2000013    1    1    2    0    0 -0.41985195801E+03 -0.25035315455E+03  0.11438772184E+04  0.15652180230E+04  0.95000000000E+03 0.  0.
<mgrwt>
<rscale>  0 0.21925968E+04</rscale>
<asrwt>0</asrwt>
<pdfrwt beam="1">  1        2 0.53723752E+00 0.21925968E+04</pdfrwt>
<pdfrwt beam="2">  1       -2 0.52949822E-01 0.21925968E+04</pdfrwt>
<totfact> 0.25424282E+00</totfact>
</mgrwt>
</event>
<event>
 4    1  0.2069825E-008  0.3355976E+04  0.7816531E-02  0.8148797E-01
         -1   -1    0    0    0  501 -0.00000000000E+00  0.00000000000E+00  0.10461488525E+04  0.10461488525E+04  0.00000000000E+00 0. -1.
          1   -1    0    0  501    0  0.00000000000E+00 -0.00000000000E+00 -0.26914362005E+04  0.26914362005E+04  0.00000000000E+00 0.  1.
    2000013    1    1    2    0    0  0.46469765151E+03  0.43271711355E+03  0.54588621885E+03  0.12663647862E+04  0.95000000000E+03 0.  0.
   -2000013    1    1    2    0    0 -0.46469765151E+03 -0.43271711355E+03 -0.21911735668E+04  0.24712202669E+04  0.95000000000E+03 0.  0.
<mgrwt>
<rscale>  0 0.33559755E+04</rscale>
<asrwt>0</asrwt>
<pdfrwt beam="2">  1        1 0.41406711E+00 0.33559755E+04</pdfrwt>
<pdfrwt beam="1">  1       -1 0.16094598E+00 0.33559755E+04</pdfrwt>
<totfact> 0.23610764E-01</totfact>
</mgrwt>
</event>
<event>
 4    1  0.2069825E-008  0.2213036E+04  0.7816531E-02  0.8513022E-01
         -1   -1    0    0    0  501 -0.00000000000E+00  0.00000000000E+00  0.10636722376E+04  0.10636722376E+04  0.00000000000E+00 0. -1.
          1   -1    0    0  501    0  0.00000000000E+00 -0.00000000000E+00 -0.11510896880E+04  0.11510896880E+04  0.00000000000E+00 0.  1.
    2000013    1    1    2    0    0  0.36930162098E+03  0.13329307222E+03  0.36616092694E+03  0.10912032601E+04  0.95000000000E+03 0.  0.
   -2000013    1    1    2    0    0 -0.36930162098E+03 -0.13329307222E+03 -0.45357837738E+03  0.11235586655E+04  0.95000000000E+03 0.  0.
<mgrwt>
<rscale>  0 0.22130361E+04</rscale>
<asrwt>0</asrwt>
<pdfrwt beam="2">  1        1 0.17709072E+00 0.22130361E+04</pdfrwt>
<pdfrwt beam="1">  1       -1 0.16364188E+00 0.22130361E+04</pdfrwt>
<totfact> 0.29008980E+00</totfact>
</mgrwt>
</event>
<event>
 4    1  0.2069825E-008  0.1947533E+04  0.7816531E-02  0.8631551E-01
          2   -1    0    0  501    0  0.00000000000E+00  0.00000000000E+00  0.26589293323E+03  0.26589293323E+03  0.00000000000E+00 0.  1.
         -2   -1    0    0    0  501 -0.00000000000E+00 -0.00000000000E+00 -0.35661773893E+04  0.35661773893E+04  0.00000000000E+00 0. -1.
    2000013    1    1    2    0    0 -0.11034193416E+03  0.15583294009E+03 -0.18395090017E+04  0.20791230399E+04  0.95000000000E+03 0.  0.
   -2000013    1    1    2    0    0  0.11034193416E+03 -0.15583294009E+03 -0.14607754544E+04  0.17529472827E+04  0.95000000000E+03 0.  0.
<mgrwt>
<rscale>  0 0.19475332E+04</rscale>
<asrwt>0</asrwt>
<pdfrwt beam="1">  1        2 0.40906604E-01 0.19475332E+04</pdfrwt>
<pdfrwt beam="2">  1       -2 0.54864269E+00 0.19475332E+04</pdfrwt>
<totfact> 0.10041437E-01</totfact>
</mgrwt>
</event>
<event>
 4    1  0.2069825E-008  0.2423523E+04  0.7816531E-02  0.8430749E-01
         -2   -1    0    0    0  501 -0.00000000000E+00  0.00000000000E+00  0.12335114659E+04  0.12335114659E+04  0.00000000000E+00 0. -1.
          2   -1    0    0  501    0  0.00000000000E+00 -0.00000000000E+00 -0.11903952012E+04  0.11903952012E+04  0.00000000000E+00 0.  1.
    2000013    1    1    2    0    0 -0.39365002085E+03 -0.38280827277E+03  0.53580252062E+03  0.12211006730E+04  0.95000000000E+03 0.  0.
   -2000013    1    1    2    0    0  0.39365002085E+03  0.38280827277E+03 -0.49268625594E+03  0.12028059941E+04  0.95000000000E+03 0.  0.
<mgrwt>
<rscale>  0 0.24235232E+04</rscale>
<asrwt>0</asrwt>
<pdfrwt beam="2">  1        2 0.18313772E+00 0.24235232E+04</pdfrwt>
<pdfrwt beam="1">  1       -2 0.18977099E+00 0.24235232E+04</pdfrwt>
<totfact> 0.26794848E+00</totfact>
</mgrwt>
</event>
<event>
 4    1  0.2069825E-008  0.2079758E+04  0.7816531E-02  0.8570213E-01
          2   -1    0    0  501    0  0.00000000000E+00  0.00000000000E+00  0.10608966633E+04  0.10608966633E+04  0.00000000000E+00 0.  1.
         -2   -1    0    0    0  501 -0.00000000000E+00 -0.00000000000E+00 -0.10192776286E+04  0.10192776286E+04  0.00000000000E+00 0. -1.
    2000013    1    1    2    0    0  0.38696736718E+03 -0.78813185811E+02 -0.13052501745E+03  0.10370593241E+04  0.95000000000E+03 0.  0.
   -2000013    1    1    2    0    0 -0.38696736718E+03  0.78813185811E+02  0.17214405216E+03  0.10431149679E+04  0.95000000000E+03 0.  0.
<mgrwt>
<rscale>  0 0.20797579E+04</rscale>
<asrwt>0</asrwt>
<pdfrwt beam="1">  1        2 0.16321487E+00 0.20797579E+04</pdfrwt>
<pdfrwt beam="2">  1       -2 0.15681194E+00 0.20797579E+04</pdfrwt>
<totfact> 0.56582472E+00</totfact>
</mgrwt>
</event>
<event>
 4    1  0.2069825E-008  0.2176185E+04  0.7816531E-02  0.8528406E-01
          2   -1    0    0  501    0  0.00000000000E+00  0.00000000000E+00  0.22198788796E+04  0.22198788796E+04  0.00000000000E+00 0.  1.
         -2   -1    0    0    0  501 -0.00000000000E+00 -0.00000000000E+00 -0.53333757457E+03  0.53333757457E+03  0.00000000000E+00 0. -1.
    2000013    1    1    2    0    0 -0.55613463707E+02 -0.42401416881E+03  0.44607574780E+03  0.11332980391E+04  0.95000000000E+03 0.  0.
   -2000013    1    1    2    0    0  0.55613463707E+02  0.42401416881E+03  0.12404655572E+04  0.16199184150E+04  0.95000000000E+03 0.  0.
<mgrwt>
<rscale>  0 0.21761846E+04</rscale>
<asrwt>0</asrwt>
<pdfrwt beam="1">  1        2 0.34151982E+00 0.21761846E+04</pdfrwt>
<pdfrwt beam="2">  1       -2 0.82051936E-01 0.21761846E+04</pdfrwt>
<totfact> 0.60161033E+00</totfact>
</mgrwt>
</event>
<event>
 4    1  0.2069825E-008  0.2767318E+04  0.7816531E-02  0.8313487E-01
         -2   -1    0    0    0  501 -0.00000000000E+00  0.00000000000E+00  0.10899648185E+04  0.10899648185E+04  0.00000000000E+00 0. -1.
          2   -1    0    0  501    0  0.00000000000E+00 -0.00000000000E+00 -0.17564905284E+04  0.17564905284E+04  0.00000000000E+00 0.  1.
    2000013    1    1    2    0    0  0.43896102345E+03  0.89861023216E+03 -0.44511893349E+03  0.14494198820E+04  0.95000000000E+03 0.  0.
   -2000013    1    1    2    0    0 -0.43896102345E+03 -0.89861023216E+03 -0.22140677647E+03  0.13970354649E+04  0.95000000000E+03 0.  0.
<mgrwt>
<rscale>  0 0.27673185E+04</rscale>
<asrwt>0</asrwt>
<pdfrwt beam="2">  1        2 0.27022931E+00 0.27673185E+04</pdfrwt>
<pdfrwt beam="1">  1       -2 0.16768690E+00 0.27673185E+04</pdfrwt>
<totfact> 0.17625086E+00</totfact>
</mgrwt>
</event>
<event>
 4    1  0.2069825E-008  0.2928695E+04  0.7816531E-02  0.8264391E-01
          2   -1    0    0  501    0  0.00000000000E+00  0.00000000000E+00  0.34952438190E+04  0.34952438190E+04  0.00000000000E+00 0.  1.
         -2   -1    0    0    0  501 -0.00000000000E+00 -0.00000000000E+00 -0.61349479084E+03  0.61349479084E+03  0.00000000000E+00 0. -1.
    2000013    1    1    2    0    0  0.34498441633E+03  0.85208704552E+03  0.23245469874E+04  0.26741513190E+04  0.95000000000E+03 0.  0.
   -2000013    1    1    2    0    0 -0.34498441633E+03 -0.85208704552E+03  0.55720204080E+03  0.14345872908E+04  0.95000000000E+03 0.  0.
<mgrwt>
<rscale>  0 0.29286952E+04</rscale>
<asrwt>0</asrwt>
<pdfrwt beam="1">  1        2 0.53772981E+00 0.29286952E+04</pdfrwt>
<pdfrwt beam="2">  1       -2 0.94383816E-01 0.29286952E+04</pdfrwt>
<totfact> 0.66711258E-01</totfact>
</mgrwt>
</event>
<event>
 4    1  0.2069825E-008  0.2340097E+04  0.7816531E-02  0.8462277E-01
         -2   -1    0    0    0  501 -0.00000000000E+00  0.00000000000E+00  0.89564062296E+03  0.89564062296E+03  0.00000000000E+00 0.  1.
          2   -1    0    0  501    0  0.00000000000E+00 -0.00000000000E+00 -0.15285303076E+04  0.15285303076E+04  0.00000000000E+00 0. -1.
    2000013    1    1    2    0    0 -0.43673063744E+03  0.45529393790E+03 -0.45341199382E+02  0.11413071646E+04  0.95000000000E+03 0.  0.
   -2000013    1    1    2    0    0  0.43673063744E+03 -0.45529393790E+03 -0.58754848529E+03  0.12828637660E+04  0.95000000000E+03 0.  0.
<mgrwt>
<rscale>  0 0.23400973E+04</rscale>
<asrwt>0</asrwt>
<pdfrwt beam="2">  1        2 0.23515851E+00 0.23400973E+04</pdfrwt>
<pdfrwt beam="1">  1       -2 0.13779087E+00 0.23400973E+04</pdfrwt>
<totfact> 0.41379107E+00</totfact>
</mgrwt>
</event>
<event>
 4    1  0.2069825E-008  0.2894412E+04  0.7816531E-02  0.8274542E-01
         -4   -1    0    0    0  501 -0.00000000000E+00  0.00000000000E+00  0.83806639438E+03  0.83806639438E+03  0.00000000000E+00 0.  1.
          4   -1    0    0  501    0  0.00000000000E+00 -0.00000000000E+00 -0.24990930283E+04  0.24990930283E+04  0.00000000000E+00 0. -1.
    2000013    1    1    2    0    0  0.10469099596E+04 -0.22707479483E+03 -0.58778052583E+03  0.15477626990E+04  0.95000000000E+03 0.  0.
   -2000013    1    1    2    0    0 -0.10469099596E+04  0.22707479483E+03 -0.10732461081E+04  0.17893967236E+04  0.95000000000E+03 0.  0.
<mgrwt>
<rscale>  0 0.28944125E+04</rscale>
<asrwt>0</asrwt>
<pdfrwt beam="2">  1        4 0.38447585E+00 0.28944125E+04</pdfrwt>
<pdfrwt beam="1">  1       -4 0.12893329E+00 0.28944125E+04</pdfrwt>
<totfact> 0.66109264E-03</totfact>
</mgrwt>
</event>
<event>
 4    1  0.2069825E-008  0.3011869E+04  0.7816531E-02  0.8240350E-01
          2   -1    0    0  501    0  0.00000000000E+00  0.00000000000E+00  0.30489968092E+04  0.30489968092E+04  0.00000000000E+00 0.  1.
         -2   -1    0    0    0  501 -0.00000000000E+00 -0.00000000000E+00 -0.74379848360E+03  0.74379848360E+03  0.00000000000E+00 0. -1.
    2000013    1    1    2    0    0 -0.86731300994E+03  0.30693772164E+02  0.21378744973E+04  0.24952317189E+04  0.95000000000E+03 0.  0.
   -2000013    1    1    2    0    0  0.86731300994E+03 -0.30693772164E+02  0.16732382836E+03  0.12975635739E+04  0.95000000000E+03 0.  0.
<mgrwt>
<rscale>  0 0.30118693E+04</rscale>
<asrwt>0</asrwt>
<pdfrwt beam="1">  1        2 0.46907643E+00 0.30118693E+04</pdfrwt>
<pdfrwt beam="2">  1       -2 0.11443054E+00 0.30118693E+04</pdfrwt>
<totfact> 0.82716921E-01</totfact>
</mgrwt>
</event>
<event>
 4    1  0.2069825E-008  0.2755309E+04  0.7816531E-02  0.8317279E-01
         -2   -1    0    0    0  501 -0.00000000000E+00  0.00000000000E+00  0.73413053624E+03  0.73413053624E+03  0.00000000000E+00 0. -1.
          2   -1    0    0  501    0  0.00000000000E+00 -0.00000000000E+00 -0.25852782784E+04  0.25852782784E+04  0.00000000000E+00 0.  1.
    2000013    1    1    2    0    0 -0.16513286455E+03  0.98186474653E+03 -0.84839119820E+03  0.16166616432E+04  0.95000000000E+03 0.  0.
   -2000013    1    1    2    0    0  0.16513286455E+03 -0.98186474653E+03 -0.10027565440E+04  0.17027471715E+04  0.95000000000E+03 0.  0.
<mgrwt>
<rscale>  0 0.27553089E+04</rscale>
<asrwt>0</asrwt>
<pdfrwt beam="2">  1        2 0.39773511E+00 0.27553089E+04</pdfrwt>
<pdfrwt beam="1">  1       -2 0.11294316E+00 0.27553089E+04</pdfrwt>
<totfact> 0.16701555E+00</totfact>
</mgrwt>
</event>
<event>
 4    1  0.2069825E-008  0.2119140E+04  0.7816531E-02  0.8552859E-01
         -2   -1    0    0    0  501 -0.00000000000E+00  0.00000000000E+00  0.68987015665E+03  0.68987015665E+03  0.00000000000E+00 0. -1.
          2   -1    0    0  501    0  0.00000000000E+00 -0.00000000000E+00 -0.16273905734E+04  0.16273905734E+04  0.00000000000E+00 0.  1.
    2000013    1    1    2    0    0  0.40309336939E+03 -0.98608248835E+02 -0.70828307656E+03  0.12555368444E+04  0.95000000000E+03 0.  0.
   -2000013    1    1    2    0    0 -0.40309336939E+03  0.98608248835E+02 -0.22923734021E+03  0.10617238856E+04  0.95000000000E+03 0.  0.
<mgrwt>
<rscale>  0 0.21191396E+04</rscale>
<asrwt>0</asrwt>
<pdfrwt beam="2">  1        2 0.25036778E+00 0.21191396E+04</pdfrwt>
<pdfrwt beam="1">  1       -2 0.10613387E+00 0.21191396E+04</pdfrwt>
<totfact> 0.70961780E+00</totfact>
</mgrwt>
</event>
<event>
 4    1  0.2069825E-008  0.2861746E+04  0.7816531E-02  0.8284351E-01
          1   -1    0    0  501    0  0.00000000000E+00  0.00000000000E+00  0.18265304109E+04  0.18265304109E+04  0.00000000000E+00 0.  1.
         -1   -1    0    0    0  501 -0.00000000000E+00 -0.00000000000E+00 -0.11209215421E+04  0.11209215421E+04  0.00000000000E+00 0. -1.
    2000013    1    1    2    0    0 -0.25168784092E+03 -0.59043619966E+03  0.12345607689E+04  0.16848151137E+04  0.95000000000E+03 0.  0.
   -2000013    1    1    2    0    0  0.25168784092E+03  0.59043619966E+03 -0.52895190016E+03  0.12626368392E+04  0.95000000000E+03 0.  0.
<mgrwt>
<rscale>  0 0.28617458E+04</rscale>
<asrwt>0</asrwt>
<pdfrwt beam="1">  1        1 0.28100468E+00 0.28617458E+04</pdfrwt>
<pdfrwt beam="2">  1       -1 0.17244947E+00 0.28617458E+04</pdfrwt>
<totfact> 0.79462679E-01</totfact>
</mgrwt>
</event>
<event>
 4    1  0.2069825E-008  0.2263360E+04  0.7816531E-02  0.8492509E-01
          2   -1    0    0  501    0  0.00000000000E+00  0.00000000000E+00  0.18009839177E+04  0.18009839177E+04  0.00000000000E+00 0.  1.
         -2   -1    0    0    0  501 -0.00000000000E+00 -0.00000000000E+00 -0.71111124888E+03  0.71111124888E+03  0.00000000000E+00 0. -1.
    2000013    1    1    2    0    0 -0.42797993555E+03  0.43178679191E+03  0.64782356510E+03  0.13006852157E+04  0.95000000000E+03 0.  0.
   -2000013    1    1    2    0    0  0.42797993555E+03 -0.43178679191E+03  0.44204910369E+03  0.12114099508E+04  0.95000000000E+03 0.  0.
<mgrwt>
<rscale>  0 0.22633603E+04</rscale>
<asrwt>0</asrwt>
<pdfrwt beam="1">  1        2 0.27707445E+00 0.22633603E+04</pdfrwt>
<pdfrwt beam="2">  1       -2 0.10940173E+00 0.22633603E+04</pdfrwt>
<totfact> 0.52174199E+00</totfact>
</mgrwt>
</event>
<event>
 4    1  0.2069825E-008  0.4777514E+04  0.7816531E-02  0.7863775E-01
          2   -1    0    0  501    0  0.00000000000E+00  0.00000000000E+00  0.28986129942E+04  0.28986129942E+04  0.00000000000E+00 0.  1.
         -2   -1    0    0    0  501 -0.00000000000E+00 -0.00000000000E+00 -0.19685831583E+04  0.19685831583E+04  0.00000000000E+00 0. -1.
    2000013    1    1    2    0    0  0.87399530432E+03 -0.19188242594E+04 -0.14446806002E+03  0.23171373181E+04  0.95000000000E+03 0.  0.
   -2000013    1    1    2    0    0 -0.87399530432E+03  0.19188242594E+04  0.10744978959E+04  0.25500588344E+04  0.95000000000E+03 0.  0.
<mgrwt>
<rscale>  0 0.47775143E+04</rscale>
<asrwt>0</asrwt>
<pdfrwt beam="1">  1        2 0.44594046E+00 0.47775143E+04</pdfrwt>
<pdfrwt beam="2">  1       -2 0.30285895E+00 0.47775143E+04</pdfrwt>
<totfact> 0.45519957E-02</totfact>
</mgrwt>
</event>
<event>
 4    1  0.2069825E-008  0.1994681E+04  0.7816531E-02  0.8609111E-01
         -1   -1    0    0    0  501 -0.00000000000E+00  0.00000000000E+00  0.30579619019E+03  0.30579619019E+03  0.00000000000E+00 0. -1.
          1   -1    0    0  501    0  0.00000000000E+00 -0.00000000000E+00 -0.32527820040E+04  0.32527820040E+04  0.00000000000E+00 0.  1.
    2000013    1    1    2    0    0 -0.54789861403E+02  0.22656152479E+03 -0.11263789844E+04  0.14918316493E+04  0.95000000000E+03 0.  0.
   -2000013    1    1    2    0    0  0.54789861403E+02 -0.22656152479E+03 -0.18206068294E+04  0.20667465448E+04  0.95000000000E+03 0.  0.
<mgrwt>
<rscale>  0 0.19946813E+04</rscale>
<asrwt>0</asrwt>
<pdfrwt beam="2">  1        1 0.50042798E+00 0.19946813E+04</pdfrwt>
<pdfrwt beam="1">  1       -1 0.47045569E-01 0.19946813E+04</pdfrwt>
<totfact> 0.16267214E+00</totfact>
</mgrwt>
</event>
<event>
 4    1  0.2069825E-008  0.2509741E+04  0.7816531E-02  0.8399524E-01
         -1   -1    0    0    0  501 -0.00000000000E+00  0.00000000000E+00  0.14286797033E+04  0.14286797033E+04  0.00000000000E+00 0. -1.
          1   -1    0    0  501    0  0.00000000000E+00 -0.00000000000E+00 -0.11022061981E+04  0.11022061981E+04  0.00000000000E+00 0.  1.
    2000013    1    1    2    0    0  0.81015331891E+03 -0.50688224271E+02  0.27945498514E+03  0.12804346078E+04  0.95000000000E+03 0.  0.
   -2000013    1    1    2    0    0 -0.81015331891E+03  0.50688224271E+02  0.47018520080E+02  0.12504512935E+04  0.95000000000E+03 0.  0.
<mgrwt>
<rscale>  0 0.25097407E+04</rscale>
<asrwt>0</asrwt>
<pdfrwt beam="2">  1        1 0.16957018E+00 0.25097407E+04</pdfrwt>
<pdfrwt beam="1">  1       -1 0.21979688E+00 0.25097407E+04</pdfrwt>
<totfact> 0.12376635E+00</totfact>
</mgrwt>
</event>
<event>
 4    1  0.2069825E-008  0.2030830E+04  0.7816531E-02  0.8592341E-01
          2   -1    0    0  501    0  0.00000000000E+00  0.00000000000E+00  0.44778824492E+04  0.44778824492E+04  0.00000000000E+00 0.  1.
         -2   -1    0    0    0  501 -0.00000000000E+00 -0.00000000000E+00 -0.23025779512E+03  0.23025779512E+03  0.00000000000E+00 0. -1.
    2000013    1    1    2    0    0  0.10928188296E+03 -0.33493164591E+03  0.22783880112E+04  0.24935263517E+04  0.95000000000E+03 0.  0.
   -2000013    1    1    2    0    0 -0.10928188296E+03  0.33493164591E+03  0.19692366429E+04  0.22146138925E+04  0.95000000000E+03 0.  0.
<mgrwt>
<rscale>  0 0.20308297E+04</rscale>
<asrwt>0</asrwt>
<pdfrwt beam="1">  1        2 0.68890493E+00 0.20308297E+04</pdfrwt>
<pdfrwt beam="2">  1       -2 0.35424279E-01 0.20308297E+04</pdfrwt>
<totfact> 0.91133092E-01</totfact>
</mgrwt>
</event>
<event>
 4    1  0.2069825E-008  0.2265388E+04  0.7816531E-02  0.8491694E-01
         -2   -1    0    0    0  501 -0.00000000000E+00  0.00000000000E+00  0.38172575325E+03  0.38172575325E+03  0.00000000000E+00 0. -1.
          2   -1    0    0  501    0  0.00000000000E+00 -0.00000000000E+00 -0.33610407719E+04  0.33610407719E+04  0.00000000000E+00 0.  1.
    2000013    1    1    2    0    0  0.41576855681E+03  0.43044665195E+03 -0.17366419093E+04  0.20679876533E+04  0.95000000000E+03 0.  0.
   -2000013    1    1    2    0    0 -0.41576855681E+03 -0.43044665195E+03 -0.12426731094E+04  0.16747788719E+04  0.95000000000E+03 0.  0.
<mgrwt>
<rscale>  0 0.22653881E+04</rscale>
<asrwt>0</asrwt>
<pdfrwt beam="2">  1        2 0.51708319E+00 0.22653881E+04</pdfrwt>
<pdfrwt beam="1">  1       -2 0.58727040E-01 0.22653881E+04</pdfrwt>
<totfact> 0.25025585E+00</totfact>
</mgrwt>
</event>
<event>
 4    1  0.2069825E-008  0.2356537E+04  0.7816531E-02  0.8455957E-01
          2   -1    0    0  501    0  0.00000000000E+00  0.00000000000E+00  0.29590973598E+04  0.29590973598E+04  0.00000000000E+00 0.  1.
         -2   -1    0    0    0  501 -0.00000000000E+00 -0.00000000000E+00 -0.46916915100E+03  0.46916915100E+03  0.00000000000E+00 0. -1.
    2000013    1    1    2    0    0 -0.19299518731E+03  0.60706993897E+03  0.16565337194E+04  0.20130536547E+04  0.95000000000E+03 0.  0.
   -2000013    1    1    2    0    0  0.19299518731E+03 -0.60706993897E+03  0.83339448940E+03  0.14152128561E+04  0.95000000000E+03 0.  0.
<mgrwt>
<rscale>  0 0.23565375E+04</rscale>
<asrwt>0</asrwt>
<pdfrwt beam="1">  1        2 0.45524574E+00 0.23565375E+04</pdfrwt>
<pdfrwt beam="2">  1       -2 0.72179871E-01 0.23565375E+04</pdfrwt>
<totfact> 0.28978978E+00</totfact>
</mgrwt>
</event>
<event>
 4    1  0.2069825E-008  0.2528447E+04  0.7816531E-02  0.8392921E-01
          2   -1    0    0  501    0  0.00000000000E+00  0.00000000000E+00  0.67170622770E+03  0.67170622770E+03  0.00000000000E+00 0.  1.
         -2   -1    0    0    0  501 -0.00000000000E+00 -0.00000000000E+00 -0.23794042981E+04  0.23794042981E+04  0.00000000000E+00 0. -1.
    2000013    1    1    2    0    0 -0.22373305955E+03  0.80008485980E+03 -0.94389622123E+03  0.15759544223E+04  0.95000000000E+03 0.  0.
   -2000013    1    1    2    0    0  0.22373305955E+03 -0.80008485980E+03 -0.76380184920E+03  0.14751561035E+04  0.95000000000E+03 0.  0.
<mgrwt>
<rscale>  0 0.25284467E+04</rscale>
<asrwt>0</asrwt>
<pdfrwt beam="1">  1        2 0.10333942E+00 0.25284467E+04</pdfrwt>
<pdfrwt beam="2">  1       -2 0.36606219E+00 0.25284467E+04</pdfrwt>
<totfact> 0.47268784E-01</totfact>
</mgrwt>
</event>
<event>
 4    1  0.2069825E-008  0.2096584E+04  0.7816531E-02  0.8562750E-01
          2   -1    0    0  501    0  0.00000000000E+00  0.00000000000E+00  0.75394997137E+03  0.75394997137E+03  0.00000000000E+00 0.  1.
         -2   -1    0    0    0  501 -0.00000000000E+00 -0.00000000000E+00 -0.14575447721E+04  0.14575447721E+04  0.00000000000E+00 0. -1.
    2000013    1    1    2    0    0  0.42684755578E+03  0.11495945294E+03 -0.38517551300E+03  0.11163667352E+04  0.95000000000E+03 0.  0.
   -2000013    1    1    2    0    0 -0.42684755578E+03 -0.11495945294E+03 -0.31841928778E+03  0.10951280083E+04  0.95000000000E+03 0.  0.
<mgrwt>
<rscale>  0 0.20965837E+04</rscale>
<asrwt>0</asrwt>
<pdfrwt beam="1">  1        2 0.11599230E+00 0.20965837E+04</pdfrwt>
<pdfrwt beam="2">  1       -2 0.22423766E+00 0.20965837E+04</pdfrwt>
<totfact> 0.31889430E+00</totfact>
</mgrwt>
</event>
<event>
 4    1  0.2069825E-008  0.3446264E+04  0.7816531E-02  0.8126644E-01
          2   -1    0    0  501    0  0.00000000000E+00  0.00000000000E+00  0.15764124299E+04  0.15764124299E+04  0.00000000000E+00 0.  1.
         -2   -1    0    0    0  501 -0.00000000000E+00 -0.00000000000E+00 -0.18835071910E+04  0.18835071910E+04  0.00000000000E+00 0. -1.
    2000013    1    1    2    0    0 -0.11288363154E+04 -0.47188682095E+03  0.60425175671E+03  0.16626992465E+04  0.95000000000E+03 0.  0.
   -2000013    1    1    2    0    0  0.11288363154E+04  0.47188682095E+03 -0.91134651776E+03  0.17972203744E+04  0.95000000000E+03 0.  0.
<mgrwt>
<rscale>  0 0.34462641E+04</rscale>
<asrwt>0</asrwt>
<pdfrwt beam="1">  1        2 0.24252499E+00 0.34462641E+04</pdfrwt>
<pdfrwt beam="2">  1       -2 0.28977034E+00 0.34462641E+04</pdfrwt>
<totfact> 0.34828082E-01</totfact>
</mgrwt>
</event>
<event>
 4    1  0.2069825E-008  0.2501518E+04  0.7816531E-02  0.8402445E-01
         -2   -1    0    0    0  501 -0.00000000000E+00  0.00000000000E+00  0.64420160163E+03  0.64420160163E+03  0.00000000000E+00 0. -1.
          2   -1    0    0  501    0  0.00000000000E+00 -0.00000000000E+00 -0.24284286671E+04  0.24284286671E+04  0.00000000000E+00 0.  1.
    2000013    1    1    2    0    0  0.96358215233E+02  0.61777541160E+03 -0.15315013416E+04  0.19075973695E+04  0.95000000000E+03 0.  0.
   -2000013    1    1    2    0    0 -0.96358215233E+02 -0.61777541160E+03 -0.25272572390E+03  0.11650328993E+04  0.95000000000E+03 0.  0.
<mgrwt>
<rscale>  0 0.25015176E+04</rscale>
<asrwt>0</asrwt>
<pdfrwt beam="2">  1        2 0.37360441E+00 0.25015176E+04</pdfrwt>
<pdfrwt beam="1">  1       -2 0.99107939E-01 0.25015176E+04</pdfrwt>
<totfact> 0.28802795E+00</totfact>
</mgrwt>
</event>
<event>
 4    1  0.2069825E-008  0.2912541E+04  0.7816531E-02  0.8269156E-01
         -4   -1    0    0    0  501 -0.00000000000E+00  0.00000000000E+00  0.10629679255E+04  0.10629679255E+04  0.00000000000E+00 0. -1.
          4   -1    0    0  501    0  0.00000000000E+00 -0.00000000000E+00 -0.19950963101E+04  0.19950963101E+04  0.00000000000E+00 0.  1.
    2000013    1    1    2    0    0 -0.61642874902E+03  0.17614024702E+03  0.47727706647E+03  0.12414923227E+04  0.95000000000E+03 0.  0.
   -2000013    1    1    2    0    0  0.61642874902E+03 -0.17614024702E+03 -0.14094054510E+04  0.18165719128E+04  0.95000000000E+03 0.  0.
<mgrwt>
<rscale>  0 0.29125407E+04</rscale>
<asrwt>0</asrwt>
<pdfrwt beam="2">  1        4 0.30693789E+00 0.29125407E+04</pdfrwt>
<pdfrwt beam="1">  1       -4 0.16353353E+00 0.29125407E+04</pdfrwt>
<totfact> 0.11278542E-02</totfact>
</mgrwt>
</event>
<event>
 4    1  0.2069825E-008  0.4116505E+04  0.7816531E-02  0.7981448E-01
          2   -1    0    0  501    0  0.00000000000E+00  0.00000000000E+00  0.26716139075E+04  0.26716139075E+04  0.00000000000E+00 0.  1.
         -2   -1    0    0    0  501 -0.00000000000E+00 -0.00000000000E+00 -0.15857091668E+04  0.15857091668E+04  0.00000000000E+00 0. -1.
    2000013    1    1    2    0    0 -0.12287031981E+04 -0.13505526299E+04  0.55753096566E+03  0.21323800630E+04  0.95000000000E+03 0.  0.
   -2000013    1    1    2    0    0  0.12287031981E+04  0.13505526299E+04  0.52837377502E+03  0.21249430113E+04  0.95000000000E+03 0.  0.
<mgrwt>
<rscale>  0 0.41165047E+04</rscale>
<asrwt>0</asrwt>
<pdfrwt beam="1">  1        2 0.41101752E+00 0.41165047E+04</pdfrwt>
<pdfrwt beam="2">  1       -2 0.24395526E+00 0.41165047E+04</pdfrwt>
<totfact> 0.15105384E-01</totfact>
</mgrwt>
</event>
<event>
 4    1  0.2069825E-008  0.2417628E+04  0.7816531E-02  0.8432933E-01
         -2   -1    0    0    0  501 -0.00000000000E+00  0.00000000000E+00  0.91378811711E+03  0.91378811711E+03  0.00000000000E+00 0.  1.
          2   -1    0    0  501    0  0.00000000000E+00 -0.00000000000E+00 -0.15990925973E+04  0.15990925973E+04  0.00000000000E+00 0. -1.
    2000013    1    1    2    0    0  0.74245337711E+03  0.38503588603E+02 -0.26205845407E+03  0.12344610876E+04  0.95000000000E+03 0.  0.
   -2000013    1    1    2    0    0 -0.74245337711E+03 -0.38503588603E+02 -0.42324602611E+03  0.12784196268E+04  0.95000000000E+03 0.  0.
<mgrwt>
<rscale>  0 0.24176284E+04</rscale>
<asrwt>0</asrwt>
<pdfrwt beam="2">  1        2 0.24601424E+00 0.24176284E+04</pdfrwt>
<pdfrwt beam="1">  1       -2 0.14058279E+00 0.24176284E+04</pdfrwt>
<totfact> 0.35626000E+00</totfact>
</mgrwt>
</event>
<event>
 4    1  0.2069825E-008  0.2820213E+04  0.7816531E-02  0.8297020E-01
         -2   -1    0    0    0  501 -0.00000000000E+00  0.00000000000E+00  0.95082650049E+03  0.95082650049E+03  0.00000000000E+00 0. -1.
          2   -1    0    0  501    0  0.00000000000E+00 -0.00000000000E+00 -0.20912337615E+04  0.20912337615E+04  0.00000000000E+00 0.  1.
    2000013    1    1    2    0    0  0.66026166476E+03 -0.40759355415E+03  0.18008596138E+03  0.12397616403E+04  0.95000000000E+03 0.  0.
   -2000013    1    1    2    0    0 -0.66026166476E+03  0.40759355415E+03 -0.13204932224E+04  0.18022986217E+04  0.95000000000E+03 0.  0.
<mgrwt>
<rscale>  0 0.28202131E+04</rscale>
<asrwt>0</asrwt>
<pdfrwt beam="2">  1        2 0.32172827E+00 0.28202131E+04</pdfrwt>
<pdfrwt beam="1">  1       -2 0.14628100E+00 0.28202131E+04</pdfrwt>
<totfact> 0.16529438E+00</totfact>
</mgrwt>
</event>
<event>
 4    1  0.2069825E-008  0.2647004E+04  0.7816531E-02  0.8352408E-01
          2   -1    0    0  501    0  0.00000000000E+00  0.00000000000E+00  0.17866270762E+04  0.17866270762E+04  0.00000000000E+00 0.  1.
         -2   -1    0    0    0  501 -0.00000000000E+00 -0.00000000000E+00 -0.98042687734E+03  0.98042687734E+03  0.00000000000E+00 0. -1.
    2000013    1    1    2    0    0 -0.72865703567E+03  0.53761692668E+03  0.22451848559E+03  0.13314959954E+04  0.95000000000E+03 0.  0.
   -2000013    1    1    2    0    0  0.72865703567E+03 -0.53761692668E+03  0.58168171326E+03  0.14355579581E+04  0.95000000000E+03 0.  0.
<mgrwt>
<rscale>  0 0.26470037E+04</rscale>
<asrwt>0</asrwt>
<pdfrwt beam="1">  1        2 0.27486570E+00 0.26470037E+04</pdfrwt>
<pdfrwt beam="2">  1       -2 0.15083490E+00 0.26470037E+04</pdfrwt>
<totfact> 0.22837333E+00</totfact>
</mgrwt>
</event>
<event>
 4    1  0.2069825E-008  0.2530099E+04  0.7816531E-02  0.8392340E-01
          2   -1    0    0  501    0  0.00000000000E+00  0.00000000000E+00  0.22821444425E+04  0.22821444425E+04  0.00000000000E+00 0.  1.
         -2   -1    0    0    0  501 -0.00000000000E+00 -0.00000000000E+00 -0.70124863954E+03  0.70124863954E+03  0.00000000000E+00 0. -1.
    2000013    1    1    2    0    0  0.69098346310E+03 -0.27764990051E+03  0.34407208984E+03  0.12551626255E+04  0.95000000000E+03 0.  0.
   -2000013    1    1    2    0    0 -0.69098346310E+03  0.27764990051E+03  0.12368237132E+04  0.17282304566E+04  0.95000000000E+03 0.  0.
<mgrwt>
<rscale>  0 0.25300994E+04</rscale>
<asrwt>0</asrwt>
<pdfrwt beam="1">  1        2 0.35109914E+00 0.25300994E+04</pdfrwt>
<pdfrwt beam="2">  1       -2 0.10788441E+00 0.25300994E+04</pdfrwt>
<totfact> 0.28426378E+00</totfact>
</mgrwt>
</event>
<event>
 4    1  0.2069825E-008  0.2529281E+04  0.7816531E-02  0.8392628E-01
          1   -1    0    0  501    0  0.00000000000E+00  0.00000000000E+00  0.99450880214E+03  0.99450880214E+03  0.00000000000E+00 0.  1.
         -1   -1    0    0    0  501 -0.00000000000E+00 -0.00000000000E+00 -0.16081467121E+04  0.16081467121E+04  0.00000000000E+00 0. -1.
    2000013    1    1    2    0    0 -0.45855863002E+03 -0.53944288540E+03 -0.76184779420E+03  0.14086116233E+04  0.95000000000E+03 0.  0.
   -2000013    1    1    2    0    0  0.45855863002E+03  0.53944288540E+03  0.14820988421E+03  0.11940438910E+04  0.95000000000E+03 0.  0.
<mgrwt>
<rscale>  0 0.25292814E+04</rscale>
<asrwt>0</asrwt>
<pdfrwt beam="1">  1        1 0.15300135E+00 0.25292814E+04</pdfrwt>
<pdfrwt beam="2">  1       -1 0.24740719E+00 0.25292814E+04</pdfrwt>
<totfact> 0.98169080E-01</totfact>
</mgrwt>
</event>
<event>
 4    1  0.2069825E-008  0.2465664E+04  0.7816531E-02  0.8415321E-01
          2   -1    0    0  501    0  0.00000000000E+00  0.00000000000E+00  0.28346634140E+04  0.28346634140E+04  0.00000000000E+00 0.  1.
         -2   -1    0    0    0  501 -0.00000000000E+00 -0.00000000000E+00 -0.53617479512E+03  0.53617479512E+03  0.00000000000E+00 0. -1.
    2000013    1    1    2    0    0  0.75425260145E+03  0.21790202522E+03  0.11060817614E+04  0.16559876637E+04  0.95000000000E+03 0.  0.
   -2000013    1    1    2    0    0 -0.75425260145E+03 -0.21790202522E+03  0.11924068575E+04  0.17148505454E+04  0.95000000000E+03 0.  0.
<mgrwt>
<rscale>  0 0.24656643E+04</rscale>
<asrwt>0</asrwt>
<pdfrwt beam="1">  1        2 0.43610206E+00 0.24656643E+04</pdfrwt>
<pdfrwt beam="2">  1       -2 0.82488432E-01 0.24656643E+04</pdfrwt>
<totfact> 0.25416664E+00</totfact>
</mgrwt>
</event>
<event>
 4    1  0.2069825E-008  0.2249399E+04  0.7816531E-02  0.8498144E-01
         -2   -1    0    0    0  501 -0.00000000000E+00  0.00000000000E+00  0.12231981606E+04  0.12231981606E+04  0.00000000000E+00 0. -1.
          2   -1    0    0  501    0  0.00000000000E+00 -0.00000000000E+00 -0.10341324844E+04  0.10341324844E+04  0.00000000000E+00 0.  1.
    2000013    1    1    2    0    0  0.36818911129E+03 -0.42326637133E+03 -0.12471249552E+03  0.11103021433E+04  0.95000000000E+03 0.  0.
   -2000013    1    1    2    0    0 -0.36818911129E+03  0.42326637133E+03  0.31377817178E+03  0.11470285018E+04  0.95000000000E+03 0.  0.
<mgrwt>
<rscale>  0 0.22493990E+04</rscale>
<asrwt>0</asrwt>
<pdfrwt beam="2">  1        2 0.15909731E+00 0.22493990E+04</pdfrwt>
<pdfrwt beam="1">  1       -2 0.18818433E+00 0.22493990E+04</pdfrwt>
<totfact> 0.34761072E+00</totfact>
</mgrwt>
</event>
<event>
 4    1  0.2069825E-008  0.2109803E+04  0.7816531E-02  0.8556937E-01
         -1   -1    0    0    0  501 -0.00000000000E+00  0.00000000000E+00  0.34958905236E+03  0.34958905236E+03  0.00000000000E+00 0. -1.
          1   -1    0    0  501    0  0.00000000000E+00 -0.00000000000E+00 -0.31832160865E+04  0.31832160865E+04  0.00000000000E+00 0.  1.
    2000013    1    1    2    0    0  0.41233480974E+03  0.19334384820E+03 -0.15072296381E+04  0.18389244195E+04  0.95000000000E+03 0.  0.
   -2000013    1    1    2    0    0 -0.41233480974E+03 -0.19334384820E+03 -0.13263973961E+04  0.16938807193E+04  0.95000000000E+03 0.  0.
<mgrwt>
<rscale>  0 0.21098033E+04</rscale>
<asrwt>0</asrwt>
<pdfrwt beam="2">  1        1 0.48972555E+00 0.21098033E+04</pdfrwt>
<pdfrwt beam="1">  1       -1 0.53782932E-01 0.21098033E+04</pdfrwt>
<totfact> 0.14057654E+00</totfact>
</mgrwt>
</event>
<event>
 4    1  0.2069825E-008  0.2669365E+04  0.7816531E-02  0.8345014E-01
         -2   -1    0    0    0  501 -0.00000000000E+00  0.00000000000E+00  0.11709329539E+04  0.11709329539E+04  0.00000000000E+00 0. -1.
          2   -1    0    0  501    0  0.00000000000E+00 -0.00000000000E+00 -0.15213318268E+04  0.15213318268E+04  0.00000000000E+00 0.  1.
    2000013    1    1    2    0    0 -0.26249469978E+03 -0.88821137525E+03 -0.28852427053E+02  0.13270852938E+04  0.95000000000E+03 0.  0.
   -2000013    1    1    2    0    0  0.26249469978E+03  0.88821137525E+03 -0.32154644585E+03  0.13651794869E+04  0.95000000000E+03 0.  0.
<mgrwt>
<rscale>  0 0.26693651E+04</rscale>
<asrwt>0</asrwt>
<pdfrwt beam="2">  1        2 0.23405105E+00 0.26693651E+04</pdfrwt>
<pdfrwt beam="1">  1       -2 0.18014353E+00 0.26693651E+04</pdfrwt>
<totfact> 0.19648209E+00</totfact>
</mgrwt>
</event>
<event>
 4    1  0.2069825E-008  0.3323191E+04  0.7816531E-02  0.8157019E-01
         -2   -1    0    0    0  501 -0.00000000000E+00  0.00000000000E+00  0.58969810922E+03  0.58969810922E+03  0.00000000000E+00 0. -1.
          2   -1    0    0  501    0  0.00000000000E+00 -0.00000000000E+00 -0.46818856101E+04  0.46818856101E+04  0.00000000000E+00 0.  1.
    2000013    1    1    2    0    0 -0.51122497495E+03  0.87482768287E+03 -0.59940324955E+03  0.15127652512E+04  0.95000000000E+03 0.  0.
   -2000013    1    1    2    0    0  0.51122497495E+03 -0.87482768287E+03 -0.34927842513E+04  0.37588184681E+04  0.95000000000E+03 0.  0.
<mgrwt>
<rscale>  0 0.33231907E+04</rscale>
<asrwt>0</asrwt>
<pdfrwt beam="2">  1        2 0.72029011E+00 0.33231907E+04</pdfrwt>
<pdfrwt beam="1">  1       -2 0.90722784E-01 0.33231907E+04</pdfrwt>
<totfact> 0.69102535E-02</totfact>
</mgrwt>
</event>
<event>
 4    1  0.2069825E-008  0.2506504E+04  0.7816531E-02  0.8400672E-01
          2   -1    0    0  501    0  0.00000000000E+00  0.00000000000E+00  0.33074189697E+04  0.33074189697E+04  0.00000000000E+00 0.  1.
         -2   -1    0    0    0  501 -0.00000000000E+00 -0.00000000000E+00 -0.47488398246E+03  0.47488398246E+03  0.00000000000E+00 0. -1.
    2000013    1    1    2    0    0  0.35573033231E+03  0.65012388775E+03  0.19366744187E+04  0.22808798616E+04  0.95000000000E+03 0.  0.
   -2000013    1    1    2    0    0 -0.35573033231E+03 -0.65012388775E+03  0.89586056854E+03  0.15014230906E+04  0.95000000000E+03 0.  0.
<mgrwt>
<rscale>  0 0.25065038E+04</rscale>
<asrwt>0</asrwt>
<pdfrwt beam="1">  1        2 0.50883367E+00 0.25065038E+04</pdfrwt>
<pdfrwt beam="2">  1       -2 0.73059076E-01 0.25065038E+04</pdfrwt>
<totfact> 0.16623168E+00</totfact>
</mgrwt>
</event>
<event>
 4    1  0.2069825E-008  0.3374245E+04  0.7816531E-02  0.8144257E-01
         -2   -1    0    0    0  501 -0.00000000000E+00  0.00000000000E+00  0.21732757753E+04  0.21732757753E+04  0.00000000000E+00 0. -1.
          2   -1    0    0  501    0  0.00000000000E+00 -0.00000000000E+00 -0.13097197849E+04  0.13097197849E+04  0.00000000000E+00 0.  1.
    2000013    1    1    2    0    0  0.10818302165E+04 -0.87950282764E+03  0.43246259258E+03  0.17416675157E+04  0.95000000000E+03 0.  0.
   -2000013    1    1    2    0    0 -0.10818302165E+04  0.87950282764E+03  0.43109339779E+03  0.17413280446E+04  0.95000000000E+03 0.  0.
<mgrwt>
<rscale>  0 0.33742450E+04</rscale>
<asrwt>0</asrwt>
<pdfrwt beam="2">  1        2 0.20149535E+00 0.33742450E+04</pdfrwt>
<pdfrwt beam="1">  1       -2 0.33435012E+00 0.33742450E+04</pdfrwt>
<totfact> 0.26411083E-01</totfact>
</mgrwt>
</event>
<event>
 4    1  0.2069825E-008  0.2149858E+04  0.7816531E-02  0.8539593E-01
         -2   -1    0    0    0  501 -0.00000000000E+00  0.00000000000E+00  0.39655174682E+03  0.39655174682E+03  0.00000000000E+00 0. -1.
          2   -1    0    0  501    0  0.00000000000E+00 -0.00000000000E+00 -0.29137998746E+04  0.29137998746E+04  0.00000000000E+00 0.  1.
    2000013    1    1    2    0    0 -0.17314724785E+03 -0.10033686024E+03 -0.54810188385E+03  0.11148825633E+04  0.95000000000E+03 0.  0.
   -2000013    1    1    2    0    0  0.17314724785E+03  0.10033686024E+03 -0.19691462439E+04  0.21954690581E+04  0.95000000000E+03 0.  0.
<mgrwt>
<rscale>  0 0.21498581E+04</rscale>
<asrwt>0</asrwt>
<pdfrwt beam="2">  1        2 0.44827689E+00 0.21498581E+04</pdfrwt>
<pdfrwt beam="1">  1       -2 0.61007963E-01 0.21498581E+04</pdfrwt>
<totfact> 0.45258425E+00</totfact>
</mgrwt>
</event>
<event>
 4    1  0.2069825E-008  0.1977749E+04  0.7816531E-02  0.8617095E-01
         -2   -1    0    0    0  501 -0.00000000000E+00  0.00000000000E+00  0.71086690474E+03  0.71086690474E+03  0.00000000000E+00 0. -1.
          2   -1    0    0  501    0  0.00000000000E+00 -0.00000000000E+00 -0.13756061393E+04  0.13756061393E+04  0.00000000000E+00 0.  1.
    2000013    1    1    2    0    0  0.23561796034E+03 -0.10166845296E+03 -0.43530704316E+03  0.10760318394E+04  0.95000000000E+03 0.  0.
   -2000013    1    1    2    0    0 -0.23561796034E+03  0.10166845296E+03 -0.22943219137E+03  0.10104412046E+04  0.95000000000E+03 0.  0.
<mgrwt>
<rscale>  0 0.19777491E+04</rscale>
<asrwt>0</asrwt>
<pdfrwt beam="2">  1        2 0.21163171E+00 0.19777491E+04</pdfrwt>
<pdfrwt beam="1">  1       -2 0.10936414E+00 0.19777491E+04</pdfrwt>
<totfact> 0.92697757E+00</totfact>
</mgrwt>
</event>
<event>
 4    1  0.2069825E-008  0.2514388E+04  0.7816531E-02  0.8397878E-01
         -2   -1    0    0    0  501 -0.00000000000E+00  0.00000000000E+00  0.60936213578E+03  0.60936213578E+03  0.00000000000E+00 0. -1.
          2   -1    0    0  501    0  0.00000000000E+00 -0.00000000000E+00 -0.25937565459E+04  0.25937565459E+04  0.00000000000E+00 0.  1.
    2000013    1    1    2    0    0 -0.91212526681E+02  0.81763820850E+03 -0.94834297310E+03  0.15743907900E+04  0.95000000000E+03 0.  0.
   -2000013    1    1    2    0    0  0.91212526681E+02 -0.81763820850E+03 -0.10360514371E+04  0.16287278917E+04  0.95000000000E+03 0.  0.
<mgrwt>
<rscale>  0 0.25143882E+04</rscale>
<asrwt>0</asrwt>
<pdfrwt beam="2">  1        2 0.39903947E+00 0.25143882E+04</pdfrwt>
<pdfrwt beam="1">  1       -2 0.93748020E-01 0.25143882E+04</pdfrwt>
<totfact> 0.26278305E+00</totfact>
</mgrwt>
</event>
<event>
 4    1  0.2069825E-008  0.2484833E+04  0.7816531E-02  0.8408409E-01
         -2   -1    0    0    0  501 -0.00000000000E+00  0.00000000000E+00  0.40422448425E+03  0.40422448425E+03  0.00000000000E+00 0. -1.
          2   -1    0    0  501    0  0.00000000000E+00 -0.00000000000E+00 -0.38186675736E+04  0.38186675736E+04  0.00000000000E+00 0.  1.
    2000013    1    1    2    0    0  0.77371581142E+03 -0.16849759071E+02 -0.13581936278E+04  0.18292375466E+04  0.95000000000E+03 0.  0.
   -2000013    1    1    2    0    0 -0.77371581142E+03  0.16849759071E+02 -0.20562494615E+04  0.23936545112E+04  0.95000000000E+03 0.  0.
<mgrwt>
<rscale>  0 0.24848331E+04</rscale>
<asrwt>0</asrwt>
<pdfrwt beam="2">  1        2 0.58748732E+00 0.24848331E+04</pdfrwt>
<pdfrwt beam="1">  1       -2 0.62188382E-01 0.24848331E+04</pdfrwt>
<totfact> 0.10213902E+00</totfact>
</mgrwt>
</event>
<event>
 4    1  0.2069825E-008  0.2915002E+04  0.7816531E-02  0.8268428E-01
         -2   -1    0    0    0  501 -0.00000000000E+00  0.00000000000E+00  0.83843028624E+03  0.83843028624E+03  0.00000000000E+00 0. -1.
          2   -1    0    0  501    0  0.00000000000E+00 -0.00000000000E+00 -0.25336745483E+04  0.25336745483E+04  0.00000000000E+00 0.  1.
    2000013    1    1    2    0    0  0.41180678550E+03 -0.97380644817E+03 -0.47469536681E+03  0.14985724935E+04  0.95000000000E+03 0.  0.
   -2000013    1    1    2    0    0 -0.41180678550E+03  0.97380644817E+03 -0.12205488952E+04  0.18735323410E+04  0.95000000000E+03 0.  0.
<mgrwt>
<rscale>  0 0.29150022E+04</rscale>
<asrwt>0</asrwt>
<pdfrwt beam="2">  1        2 0.38979608E+00 0.29150022E+04</pdfrwt>
<pdfrwt beam="1">  1       -2 0.12898928E+00 0.29150022E+04</pdfrwt>
<totfact> 0.12703392E+00</totfact>
</mgrwt>
</event>
<event>
 4    1  0.2069825E-008  0.2520887E+04  0.7816531E-02  0.8395582E-01
         -1   -1    0    0    0  501 -0.00000000000E+00  0.00000000000E+00  0.64872297496E+03  0.64872297496E+03  0.00000000000E+00 0. -1.
          1   -1    0    0  501    0  0.00000000000E+00 -0.00000000000E+00 -0.24489921850E+04  0.24489921850E+04  0.00000000000E+00 0.  1.
    2000013    1    1    2    0    0 -0.66003906158E+03  0.40284790719E+03 -0.53502936100E+03  0.13366728905E+04  0.95000000000E+03 0.  0.
   -2000013    1    1    2    0    0  0.66003906158E+03 -0.40284790719E+03 -0.12652398491E+04  0.17610422695E+04  0.95000000000E+03 0.  0.
<mgrwt>
<rscale>  0 0.25208867E+04</rscale>
<asrwt>0</asrwt>
<pdfrwt beam="2">  1        1 0.37676802E+00 0.25208867E+04</pdfrwt>
<pdfrwt beam="1">  1       -1 0.99803537E-01 0.25208867E+04</pdfrwt>
<totfact> 0.12473668E+00</totfact>
</mgrwt>
</event>
<event>
 4    1  0.2069825E-008  0.2683215E+04  0.7816531E-02  0.8340472E-01
          2   -1    0    0  501    0  0.00000000000E+00  0.00000000000E+00  0.25577632803E+04  0.25577632803E+04  0.00000000000E+00 0.  1.
         -2   -1    0    0    0  501 -0.00000000000E+00 -0.00000000000E+00 -0.70370500176E+03  0.70370500176E+03  0.00000000000E+00 0. -1.
    2000013    1    1    2    0    0  0.29407312219E+01  0.73175085021E+03  0.16582990043E+04  0.20464416782E+04  0.95000000000E+03 0.  0.
   -2000013    1    1    2    0    0 -0.29407312219E+01 -0.73175085021E+03  0.19575927427E+03  0.12150266039E+04  0.95000000000E+03 0.  0.
<mgrwt>
<rscale>  0 0.26832151E+04</rscale>
<asrwt>0</asrwt>
<pdfrwt beam="1">  1        2 0.39350204E+00 0.26832151E+04</pdfrwt>
<pdfrwt beam="2">  1       -2 0.10826231E+00 0.26832151E+04</pdfrwt>
<totfact> 0.19320954E+00</totfact>
</mgrwt>
</event>
<event>
 4    1  0.2069825E-008  0.3149070E+04  0.7816531E-02  0.8202399E-01
         -2   -1    0    0    0  501 -0.00000000000E+00  0.00000000000E+00  0.15029142640E+04  0.15029142640E+04  0.00000000000E+00 0. -1.
          2   -1    0    0  501    0  0.00000000000E+00 -0.00000000000E+00 -0.16495684619E+04  0.16495684619E+04  0.00000000000E+00 0.  1.
    2000013    1    1    2    0    0 -0.32766081899E+03 -0.97538613641E+03  0.64711965245E+03  0.15427260197E+04  0.95000000000E+03 0.  0.
   -2000013    1    1    2    0    0  0.32766081899E+03  0.97538613641E+03 -0.79377385042E+03  0.16097567062E+04  0.95000000000E+03 0.  0.
<mgrwt>
<rscale>  0 0.31490697E+04</rscale>
<asrwt>0</asrwt>
<pdfrwt beam="2">  1        2 0.25377976E+00 0.31490697E+04</pdfrwt>
<pdfrwt beam="1">  1       -2 0.23121758E+00 0.31490697E+04</pdfrwt>
<totfact> 0.74331644E-01</totfact>
</mgrwt>
</event>
<event>
 4    1  0.2069825E-008  0.2291249E+04  0.7816531E-02  0.8481380E-01
          1   -1    0    0  501    0  0.00000000000E+00  0.00000000000E+00  0.13325649881E+04  0.13325649881E+04  0.00000000000E+00 0.  1.
         -1   -1    0    0    0  501 -0.00000000000E+00 -0.00000000000E+00 -0.98490898512E+03  0.98490898512E+03  0.00000000000E+00 0. -1.
    2000013    1    1    2    0    0 -0.46758234821E+03  0.46591467102E+02 -0.26606513515E+03  0.10927463902E+04  0.95000000000E+03 0.  0.
   -2000013    1    1    2    0    0  0.46758234821E+03 -0.46591467102E+02  0.61372113808E+03  0.12247275830E+04  0.95000000000E+03 0.  0.
<mgrwt>
<rscale>  0 0.22912488E+04</rscale>
<asrwt>0</asrwt>
<pdfrwt beam="1">  1        1 0.20501000E+00 0.22912488E+04</pdfrwt>
<pdfrwt beam="2">  1       -1 0.15152446E+00 0.22912488E+04</pdfrwt>
<totfact> 0.26332674E+00</totfact>
</mgrwt>
</event>
<event>
 4    1  0.2069825E-008  0.2583747E+04  0.7816531E-02  0.8373743E-01
          2   -1    0    0  501    0  0.00000000000E+00  0.00000000000E+00  0.61591131407E+03  0.61591131407E+03  0.00000000000E+00 0.  1.
         -2   -1    0    0    0  501 -0.00000000000E+00 -0.00000000000E+00 -0.27097032960E+04  0.27097032960E+04  0.00000000000E+00 0. -1.
    2000013    1    1    2    0    0 -0.65116019317E+03 -0.34282910547E+03 -0.16572929621E+04  0.20471104892E+04  0.95000000000E+03 0.  0.
   -2000013    1    1    2    0    0  0.65116019317E+03  0.34282910547E+03 -0.43649901978E+03  0.12785041208E+04  0.95000000000E+03 0.  0.
<mgrwt>
<rscale>  0 0.25837468E+04</rscale>
<asrwt>0</asrwt>
<pdfrwt beam="1">  1        2 0.94755584E-01 0.25837468E+04</pdfrwt>
<pdfrwt beam="2">  1       -2 0.41687744E+00 0.25837468E+04</pdfrwt>
<totfact> 0.24461374E-01</totfact>
</mgrwt>
</event>
<event>
 4    1  0.2069825E-008  0.2938691E+04  0.7816531E-02  0.8261458E-01
          2   -1    0    0  501    0  0.00000000000E+00  0.00000000000E+00  0.34565541955E+04  0.34565541955E+04  0.00000000000E+00 0.  1.
         -2   -1    0    0    0  501 -0.00000000000E+00 -0.00000000000E+00 -0.62460355475E+03  0.62460355475E+03  0.00000000000E+00 0. -1.
    2000013    1    1    2    0    0  0.31683330642E+03 -0.10649051439E+04  0.12096616685E+04  0.18974160487E+04  0.95000000000E+03 0.  0.
   -2000013    1    1    2    0    0 -0.31683330642E+03  0.10649051439E+04  0.16222889722E+04  0.21837417015E+04  0.95000000000E+03 0.  0.
<mgrwt>
<rscale>  0 0.29386909E+04</rscale>
<asrwt>0</asrwt>
<pdfrwt beam="1">  1        2 0.53177756E+00 0.29386909E+04</pdfrwt>
<pdfrwt beam="2">  1       -2 0.96092857E-01 0.29386909E+04</pdfrwt>
<totfact> 0.68003181E-01</totfact>
</mgrwt>
</event>
<event>
 4    1  0.2069825E-008  0.2863811E+04  0.7816531E-02  0.8283727E-01
          2   -1    0    0  501    0  0.00000000000E+00  0.00000000000E+00  0.23211151981E+04  0.23211151981E+04  0.00000000000E+00 0.  1.
         -2   -1    0    0    0  501 -0.00000000000E+00 -0.00000000000E+00 -0.88334826493E+03  0.88334826493E+03  0.00000000000E+00 0. -1.
    2000013    1    1    2    0    0  0.30447967066E+03 -0.93869409435E+03  0.25213393524E+03  0.13928122608E+04  0.95000000000E+03 0.  0.
   -2000013    1    1    2    0    0 -0.30447967066E+03  0.93869409435E+03  0.11856329979E+04  0.18116512022E+04  0.95000000000E+03 0.  0.
<mgrwt>
<rscale>  0 0.28638108E+04</rscale>
<asrwt>0</asrwt>
<pdfrwt beam="1">  1        2 0.35709464E+00 0.28638108E+04</pdfrwt>
<pdfrwt beam="2">  1       -2 0.13589973E+00 0.28638108E+04</pdfrwt>
<totfact> 0.14804804E+00</totfact>
</mgrwt>
</event>
<event>
 4    1  0.2069825E-008  0.2934081E+04  0.7816531E-02  0.8262809E-01
         -2   -1    0    0    0  501 -0.00000000000E+00  0.00000000000E+00  0.53368707436E+03  0.53368707436E+03  0.00000000000E+00 0. -1.
          2   -1    0    0  501    0  0.00000000000E+00 -0.00000000000E+00 -0.40327161029E+04  0.40327161029E+04  0.00000000000E+00 0.  1.
    2000013    1    1    2    0    0  0.32858293112E+03 -0.10427085433E+04 -0.21128457798E+04  0.25616059686E+04  0.95000000000E+03 0.  0.
   -2000013    1    1    2    0    0 -0.32858293112E+03  0.10427085433E+04 -0.13861832487E+04  0.20047972087E+04  0.95000000000E+03 0.  0.
<mgrwt>
<rscale>  0 0.29340814E+04</rscale>
<asrwt>0</asrwt>
<pdfrwt beam="2">  1        2 0.62041790E+00 0.29340814E+04</pdfrwt>
<pdfrwt beam="1">  1       -2 0.82105699E-01 0.29340814E+04</pdfrwt>
<totfact> 0.36092361E-01</totfact>
</mgrwt>
</event>
<event>
 4    1  0.2069825E-008  0.2020441E+04  0.7816531E-02  0.8597123E-01
         -2   -1    0    0    0  501 -0.00000000000E+00  0.00000000000E+00  0.53717963302E+03  0.53717963302E+03  0.00000000000E+00 0.  1.
          2   -1    0    0  501    0  0.00000000000E+00 -0.00000000000E+00 -0.18998222538E+04  0.18998222538E+04  0.00000000000E+00 0. -1.
    2000013    1    1    2    0    0  0.22130020966E+03 -0.18297935280E+03 -0.45377110163E+03  0.10912668963E+04  0.95000000000E+03 0.  0.
   -2000013    1    1    2    0    0 -0.22130020966E+03  0.18297935280E+03 -0.90887151917E+03  0.13457349905E+04  0.95000000000E+03 0.  0.
<mgrwt>
<rscale>  0 0.20204414E+04</rscale>
<asrwt>0</asrwt>
<pdfrwt beam="2">  1        2 0.29228034E+00 0.20204414E+04</pdfrwt>
<pdfrwt beam="1">  1       -2 0.82643021E-01 0.20204414E+04</pdfrwt>
<totfact> 0.90477201E+00</totfact>
</mgrwt>
</event>
<event>
 4    1  0.2069825E-008  0.2335245E+04  0.7816531E-02  0.8464153E-01
         -2   -1    0    0    0  501 -0.00000000000E+00  0.00000000000E+00  0.63062565791E+03  0.63062565791E+03  0.00000000000E+00 0. -1.
          2   -1    0    0  501    0  0.00000000000E+00 -0.00000000000E+00 -0.21618892325E+04  0.21618892325E+04  0.00000000000E+00 0.  1.
    2000013    1    1    2    0    0  0.35857087915E+03  0.55907763075E+03 -0.59778325906E+03  0.13042184240E+04  0.95000000000E+03 0.  0.
   -2000013    1    1    2    0    0 -0.35857087915E+03 -0.55907763075E+03 -0.93348031555E+03  0.14882964665E+04  0.95000000000E+03 0.  0.
<mgrwt>
<rscale>  0 0.23352454E+04</rscale>
<asrwt>0</asrwt>
<pdfrwt beam="2">  1        2 0.33259835E+00 0.23352454E+04</pdfrwt>
<pdfrwt beam="1">  1       -2 0.97019331E-01 0.23352454E+04</pdfrwt>
<totfact> 0.43502578E+00</totfact>
</mgrwt>
</event>
<event>
 4    1  0.2069825E-008  0.2416878E+04  0.7816531E-02  0.8433212E-01
         -2   -1    0    0    0  501 -0.00000000000E+00  0.00000000000E+00  0.79654817505E+03  0.79654817505E+03  0.00000000000E+00 0. -1.
          2   -1    0    0  501    0  0.00000000000E+00 -0.00000000000E+00 -0.18333159920E+04  0.18333159920E+04  0.00000000000E+00 0.  1.
    2000013    1    1    2    0    0 -0.62877050879E+03  0.14237187191E+03 -0.10805500845E+03  0.11531686726E+04  0.95000000000E+03 0.  0.
   -2000013    1    1    2    0    0  0.62877050879E+03 -0.14237187191E+03 -0.92871280850E+03  0.14766954944E+04  0.95000000000E+03 0.  0.
<mgrwt>
<rscale>  0 0.24168777E+04</rscale>
<asrwt>0</asrwt>
<pdfrwt beam="2">  1        2 0.28204861E+00 0.24168777E+04</pdfrwt>
<pdfrwt beam="1">  1       -2 0.12254587E+00 0.24168777E+04</pdfrwt>
<totfact> 0.37420806E+00</totfact>
</mgrwt>
</event>
<event>
 4    1  0.2069825E-008  0.2430591E+04  0.7816531E-02  0.8428139E-01
         -2   -1    0    0    0  501 -0.00000000000E+00  0.00000000000E+00  0.15976481963E+04  0.15976481963E+04  0.00000000000E+00 0. -1.
          2   -1    0    0  501    0  0.00000000000E+00 -0.00000000000E+00 -0.92444824574E+03  0.92444824574E+03  0.00000000000E+00 0.  1.
    2000013    1    1    2    0    0 -0.92906134973E+02 -0.63970890391E+03 -0.74004391487E+02  0.11514493830E+04  0.95000000000E+03 0.  0.
   -2000013    1    1    2    0    0  0.92906134973E+02  0.63970890391E+03  0.74720434202E+03  0.13706470590E+04  0.95000000000E+03 0.  0.
<mgrwt>
<rscale>  0 0.24305909E+04</rscale>
<asrwt>0</asrwt>
<pdfrwt beam="2">  1        2 0.14222281E+00 0.24305909E+04</pdfrwt>
<pdfrwt beam="1">  1       -2 0.24579203E+00 0.24305909E+04</pdfrwt>
<totfact> 0.17271375E+00</totfact>
</mgrwt>
</event>
<event>
 4    1  0.2069825E-008  0.2055857E+04  0.7816531E-02  0.8580942E-01
         -2   -1    0    0    0  501 -0.00000000000E+00  0.00000000000E+00  0.36213896758E+03  0.36213896758E+03  0.00000000000E+00 0. -1.
          2   -1    0    0  501    0  0.00000000000E+00 -0.00000000000E+00 -0.29177656121E+04  0.29177656121E+04  0.00000000000E+00 0.  1.
    2000013    1    1    2    0    0 -0.20638862112E+03 -0.33383860973E+03 -0.12624986778E+04  0.16280194691E+04  0.95000000000E+03 0.  0.
   -2000013    1    1    2    0    0  0.20638862112E+03  0.33383860973E+03 -0.12931279667E+04  0.16518851106E+04  0.95000000000E+03 0.  0.
<mgrwt>
<rscale>  0 0.20558566E+04</rscale>
<asrwt>0</asrwt>
<pdfrwt beam="2">  1        2 0.44888699E+00 0.20558566E+04</pdfrwt>
<pdfrwt beam="1">  1       -2 0.55713691E-01 0.20558566E+04</pdfrwt>
<totfact> 0.54928114E+00</totfact>
</mgrwt>
</event>
<event>
 4    1  0.2069825E-008  0.3231674E+04  0.7816531E-02  0.8180502E-01
          2   -1    0    0  501    0  0.00000000000E+00  0.00000000000E+00  0.21735221781E+04  0.21735221781E+04  0.00000000000E+00 0.  1.
         -2   -1    0    0    0  501 -0.00000000000E+00 -0.00000000000E+00 -0.12012437377E+04  0.12012437377E+04  0.00000000000E+00 0. -1.
    2000013    1    1    2    0    0  0.24716974925E+03  0.10293699453E+04 -0.31444432178E+03  0.14567328515E+04  0.95000000000E+03 0.  0.
   -2000013    1    1    2    0    0 -0.24716974925E+03 -0.10293699453E+04  0.12867227621E+04  0.19180330643E+04  0.95000000000E+03 0.  0.
<mgrwt>
<rscale>  0 0.32316744E+04</rscale>
<asrwt>0</asrwt>
<pdfrwt beam="1">  1        2 0.33438803E+00 0.32316744E+04</pdfrwt>
<pdfrwt beam="2">  1       -2 0.18480673E+00 0.32316744E+04</pdfrwt>
<totfact> 0.75430553E-01</totfact>
</mgrwt>
</event>
<event>
 4    1  0.2069825E-008  0.2106108E+04  0.7816531E-02  0.8558557E-01
         -2   -1    0    0    0  501 -0.00000000000E+00  0.00000000000E+00  0.16623323723E+04  0.16623323723E+04  0.00000000000E+00 0. -1.
          2   -1    0    0  501    0  0.00000000000E+00 -0.00000000000E+00 -0.66708864361E+03  0.66708864361E+03  0.00000000000E+00 0.  1.
    2000013    1    1    2    0    0  0.44866516110E+03  0.41447545862E+02  0.43308496556E+03  0.11371371567E+04  0.95000000000E+03 0.  0.
   -2000013    1    1    2    0    0 -0.44866516110E+03 -0.41447545862E+02  0.56215876311E+03  0.11922838591E+04  0.95000000000E+03 0.  0.
<mgrwt>
<rscale>  0 0.21061083E+04</rscale>
<asrwt>0</asrwt>
<pdfrwt beam="2">  1        2 0.10262902E+00 0.21061083E+04</pdfrwt>
<pdfrwt beam="1">  1       -2 0.25574344E+00 0.21061083E+04</pdfrwt>
<totfact> 0.23753938E+00</totfact>
</mgrwt>
</event>
<event>
 4    1  0.2069825E-008  0.2576735E+04  0.7816531E-02  0.8376147E-01
          1   -1    0    0  501    0  0.00000000000E+00  0.00000000000E+00  0.26392345217E+04  0.26392345217E+04  0.00000000000E+00 0.  1.
         -1   -1    0    0    0  501 -0.00000000000E+00 -0.00000000000E+00 -0.62892876567E+03  0.62892876567E+03  0.00000000000E+00 0. -1.
    2000013    1    1    2    0    0  0.63744948770E+03 -0.30793274002E+03  0.16471686595E+04  0.20289970465E+04  0.95000000000E+03 0.  0.
   -2000013    1    1    2    0    0 -0.63744948770E+03  0.30793274002E+03  0.36313709654E+03  0.12391662409E+04  0.95000000000E+03 0.  0.
<mgrwt>
<rscale>  0 0.25767348E+04</rscale>
<asrwt>0</asrwt>
<pdfrwt beam="1">  1        1 0.40603607E+00 0.25767348E+04</pdfrwt>
<pdfrwt beam="2">  1       -1 0.96758273E-01 0.25767348E+04</pdfrwt>
<totfact> 0.98157183E-01</totfact>
</mgrwt>
</event>
<event>
 4    1  0.2069825E-008  0.2374158E+04  0.7816531E-02  0.8449242E-01
         -2   -1    0    0    0  501 -0.00000000000E+00  0.00000000000E+00  0.82123788835E+03  0.82123788835E+03  0.00000000000E+00 0. -1.
          2   -1    0    0  501    0  0.00000000000E+00 -0.00000000000E+00 -0.17158933641E+04  0.17158933641E+04  0.00000000000E+00 0.  1.
    2000013    1    1    2    0    0 -0.58600131526E+03  0.15442031048E+03 -0.48316001161E+02  0.11278641805E+04  0.95000000000E+03 0.  0.
   -2000013    1    1    2    0    0  0.58600131526E+03 -0.15442031048E+03 -0.84633947463E+03  0.14092670719E+04  0.95000000000E+03 0.  0.
<mgrwt>
<rscale>  0 0.23741581E+04</rscale>
<asrwt>0</asrwt>
<pdfrwt beam="2">  1        2 0.26398359E+00 0.23741581E+04</pdfrwt>
<pdfrwt beam="1">  1       -2 0.12634429E+00 0.23741581E+04</pdfrwt>
<totfact> 0.40422028E+00</totfact>
</mgrwt>
</event>
<event>
 4    1  0.2069825E-008  0.3203073E+04  0.7816531E-02  0.8188006E-01
          2   -1    0    0  501    0  0.00000000000E+00  0.00000000000E+00  0.24084321962E+04  0.24084321962E+04  0.00000000000E+00 0.  1.
         -2   -1    0    0    0  501 -0.00000000000E+00 -0.00000000000E+00 -0.10649747528E+04  0.10649747528E+04  0.00000000000E+00 0. -1.
    2000013    1    1    2    0    0  0.41334157722E+03 -0.49069437841E+03  0.18845045368E+04  0.22057854796E+04  0.95000000000E+03 0.  0.
   -2000013    1    1    2    0    0 -0.41334157722E+03  0.49069437841E+03 -0.54104709344E+03  0.12676214694E+04  0.95000000000E+03 0.  0.
<mgrwt>
<rscale>  0 0.32030732E+04</rscale>
<asrwt>0</asrwt>
<pdfrwt beam="1">  1        2 0.37052803E+00 0.32030732E+04</pdfrwt>
<pdfrwt beam="2">  1       -2 0.16384227E+00 0.32030732E+04</pdfrwt>
<totfact> 0.78115340E-01</totfact>
</mgrwt>
</event>
<event>
 4    1  0.2069825E-008  0.3690342E+04  0.7816531E-02  0.8070106E-01
          1   -1    0    0  501    0  0.00000000000E+00  0.00000000000E+00  0.19314066973E+04  0.19314066973E+04  0.00000000000E+00 0.  1.
         -1   -1    0    0    0  501 -0.00000000000E+00 -0.00000000000E+00 -0.17627857288E+04  0.17627857288E+04  0.00000000000E+00 0. -1.
    2000013    1    1    2    0    0 -0.18146865457E+03 -0.15711045102E+04  0.11359691349E+03  0.18484329886E+04  0.95000000000E+03 0.  0.
   -2000013    1    1    2    0    0  0.18146865457E+03  0.15711045102E+04  0.55024055016E+02  0.18457594375E+04  0.95000000000E+03 0.  0.
<mgrwt>
<rscale>  0 0.36903421E+04</rscale>
<asrwt>0</asrwt>
<pdfrwt beam="1">  1        1 0.29713949E+00 0.36903421E+04</pdfrwt>
<pdfrwt beam="2">  1       -1 0.27119781E+00 0.36903421E+04</pdfrwt>
<totfact> 0.13519197E-01</totfact>
</mgrwt>
</event>
<event>
 4    1  0.2069825E-008  0.2367353E+04  0.7816531E-02  0.8451828E-01
          2   -1    0    0  501    0  0.00000000000E+00  0.00000000000E+00  0.22190943374E+04  0.22190943374E+04  0.00000000000E+00 0.  1.
         -2   -1    0    0    0  501 -0.00000000000E+00 -0.00000000000E+00 -0.63137912767E+03  0.63137912767E+03  0.00000000000E+00 0. -1.
    2000013    1    1    2    0    0  0.24285588902E+01  0.66066569766E+03  0.10939234364E+04  0.15923735575E+04  0.95000000000E+03 0.  0.
   -2000013    1    1    2    0    0 -0.24285588902E+01 -0.66066569766E+03  0.49379177333E+03  0.12580999075E+04  0.95000000000E+03 0.  0.
<mgrwt>
<rscale>  0 0.23673528E+04</rscale>
<asrwt>0</asrwt>
<pdfrwt beam="1">  1        2 0.34139912E+00 0.23673528E+04</pdfrwt>
<pdfrwt beam="2">  1       -2 0.97135252E-01 0.23673528E+04</pdfrwt>
<totfact> 0.40176048E+00</totfact>
</mgrwt>
</event>
<event>
 4    1  0.2069825E-008  0.2637208E+04  0.7816531E-02  0.8355671E-01
          2   -1    0    0  501    0  0.00000000000E+00  0.00000000000E+00  0.37639007882E+04  0.37639007882E+04  0.00000000000E+00 0.  1.
         -2   -1    0    0    0  501 -0.00000000000E+00 -0.00000000000E+00 -0.46194539157E+03  0.46194539157E+03  0.00000000000E+00 0. -1.
    2000013    1    1    2    0    0  0.77264564436E+03  0.42982645075E+02  0.24317034520E+04  0.27229598745E+04  0.95000000000E+03 0.  0.
   -2000013    1    1    2    0    0 -0.77264564436E+03 -0.42982645075E+02  0.87025194462E+03  0.15028863053E+04  0.95000000000E+03 0.  0.
<mgrwt>
<rscale>  0 0.26372081E+04</rscale>
<asrwt>0</asrwt>
<pdfrwt beam="1">  1        2 0.57906164E+00 0.26372081E+04</pdfrwt>
<pdfrwt beam="2">  1       -2 0.71068524E-01 0.26372081E+04</pdfrwt>
<totfact> 0.83039899E-01</totfact>
</mgrwt>
</event>
<event>
 4    1  0.2069825E-008  0.3177392E+04  0.7816531E-02  0.8194813E-01
          2   -1    0    0  501    0  0.00000000000E+00  0.00000000000E+00  0.23548176406E+04  0.23548176406E+04  0.00000000000E+00 0.  1.
         -2   -1    0    0    0  501 -0.00000000000E+00 -0.00000000000E+00 -0.10718262516E+04  0.10718262516E+04  0.00000000000E+00 0. -1.
    2000013    1    1    2    0    0  0.27899527362E+03 -0.12094561542E+04  0.33488168802E+03  0.15985206588E+04  0.95000000000E+03 0.  0.
   -2000013    1    1    2    0    0 -0.27899527362E+03  0.12094561542E+04  0.94810970096E+03  0.18281232334E+04  0.95000000000E+03 0.  0.
<mgrwt>
<rscale>  0 0.31773922E+04</rscale>
<asrwt>0</asrwt>
<pdfrwt beam="1">  1        2 0.36227964E+00 0.31773922E+04</pdfrwt>
<pdfrwt beam="2">  1       -2 0.16489635E+00 0.31773922E+04</pdfrwt>
<totfact> 0.82544833E-01</totfact>
</mgrwt>
</event>
<event>
 4    1  0.2069825E-008  0.2111337E+04  0.7816531E-02  0.8556266E-01
         -2   -1    0    0    0  501 -0.00000000000E+00  0.00000000000E+00  0.18908895658E+04  0.18908895658E+04  0.00000000000E+00 0. -1.
          2   -1    0    0  501    0  0.00000000000E+00 -0.00000000000E+00 -0.58937120369E+03  0.58937120369E+03  0.00000000000E+00 0.  1.
    2000013    1    1    2    0    0  0.99783886913E+02 -0.21824696858E+03  0.11122779018E+04  0.14823126169E+04  0.95000000000E+03 0.  0.
   -2000013    1    1    2    0    0 -0.99783886913E+02  0.21824696858E+03  0.18924046027E+03  0.99794815255E+03  0.95000000000E+03 0.  0.
<mgrwt>
<rscale>  0 0.21113369E+04</rscale>
<asrwt>0</asrwt>
<pdfrwt beam="2">  1        2 0.90672493E-01 0.21113369E+04</pdfrwt>
<pdfrwt beam="1">  1       -2 0.29090609E+00 0.21113369E+04</pdfrwt>
<totfact> 0.16866078E+00</totfact>
</mgrwt>
</event>
<event>
 4    1  0.2069825E-008  0.2842421E+04  0.7816531E-02  0.8290218E-01
         -2   -1    0    0    0  501 -0.00000000000E+00  0.00000000000E+00  0.78466534203E+03  0.78466534203E+03  0.00000000000E+00 0. -1.
          2   -1    0    0  501    0  0.00000000000E+00 -0.00000000000E+00 -0.25741403521E+04  0.25741403521E+04  0.00000000000E+00 0.  1.
    2000013    1    1    2    0    0 -0.10413935585E+04  0.27843149858E+02 -0.68314602486E+03  0.15666729959E+04  0.95000000000E+03 0.  0.
   -2000013    1    1    2    0    0  0.10413935585E+04 -0.27843149858E+02 -0.11063289852E+04  0.17921326983E+04  0.95000000000E+03 0.  0.
<mgrwt>
<rscale>  0 0.28424206E+04</rscale>
<asrwt>0</asrwt>
<pdfrwt beam="2">  1        2 0.39602159E+00 0.28424206E+04</pdfrwt>
<pdfrwt beam="1">  1       -2 0.12071775E+00 0.28424206E+04</pdfrwt>
<totfact> 0.14293119E+00</totfact>
</mgrwt>
</event>
<event>
 4    1  0.2069825E-008  0.2113303E+04  0.7816531E-02  0.8555406E-01
         -2   -1    0    0    0  501 -0.00000000000E+00  0.00000000000E+00  0.43159102110E+03  0.43159102110E+03  0.00000000000E+00 0. -1.
          2   -1    0    0  501    0  0.00000000000E+00 -0.00000000000E+00 -0.25869691424E+04  0.25869691424E+04  0.00000000000E+00 0.  1.
    2000013    1    1    2    0    0  0.16949537932E+01 -0.44300309227E+03 -0.12680314621E+04  0.16451925120E+04  0.95000000000E+03 0.  0.
   -2000013    1    1    2    0    0 -0.16949537932E+01  0.44300309227E+03 -0.88734665922E+03  0.13733676515E+04  0.95000000000E+03 0.  0.
<mgrwt>
<rscale>  0 0.21133032E+04</rscale>
<asrwt>0</asrwt>
<pdfrwt beam="2">  1        2 0.39799525E+00 0.21133032E+04</pdfrwt>
<pdfrwt beam="1">  1       -2 0.66398618E-01 0.21133032E+04</pdfrwt>
<totfact> 0.59479167E+00</totfact>
</mgrwt>
</event>
<event>
 4    1  0.2069825E-008  0.2815922E+04  0.7816531E-02  0.8298342E-01
          2   -1    0    0  501    0  0.00000000000E+00  0.00000000000E+00  0.15684601187E+04  0.15684601187E+04  0.00000000000E+00 0.  1.
         -2   -1    0    0    0  501 -0.00000000000E+00 -0.00000000000E+00 -0.12638860145E+04  0.12638860145E+04  0.00000000000E+00 0. -1.
    2000013    1    1    2    0    0 -0.83723498094E+03 -0.26379613296E+03  0.71168182142E+03  0.14763271413E+04  0.95000000000E+03 0.  0.
   -2000013    1    1    2    0    0  0.83723498094E+03  0.26379613296E+03 -0.40710771722E+03  0.13560189919E+04  0.95000000000E+03 0.  0.
<mgrwt>
<rscale>  0 0.28159224E+04</rscale>
<asrwt>0</asrwt>
<pdfrwt beam="1">  1        2 0.24130155E+00 0.28159224E+04</pdfrwt>
<pdfrwt beam="2">  1       -2 0.19444400E+00 0.28159224E+04</pdfrwt>
<totfact> 0.14612539E+00</totfact>
</mgrwt>
</event>
<event>
 4    1  0.2069825E-008  0.2274365E+04  0.7816531E-02  0.8488098E-01
         -2   -1    0    0    0  501 -0.00000000000E+00  0.00000000000E+00  0.29361533984E+03  0.29361533984E+03  0.00000000000E+00 0. -1.
          2   -1    0    0  501    0  0.00000000000E+00 -0.00000000000E+00 -0.44043489671E+04  0.44043489671E+04  0.00000000000E+00 0.  1.
    2000013    1    1    2    0    0 -0.53969930943E+03 -0.29787724637E+01 -0.27066098867E+04  0.29188219021E+04  0.95000000000E+03 0.  0.
   -2000013    1    1    2    0    0  0.53969930943E+03  0.29787724637E+01 -0.14041237405E+04  0.17791424048E+04  0.95000000000E+03 0.  0.
<mgrwt>
<rscale>  0 0.22743653E+04</rscale>
<asrwt>0</asrwt>
<pdfrwt beam="2">  1        2 0.67759208E+00 0.22743653E+04</pdfrwt>
<pdfrwt beam="1">  1       -2 0.45171595E-01 0.22743653E+04</pdfrwt>
<totfact> 0.64792508E-01</totfact>
</mgrwt>
</event>
<event>
 4    1  0.2069825E-008  0.2817146E+04  0.7816531E-02  0.8297965E-01
         -2   -1    0    0    0  501 -0.00000000000E+00  0.00000000000E+00  0.11212851002E+04  0.11212851002E+04  0.00000000000E+00 0. -1.
          2   -1    0    0  501    0  0.00000000000E+00 -0.00000000000E+00 -0.17694673595E+04  0.17694673595E+04  0.00000000000E+00 0.  1.
    2000013    1    1    2    0    0 -0.55294681163E+03  0.88079893834E+03 -0.31945202512E+03  0.14443360214E+04  0.95000000000E+03 0.  0.
   -2000013    1    1    2    0    0  0.55294681163E+03 -0.88079893834E+03 -0.32873023414E+03  0.14464164383E+04  0.95000000000E+03 0.  0.
<mgrwt>
<rscale>  0 0.28171456E+04</rscale>
<asrwt>0</asrwt>
<pdfrwt beam="2">  1        2 0.27222575E+00 0.28171456E+04</pdfrwt>
<pdfrwt beam="1">  1       -2 0.17250540E+00 0.28171456E+04</pdfrwt>
<totfact> 0.15953203E+00</totfact>
</mgrwt>
</event>
<event>
 4    1  0.2069825E-008  0.2074695E+04  0.7816531E-02  0.8572473E-01
          2   -1    0    0  501    0  0.00000000000E+00  0.00000000000E+00  0.19658002028E+04  0.19658002028E+04  0.00000000000E+00 0.  1.
         -2   -1    0    0    0  501 -0.00000000000E+00 -0.00000000000E+00 -0.54740555872E+03  0.54740555872E+03  0.00000000000E+00 0. -1.
    2000013    1    1    2    0    0  0.36313584045E+03 -0.15251150121E+03  0.54460114572E+03  0.11637086425E+04  0.95000000000E+03 0.  0.
   -2000013    1    1    2    0    0 -0.36313584045E+03  0.15251150121E+03  0.87379349841E+03  0.13494971191E+04  0.95000000000E+03 0.  0.
<mgrwt>
<rscale>  0 0.20746951E+04</rscale>
<asrwt>0</asrwt>
<pdfrwt beam="1">  1        2 0.30243080E+00 0.20746951E+04</pdfrwt>
<pdfrwt beam="2">  1       -2 0.84216241E-01 0.20746951E+04</pdfrwt>
<totfact> 0.79318117E+00</totfact>
</mgrwt>
</event>
<event>
 4    1  0.2069825E-008  0.2282779E+04  0.7816531E-02  0.8484742E-01
         -1   -1    0    0    0  501 -0.00000000000E+00  0.00000000000E+00  0.13831656965E+04  0.13831656965E+04  0.00000000000E+00 0.  1.
          1   -1    0    0  501    0  0.00000000000E+00 -0.00000000000E+00 -0.94187554829E+03  0.94187554829E+03  0.00000000000E+00 0. -1.
    2000013    1    1    2    0    0 -0.33895102834E+03  0.47585206989E+03 -0.26639766827E+02  0.11155862446E+04  0.95000000000E+03 0.  0.
   -2000013    1    1    2    0    0  0.33895102834E+03 -0.47585206989E+03  0.46792991502E+03  0.12094550002E+04  0.95000000000E+03 0.  0.
<mgrwt>
<rscale>  0 0.22827790E+04</rscale>
<asrwt>0</asrwt>
<pdfrwt beam="2">  1        1 0.14490393E+00 0.22827790E+04</pdfrwt>
<pdfrwt beam="1">  1       -1 0.21279472E+00 0.22827790E+04</pdfrwt>
<totfact> 0.18743102E+00</totfact>
</mgrwt>
</event>
<event>
 4    1  0.2069825E-008  0.2380516E+04  0.7816531E-02  0.8446834E-01
         -2   -1    0    0    0  501 -0.00000000000E+00  0.00000000000E+00  0.74661638767E+03  0.74661638767E+03  0.00000000000E+00 0. -1.
          2   -1    0    0  501    0  0.00000000000E+00 -0.00000000000E+00 -0.18975129050E+04  0.18975129050E+04  0.00000000000E+00 0.  1.
    2000013    1    1    2    0    0  0.57728608197E+03  0.34723452736E+02 -0.10463661145E+04  0.15270386322E+04  0.95000000000E+03 0.  0.
   -2000013    1    1    2    0    0 -0.57728608197E+03 -0.34723452736E+02 -0.10453040282E+03  0.11170906605E+04  0.95000000000E+03 0.  0.
<mgrwt>
<rscale>  0 0.23805161E+04</rscale>
<asrwt>0</asrwt>
<pdfrwt beam="2">  1        2 0.29192505E+00 0.23805161E+04</pdfrwt>
<pdfrwt beam="1">  1       -2 0.11486406E+00 0.23805161E+04</pdfrwt>
<totfact> 0.40573652E+00</totfact>
</mgrwt>
</event>
<event>
 4    1  0.2069825E-008  0.2186496E+04  0.7816531E-02  0.8524070E-01
         -2   -1    0    0    0  501 -0.00000000000E+00  0.00000000000E+00  0.39816556035E+03  0.39816556035E+03  0.00000000000E+00 0. -1.
          2   -1    0    0  501    0  0.00000000000E+00 -0.00000000000E+00 -0.30017447793E+04  0.30017447793E+04  0.00000000000E+00 0.  1.
    2000013    1    1    2    0    0 -0.12579982370E+03 -0.52598198900E+03 -0.12793236280E+04  0.16827511978E+04  0.95000000000E+03 0.  0.
   -2000013    1    1    2    0    0  0.12579982370E+03  0.52598198900E+03 -0.13242555909E+04  0.17171591419E+04  0.95000000000E+03 0.  0.
<mgrwt>
<rscale>  0 0.21864962E+04</rscale>
<asrwt>0</asrwt>
<pdfrwt beam="2">  1        2 0.46180687E+00 0.21864962E+04</pdfrwt>
<pdfrwt beam="1">  1       -2 0.61256242E-01 0.21864962E+04</pdfrwt>
<totfact> 0.39441679E+00</totfact>
</mgrwt>
</event>
<event>
 4    1  0.2069825E-008  0.2068886E+04  0.7816531E-02  0.8575074E-01
         -2   -1    0    0    0  501 -0.00000000000E+00  0.00000000000E+00  0.78357636473E+03  0.78357636473E+03  0.00000000000E+00 0. -1.
          2   -1    0    0  501    0  0.00000000000E+00 -0.00000000000E+00 -0.13656263094E+04  0.13656263094E+04  0.00000000000E+00 0.  1.
    2000013    1    1    2    0    0  0.38000283594E+03  0.11652804159E+03 -0.18928645974E+03  0.10470483769E+04  0.95000000000E+03 0.  0.
   -2000013    1    1    2    0    0 -0.38000283594E+03 -0.11652804159E+03 -0.39276348498E+03  0.11021542972E+04  0.95000000000E+03 0.  0.
<mgrwt>
<rscale>  0 0.20688862E+04</rscale>
<asrwt>0</asrwt>
<pdfrwt beam="2">  1        2 0.21009635E+00 0.20688862E+04</pdfrwt>
<pdfrwt beam="1">  1       -2 0.12055021E+00 0.20688862E+04</pdfrwt>
<totfact> 0.73466560E+00</totfact>
</mgrwt>
</event>
<event>
 4    1  0.2069825E-008  0.2121470E+04  0.7816531E-02  0.8551844E-01
          2   -1    0    0  501    0  0.00000000000E+00  0.00000000000E+00  0.13058056921E+04  0.13058056921E+04  0.00000000000E+00 0.  1.
         -2   -1    0    0    0  501 -0.00000000000E+00 -0.00000000000E+00 -0.86165858927E+03  0.86165858927E+03  0.00000000000E+00 0. -1.
    2000013    1    1    2    0    0 -0.37338388695E+03  0.28592971550E+03  0.26147600764E+03  0.10918063161E+04  0.95000000000E+03 0.  0.
   -2000013    1    1    2    0    0  0.37338388695E+03 -0.28592971550E+03  0.18267109516E+03  0.10756579653E+04  0.95000000000E+03 0.  0.
<mgrwt>
<rscale>  0 0.21214700E+04</rscale>
<asrwt>0</asrwt>
<pdfrwt beam="1">  1        2 0.20089318E+00 0.21214700E+04</pdfrwt>
<pdfrwt beam="2">  1       -2 0.13256286E+00 0.21214700E+04</pdfrwt>
<totfact> 0.62374319E+00</totfact>
</mgrwt>
</event>
<event>
 4    1  0.2069825E-008  0.3180435E+04  0.7816531E-02  0.8194003E-01
         -1   -1    0    0    0  501 -0.00000000000E+00  0.00000000000E+00  0.12445989272E+04  0.12445989272E+04  0.00000000000E+00 0. -1.
          1   -1    0    0  501    0  0.00000000000E+00 -0.00000000000E+00 -0.20318125541E+04  0.20318125541E+04  0.00000000000E+00 0.  1.
    2000013    1    1    2    0    0 -0.11221440700E+04  0.58374805681E+03 -0.56074529306E+03  0.16783636053E+04  0.95000000000E+03 0.  0.
   -2000013    1    1    2    0    0  0.11221440700E+04 -0.58374805681E+03 -0.22646833382E+03  0.15980478760E+04  0.95000000000E+03 0.  0.
<mgrwt>
<rscale>  0 0.31804350E+04</rscale>
<asrwt>0</asrwt>
<pdfrwt beam="2">  1        1 0.31258655E+00 0.31804350E+04</pdfrwt>
<pdfrwt beam="1">  1       -1 0.19147676E+00 0.31804350E+04</pdfrwt>
<totfact> 0.40998599E-01</totfact>
</mgrwt>
</event>
<event>
 4    1  0.2069825E-008  0.2467416E+04  0.7816531E-02  0.8414687E-01
         -1   -1    0    0    0  501 -0.00000000000E+00  0.00000000000E+00  0.85629120178E+03  0.85629120178E+03  0.00000000000E+00 0. -1.
          1   -1    0    0  501    0  0.00000000000E+00 -0.00000000000E+00 -0.17774742364E+04  0.17774742364E+04  0.00000000000E+00 0.  1.
    2000013    1    1    2    0    0 -0.45800869873E+03 -0.43445392967E+03 -0.96240689862E+03  0.14923971401E+04  0.95000000000E+03 0.  0.
   -2000013    1    1    2    0    0  0.45800869873E+03  0.43445392967E+03  0.41223863961E+02  0.11413682982E+04  0.95000000000E+03 0.  0.
<mgrwt>
<rscale>  0 0.24674161E+04</rscale>
<asrwt>0</asrwt>
<pdfrwt beam="2">  1        1 0.27345757E+00 0.24674161E+04</pdfrwt>
<pdfrwt beam="1">  1       -1 0.13173711E+00 0.24674161E+04</pdfrwt>
<totfact> 0.18435879E+00</totfact>
</mgrwt>
</event>
<event>
 4    1  0.2069825E-008  0.2733024E+04  0.7816531E-02  0.8324369E-01
         -1   -1    0    0    0  501 -0.00000000000E+00  0.00000000000E+00  0.15721430748E+04  0.15721430748E+04  0.00000000000E+00 0. -1.
          1   -1    0    0  501    0  0.00000000000E+00 -0.00000000000E+00 -0.11877769778E+04  0.11877769778E+04  0.00000000000E+00 0.  1.
    2000013    1    1    2    0    0  0.97667032221E+03  0.30338035916E+02  0.29341947703E+03  0.13940589314E+04  0.95000000000E+03 0.  0.
   -2000013    1    1    2    0    0 -0.97667032221E+03 -0.30338035916E+02  0.90946620020E+02  0.13658611212E+04  0.95000000000E+03 0.  0.
<mgrwt>
<rscale>  0 0.27330242E+04</rscale>
<asrwt>0</asrwt>
<pdfrwt beam="2">  1        1 0.18273492E+00 0.27330242E+04</pdfrwt>
<pdfrwt beam="1">  1       -1 0.24186817E+00 0.27330242E+04</pdfrwt>
<totfact> 0.74856163E-01</totfact>
</mgrwt>
</event>
<event>
 4    1  0.2069825E-008  0.2113762E+04  0.7816531E-02  0.8555205E-01
          2   -1    0    0  501    0  0.00000000000E+00  0.00000000000E+00  0.12169341880E+04  0.12169341880E+04  0.00000000000E+00 0.  1.
         -2   -1    0    0    0  501 -0.00000000000E+00 -0.00000000000E+00 -0.91787861833E+03  0.91787861833E+03  0.00000000000E+00 0. -1.
    2000013    1    1    2    0    0 -0.19092192582E+03 -0.38958536904E+03 -0.14166337377E+02  0.10444752877E+04  0.95000000000E+03 0.  0.
   -2000013    1    1    2    0    0  0.19092192582E+03  0.38958536904E+03  0.31322190709E+03  0.10903375187E+04  0.95000000000E+03 0.  0.
<mgrwt>
<rscale>  0 0.21137624E+04</rscale>
<asrwt>0</asrwt>
<pdfrwt beam="1">  1        2 0.18722064E+00 0.21137624E+04</pdfrwt>
<pdfrwt beam="2">  1       -2 0.14121210E+00 0.21137624E+04</pdfrwt>
<totfact> 0.59828302E+00</totfact>
</mgrwt>
</event>
<event>
 4    1  0.2069825E-008  0.2766227E+04  0.7816531E-02  0.8313831E-01
         -2   -1    0    0    0  501 -0.00000000000E+00  0.00000000000E+00  0.13323023973E+04  0.13323023973E+04  0.00000000000E+00 0. -1.
          2   -1    0    0  501    0  0.00000000000E+00 -0.00000000000E+00 -0.14358627469E+04  0.14358627469E+04  0.00000000000E+00 0.  1.
    2000013    1    1    2    0    0  0.55218398473E+03  0.83569430501E+03  0.33198424543E+02  0.13809034216E+04  0.95000000000E+03 0.  0.
   -2000013    1    1    2    0    0 -0.55218398473E+03 -0.83569430501E+03 -0.13675877415E+03  0.13872617225E+04  0.95000000000E+03 0.  0.
<mgrwt>
<rscale>  0 0.27662273E+04</rscale>
<asrwt>0</asrwt>
<pdfrwt beam="2">  1        2 0.22090196E+00 0.27662273E+04</pdfrwt>
<pdfrwt beam="1">  1       -2 0.20496960E+00 0.27662273E+04</pdfrwt>
<totfact> 0.14866125E+00</totfact>
</mgrwt>
</event>
<event>
 4    1  0.2069825E-008  0.2188464E+04  0.7816531E-02  0.8523245E-01
          2   -1    0    0  501    0  0.00000000000E+00  0.00000000000E+00  0.20131087105E+04  0.20131087105E+04  0.00000000000E+00 0.  1.
         -2   -1    0    0    0  501 -0.00000000000E+00 -0.00000000000E+00 -0.59477328175E+03  0.59477328175E+03  0.00000000000E+00 0. -1.
    2000013    1    1    2    0    0  0.40231667134E+03 -0.30652370673E+03  0.94458349196E+03  0.14319753699E+04  0.95000000000E+03 0.  0.
   -2000013    1    1    2    0    0 -0.40231667134E+03  0.30652370673E+03  0.47375193681E+03  0.11759066223E+04  0.95000000000E+03 0.  0.
<mgrwt>
<rscale>  0 0.21884636E+04</rscale>
<asrwt>0</asrwt>
<pdfrwt beam="1">  1        2 0.30970903E+00 0.21884636E+04</pdfrwt>
<pdfrwt beam="2">  1       -2 0.91503583E-01 0.21884636E+04</pdfrwt>
<totfact> 0.61127947E+00</totfact>
</mgrwt>
</event>
<event>
 4    1  0.2069825E-008  0.3604096E+04  0.7816531E-02  0.8089554E-01
          2   -1    0    0  501    0  0.00000000000E+00  0.00000000000E+00  0.20533968292E+04  0.20533968292E+04  0.00000000000E+00 0.  1.
         -2   -1    0    0    0  501 -0.00000000000E+00 -0.00000000000E+00 -0.15814662599E+04  0.15814662599E+04  0.00000000000E+00 0. -1.
    2000013    1    1    2    0    0 -0.11173647514E+04  0.40561191239E+03  0.12095310822E+04  0.19438339563E+04  0.95000000000E+03 0.  0.
   -2000013    1    1    2    0    0  0.11173647514E+04 -0.40561191239E+03 -0.73760051288E+03  0.16910291327E+04  0.95000000000E+03 0.  0.
<mgrwt>
<rscale>  0 0.36040964E+04</rscale>
<asrwt>0</asrwt>
<pdfrwt beam="1">  1        2 0.31590720E+00 0.36040964E+04</pdfrwt>
<pdfrwt beam="2">  1       -2 0.24330250E+00 0.36040964E+04</pdfrwt>
<totfact> 0.35925611E-01</totfact>
</mgrwt>
</event>
<event>
 4    1  0.2069825E-008  0.3391979E+04  0.7816531E-02  0.8139878E-01
         -2   -1    0    0    0  501 -0.00000000000E+00  0.00000000000E+00  0.10892269242E+04  0.10892269242E+04  0.00000000000E+00 0. -1.
          2   -1    0    0  501    0  0.00000000000E+00 -0.00000000000E+00 -0.26407539162E+04  0.26407539162E+04  0.00000000000E+00 0.  1.
    2000013    1    1    2    0    0  0.57285705444E+03  0.11691804879E+04 -0.13563232254E+04  0.21064806930E+04  0.95000000000E+03 0.  0.
   -2000013    1    1    2    0    0 -0.57285705444E+03 -0.11691804879E+04 -0.19520376652E+03  0.16235001474E+04  0.95000000000E+03 0.  0.
<mgrwt>
<rscale>  0 0.33919789E+04</rscale>
<asrwt>0</asrwt>
<pdfrwt beam="2">  1        2 0.40626983E+00 0.33919789E+04</pdfrwt>
<pdfrwt beam="1">  1       -2 0.16757338E+00 0.33919789E+04</pdfrwt>
<totfact> 0.52935577E-01</totfact>
</mgrwt>
</event>
<event>
 4    1  0.2069825E-008  0.3969060E+04  0.7816531E-02  0.8010817E-01
          2   -1    0    0  501    0  0.00000000000E+00  0.00000000000E+00  0.35700768405E+04  0.35700768405E+04  0.00000000000E+00 0.  1.
         -2   -1    0    0    0  501 -0.00000000000E+00 -0.00000000000E+00 -0.11031578882E+04  0.11031578882E+04  0.00000000000E+00 0. -1.
    2000013    1    1    2    0    0  0.98130211276E+03 -0.27449671108E+02  0.29283462538E+04  0.32313184775E+04  0.95000000000E+03 0.  0.
   -2000013    1    1    2    0    0 -0.98130211276E+03  0.27449671108E+02 -0.46142730146E+03  0.14419162512E+04  0.95000000000E+03 0.  0.
<mgrwt>
<rscale>  0 0.39690596E+04</rscale>
<asrwt>0</asrwt>
<pdfrwt beam="1">  1        2 0.54924259E+00 0.39690596E+04</pdfrwt>
<pdfrwt beam="2">  1       -2 0.16971660E+00 0.39690596E+04</pdfrwt>
<totfact> 0.12257846E-01</totfact>
</mgrwt>
</event>
<event>
 4    1  0.2069825E-008  0.4363215E+04  0.7816531E-02  0.7935031E-01
         -2   -1    0    0    0  501 -0.00000000000E+00  0.00000000000E+00  0.14868094025E+04  0.14868094025E+04  0.00000000000E+00 0. -1.
          2   -1    0    0  501    0  0.00000000000E+00 -0.00000000000E+00 -0.32010898786E+04  0.32010898786E+04  0.00000000000E+00 0.  1.
    2000013    1    1    2    0    0  0.10983147407E+04 -0.15616733617E+04 -0.36268608453E+03  0.21631366471E+04  0.95000000000E+03 0.  0.
   -2000013    1    1    2    0    0 -0.10983147407E+04  0.15616733617E+04 -0.13515943916E+04  0.25247626340E+04  0.95000000000E+03 0.  0.
<mgrwt>
<rscale>  0 0.43632147E+04</rscale>
<asrwt>0</asrwt>
<pdfrwt beam="2">  1        2 0.49247536E+00 0.43632147E+04</pdfrwt>
<pdfrwt beam="1">  1       -2 0.22873991E+00 0.43632147E+04</pdfrwt>
<totfact> 0.86272782E-02</totfact>
</mgrwt>
</event>
<event>
 4    1  0.2069825E-008  0.3823795E+04  0.7816531E-02  0.8041068E-01
          2   -1    0    0  501    0  0.00000000000E+00  0.00000000000E+00  0.88583813309E+03  0.88583813309E+03  0.00000000000E+00 0.  1.
         -2   -1    0    0    0  501 -0.00000000000E+00 -0.00000000000E+00 -0.41264343509E+04  0.41264343509E+04  0.00000000000E+00 0. -1.
    2000013    1    1    2    0    0 -0.16257262718E+04  0.23740461486E+03 -0.19235066461E+04  0.27021703646E+04  0.95000000000E+03 0.  0.
   -2000013    1    1    2    0    0  0.16257262718E+04 -0.23740461486E+03 -0.13170895718E+04  0.23101021194E+04  0.95000000000E+03 0.  0.
<mgrwt>
<rscale>  0 0.38237954E+04</rscale>
<asrwt>0</asrwt>
<pdfrwt beam="1">  1        2 0.13628279E+00 0.38237954E+04</pdfrwt>
<pdfrwt beam="2">  1       -2 0.63483605E+00 0.38237954E+04</pdfrwt>
<totfact> 0.90429345E-03</totfact>
</mgrwt>
</event>
<event>
 4    1  0.2069825E-008  0.2376539E+04  0.7816531E-02  0.8448340E-01
          2   -1    0    0  501    0  0.00000000000E+00  0.00000000000E+00  0.16588563324E+04  0.16588563324E+04  0.00000000000E+00 0.  1.
         -2   -1    0    0    0  501 -0.00000000000E+00 -0.00000000000E+00 -0.85117927291E+03  0.85117927291E+03  0.00000000000E+00 0. -1.
    2000013    1    1    2    0    0 -0.43905495906E+03 -0.47509961736E+03  0.72243743326E+03  0.13575362789E+04  0.95000000000E+03 0.  0.
   -2000013    1    1    2    0    0  0.43905495906E+03  0.47509961736E+03  0.85239626195E+02  0.11524993264E+04  0.95000000000E+03 0.  0.
<mgrwt>
<rscale>  0 0.23765388E+04</rscale>
<asrwt>0</asrwt>
<pdfrwt beam="1">  1        2 0.25520867E+00 0.23765388E+04</pdfrwt>
<pdfrwt beam="2">  1       -2 0.13095066E+00 0.23765388E+04</pdfrwt>
<totfact> 0.39718537E+00</totfact>
</mgrwt>
</event>
<event>
 4    1  0.2069825E-008  0.2307551E+04  0.7816531E-02  0.8474950E-01
          2   -1    0    0  501    0  0.00000000000E+00  0.00000000000E+00  0.14757725205E+04  0.14757725205E+04  0.00000000000E+00 0.  1.
         -2   -1    0    0    0  501 -0.00000000000E+00 -0.00000000000E+00 -0.90203435700E+03  0.90203435700E+03  0.00000000000E+00 0. -1.
    2000013    1    1    2    0    0  0.53381456233E+03 -0.32489754658E+03  0.85520010478E+02  0.11403201633E+04  0.95000000000E+03 0.  0.
   -2000013    1    1    2    0    0 -0.53381456233E+03  0.32489754658E+03  0.48821815298E+03  0.12374867141E+04  0.95000000000E+03 0.  0.
<mgrwt>
<rscale>  0 0.23075507E+04</rscale>
<asrwt>0</asrwt>
<pdfrwt beam="1">  1        2 0.22704193E+00 0.23075507E+04</pdfrwt>
<pdfrwt beam="2">  1       -2 0.13877452E+00 0.23075507E+04</pdfrwt>
<totfact> 0.43626111E+00</totfact>
</mgrwt>
</event>
<event>
 4    1  0.2069825E-008  0.2406622E+04  0.7816531E-02  0.8437029E-01
          2   -1    0    0  501    0  0.00000000000E+00  0.00000000000E+00  0.10350700177E+04  0.10350700177E+04  0.00000000000E+00 0.  1.
         -2   -1    0    0    0  501 -0.00000000000E+00 -0.00000000000E+00 -0.13988980851E+04  0.13988980851E+04  0.00000000000E+00 0. -1.
    2000013    1    1    2    0    0 -0.34535735506E+03 -0.49649424674E+03 -0.61061643740E+03  0.12810662252E+04  0.95000000000E+03 0.  0.
   -2000013    1    1    2    0    0  0.34535735506E+03  0.49649424674E+03  0.24678836999E+03  0.11529018776E+04  0.95000000000E+03 0.  0.
<mgrwt>
<rscale>  0 0.24066221E+04</rscale>
<asrwt>0</asrwt>
<pdfrwt beam="1">  1        2 0.15924154E+00 0.24066221E+04</pdfrwt>
<pdfrwt beam="2">  1       -2 0.21521509E+00 0.24066221E+04</pdfrwt>
<totfact> 0.22789243E+00</totfact>
</mgrwt>
</event>
<event>
 4    1  0.2069825E-008  0.2342715E+04  0.7816531E-02  0.8461267E-01
         -2   -1    0    0    0  501 -0.00000000000E+00  0.00000000000E+00  0.49856930077E+03  0.49856930077E+03  0.00000000000E+00 0.  1.
          2   -1    0    0  501    0  0.00000000000E+00 -0.00000000000E+00 -0.27520324588E+04  0.27520324588E+04  0.00000000000E+00 0. -1.
    2000013    1    1    2    0    0 -0.55610970211E+03  0.20384512559E+01 -0.57116812693E+03  0.12401593387E+04  0.95000000000E+03 0.  0.
   -2000013    1    1    2    0    0  0.55610970211E+03 -0.20384512559E+01 -0.16822950311E+04  0.20104424209E+04  0.95000000000E+03 0.  0.
<mgrwt>
<rscale>  0 0.23427154E+04</rscale>
<asrwt>0</asrwt>
<pdfrwt beam="2">  1        2 0.42338961E+00 0.23427154E+04</pdfrwt>
<pdfrwt beam="1">  1       -2 0.76702969E-01 0.23427154E+04</pdfrwt>
<totfact> 0.33927431E+00</totfact>
</mgrwt>
</event>
<event>
 4    1  0.2069825E-008  0.2191007E+04  0.7816531E-02  0.8522180E-01
         -2   -1    0    0    0  501 -0.00000000000E+00  0.00000000000E+00  0.27506029743E+04  0.27506029743E+04  0.00000000000E+00 0. -1.
          2   -1    0    0  501    0  0.00000000000E+00 -0.00000000000E+00 -0.43631451850E+03  0.43631451850E+03  0.00000000000E+00 0.  1.
    2000013    1    1    2    0    0  0.51731604872E+03 -0.84353215237E+02  0.93704777658E+03  0.14336282275E+04  0.95000000000E+03 0.  0.
   -2000013    1    1    2    0    0 -0.51731604872E+03  0.84353215237E+02  0.13772406792E+04  0.17532892652E+04  0.95000000000E+03 0.  0.
<mgrwt>
<rscale>  0 0.21910071E+04</rscale>
<asrwt>0</asrwt>
<pdfrwt beam="2">  1        2 0.67125312E-01 0.21910071E+04</pdfrwt>
<pdfrwt beam="1">  1       -2 0.42316968E+00 0.21910071E+04</pdfrwt>
<totfact> 0.34477226E-01</totfact>
</mgrwt>
</event>
<event>
 4    1  0.2069825E-008  0.2952102E+04  0.7816531E-02  0.8257542E-01
          2   -1    0    0  501    0  0.00000000000E+00  0.00000000000E+00  0.19725936303E+04  0.19725936303E+04  0.00000000000E+00 0.  1.
         -2   -1    0    0    0  501 -0.00000000000E+00 -0.00000000000E+00 -0.11044987560E+04  0.11044987560E+04  0.00000000000E+00 0. -1.
    2000013    1    1    2    0    0 -0.84208053216E+03  0.71604849013E+03  0.19092942551E+03  0.14699588798E+04  0.95000000000E+03 0.  0.
   -2000013    1    1    2    0    0  0.84208053216E+03 -0.71604849013E+03  0.67716544880E+03  0.16071335066E+04  0.95000000000E+03 0.  0.
<mgrwt>
<rscale>  0 0.29521024E+04</rscale>
<asrwt>0</asrwt>
<pdfrwt beam="1">  1        2 0.30347594E+00 0.29521024E+04</pdfrwt>
<pdfrwt beam="2">  1       -2 0.16992289E+00 0.29521024E+04</pdfrwt>
<totfact> 0.12692070E+00</totfact>
</mgrwt>
</event>
<event>
 4    1  0.2069825E-008  0.3367080E+04  0.7816531E-02  0.8146034E-01
          2   -1    0    0  501    0  0.00000000000E+00  0.00000000000E+00  0.26070390209E+04  0.26070390209E+04  0.00000000000E+00 0.  1.
         -2   -1    0    0    0  501 -0.00000000000E+00 -0.00000000000E+00 -0.10871746830E+04  0.10871746830E+04  0.00000000000E+00 0. -1.
    2000013    1    1    2    0    0  0.70158115356E+03  0.27951842920E+03 -0.52024788407E+03  0.13204183156E+04  0.95000000000E+03 0.  0.
   -2000013    1    1    2    0    0 -0.70158115356E+03 -0.27951842920E+03  0.20401122219E+04  0.23737953883E+04  0.95000000000E+03 0.  0.
<mgrwt>
<rscale>  0 0.33670799E+04</rscale>
<asrwt>0</asrwt>
<pdfrwt beam="1">  1        2 0.40108292E+00 0.33670799E+04</pdfrwt>
<pdfrwt beam="2">  1       -2 0.16725764E+00 0.33670799E+04</pdfrwt>
<totfact> 0.55819943E-01</totfact>
</mgrwt>
</event>
<event>
 4    1  0.2069825E-008  0.2235685E+04  0.7816531E-02  0.8503720E-01
          2   -1    0    0  501    0  0.00000000000E+00  0.00000000000E+00  0.20715077939E+04  0.20715077939E+04  0.00000000000E+00 0. -1.
         -2   -1    0    0    0  501 -0.00000000000E+00 -0.00000000000E+00 -0.60321854984E+03  0.60321854984E+03  0.00000000000E+00 0.  1.
    2000013    1    1    2    0    0 -0.18809547894E+03 -0.46868197683E+03  0.37120731973E+03  0.11381289816E+04  0.95000000000E+03 0.  0.
   -2000013    1    1    2    0    0  0.18809547894E+03  0.46868197683E+03  0.10970819244E+04  0.15365973622E+04  0.95000000000E+03 0.  0.
<mgrwt>
<rscale>  0 0.22356851E+04</rscale>
<asrwt>0</asrwt>
<pdfrwt beam="1">  1        2 0.31869350E+00 0.22356851E+04</pdfrwt>
<pdfrwt beam="2">  1       -2 0.92802855E-01 0.22356851E+04</pdfrwt>
<totfact> 0.54672451E+00</totfact>
</mgrwt>
</event>
<event>
 4    1  0.2069825E-008  0.3009996E+04  0.7816531E-02  0.8240882E-01
         -2   -1    0    0    0  501 -0.00000000000E+00  0.00000000000E+00  0.45892536998E+03  0.45892536998E+03  0.00000000000E+00 0. -1.
          2   -1    0    0  501    0  0.00000000000E+00 -0.00000000000E+00 -0.49354855745E+04  0.49354855745E+04  0.00000000000E+00 0.  1.
    2000013    1    1    2    0    0 -0.20811255606E+03  0.50713585360E+03 -0.39137407597E+03  0.11645476707E+04  0.95000000000E+03 0.  0.
   -2000013    1    1    2    0    0  0.20811255606E+03 -0.50713585360E+03 -0.40851861286E+04  0.42298632738E+04  0.95000000000E+03 0.  0.
<mgrwt>
<rscale>  0 0.30099964E+04</rscale>
<asrwt>0</asrwt>
<pdfrwt beam="2">  1        2 0.75930543E+00 0.30099964E+04</pdfrwt>
<pdfrwt beam="1">  1       -2 0.70603907E-01 0.30099964E+04</pdfrwt>
<totfact> 0.64363613E-02</totfact>
</mgrwt>
</event>
<event>
 4    1  0.2069825E-008  0.2121362E+04  0.7816531E-02  0.8551891E-01
         -2   -1    0    0    0  501 -0.00000000000E+00  0.00000000000E+00  0.79453698684E+03  0.79453698684E+03  0.00000000000E+00 0. -1.
          2   -1    0    0  501    0  0.00000000000E+00 -0.00000000000E+00 -0.14159748594E+04  0.14159748594E+04  0.00000000000E+00 0.  1.
    2000013    1    1    2    0    0 -0.11460054744E+02  0.34531556312E+03 -0.64541855211E+03  0.11993495230E+04  0.95000000000E+03 0.  0.
   -2000013    1    1    2    0    0  0.11460054744E+02 -0.34531556312E+03  0.23980679511E+02  0.10111623233E+04  0.95000000000E+03 0.  0.
<mgrwt>
<rscale>  0 0.21213622E+04</rscale>
<asrwt>0</asrwt>
<pdfrwt beam="2">  1        2 0.21784228E+00 0.21213622E+04</pdfrwt>
<pdfrwt beam="1">  1       -2 0.12223646E+00 0.21213622E+04</pdfrwt>
<totfact> 0.66112422E+00</totfact>
</mgrwt>
</event>
<event>
 4    1  0.2069825E-008  0.1966586E+04  0.7816531E-02  0.8622404E-01
          2   -1    0    0  501    0  0.00000000000E+00  0.00000000000E+00  0.21029670750E+04  0.21029670750E+04  0.00000000000E+00 0. -1.
         -2   -1    0    0    0  501 -0.00000000000E+00 -0.00000000000E+00 -0.45976258291E+03  0.45976258291E+03  0.00000000000E+00 0.  1.
    2000013    1    1    2    0    0  0.11057568199E+03  0.17671167775E+03  0.10100465998E+04  0.14021940423E+04  0.95000000000E+03 0.  0.
   -2000013    1    1    2    0    0 -0.11057568199E+03 -0.17671167775E+03  0.63315789224E+03  0.11605356156E+04  0.95000000000E+03 0.  0.
<mgrwt>
<rscale>  0 0.19665865E+04</rscale>
<asrwt>0</asrwt>
<pdfrwt beam="1">  1        2 0.32353339E+00 0.19665865E+04</pdfrwt>
<pdfrwt beam="2">  1       -2 0.70732706E-01 0.19665865E+04</pdfrwt>
<totfact> 0.99077895E+00</totfact>
</mgrwt>
</event>
<event>
 4    1  0.2069825E-008  0.5724979E+04  0.7816531E-02  0.7725469E-01
         -2   -1    0    0    0  501 -0.00000000000E+00  0.00000000000E+00  0.24384616762E+04  0.24384616762E+04  0.00000000000E+00 0. -1.
          2   -1    0    0  501    0  0.00000000000E+00 -0.00000000000E+00 -0.33602521954E+04  0.33602521954E+04  0.00000000000E+00 0.  1.
    2000013    1    1    2    0    0  0.21840162299E+04 -0.15067930021E+04 -0.96834097024E+03  0.29800228654E+04  0.95000000000E+03 0.  0.
   -2000013    1    1    2    0    0 -0.21840162299E+04  0.15067930021E+04  0.46550451022E+02  0.28186910061E+04  0.95000000000E+03 0.  0.
<mgrwt>
<rscale>  0 0.57249790E+04</rscale>
<asrwt>0</asrwt>
<pdfrwt beam="2">  1        2 0.51696187E+00 0.57249790E+04</pdfrwt>
<pdfrwt beam="1">  1       -2 0.37514795E+00 0.57249790E+04</pdfrwt>
<totfact> 0.74983594E-03</totfact>
</mgrwt>
</event>
<event>
 4    1  0.2069825E-008  0.2524459E+04  0.7816531E-02  0.8394323E-01
         -2   -1    0    0    0  501 -0.00000000000E+00  0.00000000000E+00  0.64439920883E+03  0.64439920883E+03  0.00000000000E+00 0.  1.
          2   -1    0    0  501    0  0.00000000000E+00 -0.00000000000E+00 -0.24724164006E+04  0.24724164006E+04  0.00000000000E+00 0. -1.
    2000013    1    1    2    0    0  0.21992075375E+03  0.50612185956E+03 -0.14673860975E+03  0.11084027672E+04  0.95000000000E+03 0.  0.
   -2000013    1    1    2    0    0 -0.21992075375E+03 -0.50612185956E+03 -0.16812785820E+04  0.20084128423E+04  0.95000000000E+03 0.  0.
<mgrwt>
<rscale>  0 0.25244589E+04</rscale>
<asrwt>0</asrwt>
<pdfrwt beam="2">  1        2 0.38037176E+00 0.25244589E+04</pdfrwt>
<pdfrwt beam="1">  1       -2 0.99138339E-01 0.25244589E+04</pdfrwt>
<totfact> 0.27097390E+00</totfact>
</mgrwt>
</event>
<event>
 4    1  0.2069825E-008  0.2222194E+04  0.7816531E-02  0.8509247E-01
          2   -1    0    0  501    0  0.00000000000E+00  0.00000000000E+00  0.15541203989E+04  0.15541203989E+04  0.00000000000E+00 0.  1.
         -2   -1    0    0    0  501 -0.00000000000E+00 -0.00000000000E+00 -0.79436360667E+03  0.79436360667E+03  0.00000000000E+00 0. -1.
    2000013    1    1    2    0    0 -0.19345957562E+03  0.46481106347E+03  0.83662452548E+02  0.10784133429E+04  0.95000000000E+03 0.  0.
   -2000013    1    1    2    0    0  0.19345957562E+03 -0.46481106347E+03  0.67609433971E+03  0.12700706627E+04  0.95000000000E+03 0.  0.
<mgrwt>
<rscale>  0 0.22221941E+04</rscale>
<asrwt>0</asrwt>
<pdfrwt beam="1">  1        2 0.23909544E+00 0.22221941E+04</pdfrwt>
<pdfrwt beam="2">  1       -2 0.12220979E+00 0.22221941E+04</pdfrwt>
<totfact> 0.54785728E+00</totfact>
</mgrwt>
</event>
<event>
 4    1  0.2069825E-008  0.2643944E+04  0.7816531E-02  0.8353426E-01
          2   -1    0    0  501    0  0.00000000000E+00  0.00000000000E+00  0.13708948281E+04  0.13708948281E+04  0.00000000000E+00 0.  1.
         -2   -1    0    0    0  501 -0.00000000000E+00 -0.00000000000E+00 -0.12747952617E+04  0.12747952617E+04  0.00000000000E+00 0. -1.
    2000013    1    1    2    0    0  0.29365962567E+03 -0.86376523022E+03 -0.65090710300E+02  0.13187354357E+04  0.95000000000E+03 0.  0.
   -2000013    1    1    2    0    0 -0.29365962567E+03  0.86376523022E+03  0.16119027667E+03  0.13269546541E+04  0.95000000000E+03 0.  0.
<mgrwt>
<rscale>  0 0.26439442E+04</rscale>
<asrwt>0</asrwt>
<pdfrwt beam="1">  1        2 0.21090690E+00 0.26439442E+04</pdfrwt>
<pdfrwt beam="2">  1       -2 0.19612235E+00 0.26439442E+04</pdfrwt>
<totfact> 0.18700169E+00</totfact>
</mgrwt>
</event>
<event>
 4    1  0.2069825E-008  0.3314626E+04  0.7816531E-02  0.8159184E-01
          1   -1    0    0  501    0  0.00000000000E+00  0.00000000000E+00  0.20492758651E+04  0.20492758651E+04  0.00000000000E+00 0.  1.
         -1   -1    0    0    0  501 -0.00000000000E+00 -0.00000000000E+00 -0.13403202439E+04  0.13403202439E+04  0.00000000000E+00 0. -1.
    2000013    1    1    2    0    0  0.13240527320E+04  0.10406882869E+03  0.64415135424E+03  0.17553851217E+04  0.95000000000E+03 0.  0.
   -2000013    1    1    2    0    0 -0.13240527320E+04 -0.10406882869E+03  0.64804266916E+02  0.16342109874E+04  0.95000000000E+03 0.  0.
<mgrwt>
<rscale>  0 0.33146257E+04</rscale>
<asrwt>0</asrwt>
<pdfrwt beam="1">  1        1 0.31527321E+00 0.33146257E+04</pdfrwt>
<pdfrwt beam="2">  1       -1 0.20620311E+00 0.33146257E+04</pdfrwt>
<totfact> 0.31194379E-01</totfact>
</mgrwt>
</event>
<event>
 4    1  0.2069825E-008  0.2628451E+04  0.7816531E-02  0.8358601E-01
         -2   -1    0    0    0  501 -0.00000000000E+00  0.00000000000E+00  0.85405091521E+03  0.85405091521E+03  0.00000000000E+00 0. -1.
          2   -1    0    0  501    0  0.00000000000E+00 -0.00000000000E+00 -0.20223481210E+04  0.20223481210E+04  0.00000000000E+00 0.  1.
    2000013    1    1    2    0    0 -0.50875817783E+03  0.22091527421E+03 -0.13710412662E+04  0.17578090327E+04  0.95000000000E+03 0.  0.
   -2000013    1    1    2    0    0  0.50875817783E+03 -0.22091527421E+03  0.20274406041E+03  0.11185900035E+04  0.95000000000E+03 0.  0.
<mgrwt>
<rscale>  0 0.26284507E+04</rscale>
<asrwt>0</asrwt>
<pdfrwt beam="2">  1        2 0.31113048E+00 0.26284507E+04</pdfrwt>
<pdfrwt beam="1">  1       -2 0.13139245E+00 0.26284507E+04</pdfrwt>
<totfact> 0.24220220E+00</totfact>
</mgrwt>
</event>
<event>
 4    1  0.2069825E-008  0.2558200E+04  0.7816531E-02  0.8382540E-01
         -2   -1    0    0    0  501 -0.00000000000E+00  0.00000000000E+00  0.11618976095E+04  0.11618976095E+04  0.00000000000E+00 0. -1.
          2   -1    0    0  501    0  0.00000000000E+00 -0.00000000000E+00 -0.14081248840E+04  0.14081248840E+04  0.00000000000E+00 0.  1.
    2000013    1    1    2    0    0 -0.20286579919E+03 -0.82784405067E+03 -0.38363644878E+02  0.12768915670E+04  0.95000000000E+03 0.  0.
   -2000013    1    1    2    0    0  0.20286579919E+03  0.82784405067E+03 -0.20786362963E+03  0.12931309266E+04  0.95000000000E+03 0.  0.
<mgrwt>
<rscale>  0 0.25582001E+04</rscale>
<asrwt>0</asrwt>
<pdfrwt beam="2">  1        2 0.21663460E+00 0.25582001E+04</pdfrwt>
<pdfrwt beam="1">  1       -2 0.17875348E+00 0.25582001E+04</pdfrwt>
<totfact> 0.23507760E+00</totfact>
</mgrwt>
</event>
<event>
 4    1  0.2069825E-008  0.2818038E+04  0.7816531E-02  0.8297690E-01
          2   -1    0    0  501    0  0.00000000000E+00  0.00000000000E+00  0.17134631089E+04  0.17134631089E+04  0.00000000000E+00 0.  1.
         -2   -1    0    0    0  501 -0.00000000000E+00 -0.00000000000E+00 -0.11586680530E+04  0.11586680530E+04  0.00000000000E+00 0. -1.
    2000013    1    1    2    0    0  0.61681434571E+03 -0.71594892076E+03  0.72141138440E+03  0.15218334928E+04  0.95000000000E+03 0.  0.
   -2000013    1    1    2    0    0 -0.61681434571E+03  0.71594892076E+03 -0.16661632850E+03  0.13502976691E+04  0.95000000000E+03 0.  0.
<mgrwt>
<rscale>  0 0.28180383E+04</rscale>
<asrwt>0</asrwt>
<pdfrwt beam="1">  1        2 0.26360971E+00 0.28180383E+04</pdfrwt>
<pdfrwt beam="2">  1       -2 0.17825662E+00 0.28180383E+04</pdfrwt>
<totfact> 0.15617559E+00</totfact>
</mgrwt>
</event>
<event>
 4    1  0.2069825E-008  0.2179886E+04  0.7816531E-02  0.8526847E-01
          2   -1    0    0  501    0  0.00000000000E+00  0.00000000000E+00  0.44744018834E+04  0.44744018834E+04  0.00000000000E+00 0.  1.
         -2   -1    0    0    0  501 -0.00000000000E+00 -0.00000000000E+00 -0.26550500789E+03  0.26550500789E+03  0.00000000000E+00 0. -1.
    2000013    1    1    2    0    0  0.28804721170E+03  0.39226309326E+03  0.25839704331E+04  0.27957547692E+04  0.95000000000E+03 0.  0.
   -2000013    1    1    2    0    0 -0.28804721170E+03 -0.39226309326E+03  0.16249264424E+04  0.19441521221E+04  0.95000000000E+03 0.  0.
<mgrwt>
<rscale>  0 0.21798863E+04</rscale>
<asrwt>0</asrwt>
<pdfrwt beam="1">  1        2 0.68836946E+00 0.21798863E+04</pdfrwt>
<pdfrwt beam="2">  1       -2 0.40846928E-01 0.21798863E+04</pdfrwt>
<totfact> 0.68541344E-01</totfact>
</mgrwt>
</event>
<event>
 4    1  0.2069825E-008  0.2630781E+04  0.7816531E-02  0.8357820E-01
         -2   -1    0    0    0  501 -0.00000000000E+00  0.00000000000E+00  0.56150695792E+03  0.56150695792E+03  0.00000000000E+00 0. -1.
          2   -1    0    0  501    0  0.00000000000E+00 -0.00000000000E+00 -0.30814445664E+04  0.30814445664E+04  0.00000000000E+00 0.  1.
    2000013    1    1    2    0    0 -0.90858816923E+03 -0.30232931481E+02 -0.12099247615E+04  0.17868588136E+04  0.95000000000E+03 0.  0.
   -2000013    1    1    2    0    0  0.90858816923E+03  0.30232931481E+02 -0.13100128470E+04  0.18560927107E+04  0.95000000000E+03 0.  0.
<mgrwt>
<rscale>  0 0.26307813E+04</rscale>
<asrwt>0</asrwt>
<pdfrwt beam="2">  1        2 0.47406840E+00 0.26307813E+04</pdfrwt>
<pdfrwt beam="1">  1       -2 0.86385685E-01 0.26307813E+04</pdfrwt>
<totfact> 0.15843224E+00</totfact>
</mgrwt>
</event>
<event>
 4    1  0.2069825E-008  0.3139787E+04  0.7816531E-02  0.8204903E-01
         -2   -1    0    0    0  501 -0.00000000000E+00  0.00000000000E+00  0.72234342337E+03  0.72234342337E+03  0.00000000000E+00 0. -1.
          2   -1    0    0  501    0  0.00000000000E+00 -0.00000000000E+00 -0.34119022560E+04  0.34119022560E+04  0.00000000000E+00 0.  1.
    2000013    1    1    2    0    0 -0.31242097334E+01  0.12451065128E+04 -0.12019573937E+04  0.19742090986E+04  0.95000000000E+03 0.  0.
   -2000013    1    1    2    0    0  0.31242097334E+01 -0.12451065128E+04 -0.14876014389E+04  0.21600365807E+04  0.95000000000E+03 0.  0.
<mgrwt>
<rscale>  0 0.31397867E+04</rscale>
<asrwt>0</asrwt>
<pdfrwt beam="2">  1        2 0.52490804E+00 0.31397867E+04</pdfrwt>
<pdfrwt beam="1">  1       -2 0.11112976E+00 0.31397867E+04</pdfrwt>
<totfact> 0.50694952E-01</totfact>
</mgrwt>
</event>
<event>
 4    1  0.2069825E-008  0.2712790E+04  0.7816531E-02  0.8330867E-01
         -2   -1    0    0    0  501 -0.00000000000E+00  0.00000000000E+00  0.13628953895E+04  0.13628953895E+04  0.00000000000E+00 0. -1.
          2   -1    0    0  501    0  0.00000000000E+00 -0.00000000000E+00 -0.13499252542E+04  0.13499252542E+04  0.00000000000E+00 0.  1.
    2000013    1    1    2    0    0  0.87204152740E+03 -0.32502795539E+03  0.27333509227E+03  0.13576861456E+04  0.95000000000E+03 0.  0.
   -2000013    1    1    2    0    0 -0.87204152740E+03  0.32502795539E+03 -0.26036495697E+03  0.13551344982E+04  0.95000000000E+03 0.  0.
<mgrwt>
<rscale>  0 0.27127896E+04</rscale>
<asrwt>0</asrwt>
<pdfrwt beam="2">  1        2 0.20768081E+00 0.27127896E+04</pdfrwt>
<pdfrwt beam="1">  1       -2 0.20967621E+00 0.27127896E+04</pdfrwt>
<totfact> 0.15593669E+00</totfact>
</mgrwt>
</event>
<event>
 4    1  0.2069825E-008  0.3129022E+04  0.7816531E-02  0.8207818E-01
          2   -1    0    0  501    0  0.00000000000E+00  0.00000000000E+00  0.92285020154E+03  0.92285020154E+03  0.00000000000E+00 0.  1.
         -2   -1    0    0    0  501 -0.00000000000E+00 -0.00000000000E+00 -0.26523213102E+04  0.26523213102E+04  0.00000000000E+00 0. -1.
    2000013    1    1    2    0    0 -0.93806344651E+03  0.44396995540E+03 -0.16464860367E+04  0.21657535917E+04  0.95000000000E+03 0.  0.
   -2000013    1    1    2    0    0  0.93806344651E+03 -0.44396995540E+03 -0.82985071912E+02  0.14094179200E+04  0.95000000000E+03 0.  0.
<mgrwt>
<rscale>  0 0.31290224E+04</rscale>
<asrwt>0</asrwt>
<pdfrwt beam="1">  1        2 0.14197696E+00 0.31290224E+04</pdfrwt>
<pdfrwt beam="2">  1       -2 0.40804943E+00 0.31290224E+04</pdfrwt>
<totfact> 0.15741371E-01</totfact>
</mgrwt>
</event>
<event>
 4    1  0.2069825E-008  0.2270975E+04  0.7816531E-02  0.8489454E-01
         -2   -1    0    0    0  501 -0.00000000000E+00  0.00000000000E+00  0.13147701838E+04  0.13147701838E+04  0.00000000000E+00 0. -1.
          2   -1    0    0  501    0  0.00000000000E+00 -0.00000000000E+00 -0.98065208512E+03  0.98065208512E+03  0.00000000000E+00 0.  1.
    2000013    1    1    2    0    0  0.91680913937E+02 -0.46583785679E+03 -0.23903938761E+03  0.10886000770E+04  0.95000000000E+03 0.  0.
   -2000013    1    1    2    0    0 -0.91680913937E+02  0.46583785679E+03  0.57315748626E+03  0.12068221919E+04  0.95000000000E+03 0.  0.
<mgrwt>
<rscale>  0 0.22709752E+04</rscale>
<asrwt>0</asrwt>
<pdfrwt beam="2">  1        2 0.15086955E+00 0.22709752E+04</pdfrwt>
<pdfrwt beam="1">  1       -2 0.20227234E+00 0.22709752E+04</pdfrwt>
<totfact> 0.30269652E+00</totfact>
</mgrwt>
</event>
<event>
 4    1  0.2069825E-008  0.2031254E+04  0.7816531E-02  0.8592146E-01
          2   -1    0    0  501    0  0.00000000000E+00  0.00000000000E+00  0.78996277337E+03  0.78996277337E+03  0.00000000000E+00 0.  1.
         -2   -1    0    0    0  501 -0.00000000000E+00 -0.00000000000E+00 -0.13057548470E+04  0.13057548470E+04  0.00000000000E+00 0. -1.
    2000013    1    1    2    0    0 -0.23005160825E+03 -0.24141221983E+03 -0.12026801577E+03  0.10139861922E+04  0.95000000000E+03 0.  0.
   -2000013    1    1    2    0    0  0.23005160825E+03  0.24141221983E+03 -0.39552405784E+03  0.10817314282E+04  0.95000000000E+03 0.  0.
<mgrwt>
<rscale>  0 0.20312535E+04</rscale>
<asrwt>0</asrwt>
<pdfrwt beam="1">  1        2 0.12153273E+00 0.20312535E+04</pdfrwt>
<pdfrwt beam="2">  1       -2 0.20088536E+00 0.20312535E+04</pdfrwt>
<totfact> 0.42578517E+00</totfact>
</mgrwt>
</event>
<event>
 4    1  0.2069825E-008  0.2541613E+04  0.7816531E-02  0.8388309E-01
         -2   -1    0    0    0  501 -0.00000000000E+00  0.00000000000E+00  0.14996686193E+04  0.14996686193E+04  0.00000000000E+00 0. -1.
          2   -1    0    0  501    0  0.00000000000E+00 -0.00000000000E+00 -0.10768706158E+04  0.10768706158E+04  0.00000000000E+00 0.  1.
    2000013    1    1    2    0    0 -0.72175297923E+03 -0.15849320925E+03 -0.20213013058E+03  0.12204114266E+04  0.95000000000E+03 0.  0.
   -2000013    1    1    2    0    0  0.72175297923E+03  0.15849320925E+03  0.62492813406E+03  0.13561278086E+04  0.95000000000E+03 0.  0.
<mgrwt>
<rscale>  0 0.25416129E+04</rscale>
<asrwt>0</asrwt>
<pdfrwt beam="2">  1        2 0.16567240E+00 0.25416129E+04</pdfrwt>
<pdfrwt beam="1">  1       -2 0.23071825E+00 0.25416129E+04</pdfrwt>
<totfact> 0.16934370E+00</totfact>
</mgrwt>
</event>
<event>
 4    1  0.2069825E-008  0.2144186E+04  0.7816531E-02  0.8542025E-01
         -2   -1    0    0    0  501 -0.00000000000E+00  0.00000000000E+00  0.57648761148E+03  0.57648761148E+03  0.00000000000E+00 0.  1.
          2   -1    0    0  501    0  0.00000000000E+00 -0.00000000000E+00 -0.19937702990E+04  0.19937702990E+04  0.00000000000E+00 0. -1.
    2000013    1    1    2    0    0 -0.47184672077E+03 -0.78347383039E+02 -0.86993907572E+03  0.13740711902E+04  0.95000000000E+03 0.  0.
   -2000013    1    1    2    0    0  0.47184672077E+03  0.78347383039E+02 -0.54734361177E+03  0.11961867202E+04  0.95000000000E+03 0.  0.
<mgrwt>
<rscale>  0 0.21441864E+04</rscale>
<asrwt>0</asrwt>
<pdfrwt beam="2">  1        2 0.30673390E+00 0.21441864E+04</pdfrwt>
<pdfrwt beam="1">  1       -2 0.88690399E-01 0.21441864E+04</pdfrwt>
<totfact> 0.67594423E+00</totfact>
</mgrwt>
</event>
<event>
 4    1  0.2069825E-008  0.2737377E+04  0.7816531E-02  0.8322978E-01
          2   -1    0    0  501    0  0.00000000000E+00  0.00000000000E+00  0.17698735918E+04  0.17698735918E+04  0.00000000000E+00 0.  1.
         -2   -1    0    0    0  501 -0.00000000000E+00 -0.00000000000E+00 -0.10584419406E+04  0.10584419406E+04  0.00000000000E+00 0. -1.
    2000013    1    1    2    0    0 -0.82993086271E+03  0.17034614002E+03 -0.16399062700E+03  0.12834313266E+04  0.95000000000E+03 0.  0.
   -2000013    1    1    2    0    0  0.82993086271E+03 -0.17034614002E+03  0.87542227813E+03  0.15448842058E+04  0.95000000000E+03 0.  0.
<mgrwt>
<rscale>  0 0.27373772E+04</rscale>
<asrwt>0</asrwt>
<pdfrwt beam="1">  1        2 0.27228825E+00 0.27373772E+04</pdfrwt>
<pdfrwt beam="2">  1       -2 0.16283722E+00 0.27373772E+04</pdfrwt>
<totfact> 0.18832485E+00</totfact>
</mgrwt>
</event>
<event>
 4    1  0.2069825E-008  0.2353653E+04  0.7816531E-02  0.8457062E-01
          2   -1    0    0  501    0  0.00000000000E+00  0.00000000000E+00  0.33504828733E+04  0.33504828733E+04  0.00000000000E+00 0.  1.
         -2   -1    0    0    0  501 -0.00000000000E+00 -0.00000000000E+00 -0.41334946457E+03  0.41334946457E+03  0.00000000000E+00 0. -1.
    2000013    1    1    2    0    0 -0.65859792477E+03 -0.11898787114E+03  0.11714914937E+04  0.16500914095E+04  0.95000000000E+03 0.  0.
   -2000013    1    1    2    0    0  0.65859792477E+03  0.11898787114E+03  0.17656419150E+04  0.21137409283E+04  0.95000000000E+03 0.  0.
<mgrwt>
<rscale>  0 0.23536527E+04</rscale>
<asrwt>0</asrwt>
<pdfrwt beam="1">  1        2 0.51545889E+00 0.23536527E+04</pdfrwt>
<pdfrwt beam="2">  1       -2 0.63592228E-01 0.23536527E+04</pdfrwt>
<totfact> 0.21314539E+00</totfact>
</mgrwt>
</event>
<event>
 4    1  0.2069825E-008  0.3268814E+04  0.7816531E-02  0.8170876E-01
         -2   -1    0    0    0  501 -0.00000000000E+00  0.00000000000E+00  0.13187580313E+04  0.13187580313E+04  0.00000000000E+00 0. -1.
          2   -1    0    0  501    0  0.00000000000E+00 -0.00000000000E+00 -0.20256077946E+04  0.20256077946E+04  0.00000000000E+00 0.  1.
    2000013    1    1    2    0    0  0.28208588410E+03  0.11813972224E+04  0.20086694473E+03  0.15550303446E+04  0.95000000000E+03 0.  0.
   -2000013    1    1    2    0    0 -0.28208588410E+03 -0.11813972224E+04 -0.90771670803E+03  0.17893354814E+04  0.95000000000E+03 0.  0.
<mgrwt>
<rscale>  0 0.32688142E+04</rscale>
<asrwt>0</asrwt>
<pdfrwt beam="2">  1        2 0.31163197E+00 0.32688142E+04</pdfrwt>
<pdfrwt beam="1">  1       -2 0.20288585E+00 0.32688142E+04</pdfrwt>
<totfact> 0.68939460E-01</totfact>
</mgrwt>
</event>
<event>
 4    1  0.2069825E-008  0.1927685E+04  0.7816531E-02  0.8641197E-01
         -2   -1    0    0    0  501 -0.00000000000E+00  0.00000000000E+00  0.84391713138E+03  0.84391713138E+03  0.00000000000E+00 0. -1.
          2   -1    0    0  501    0  0.00000000000E+00 -0.00000000000E+00 -0.11008097540E+04  0.11008097540E+04  0.00000000000E+00 0.  1.
    2000013    1    1    2    0    0  0.26719570823E+02 -0.11990711499E+03 -0.23616365668E+03  0.98659258280E+03  0.95000000000E+03 0.  0.
   -2000013    1    1    2    0    0 -0.26719570823E+02  0.11990711499E+03 -0.20728965907E+02  0.95813430255E+03  0.95000000000E+03 0.  0.
<mgrwt>
<rscale>  0 0.19276848E+04</rscale>
<asrwt>0</asrwt>
<pdfrwt beam="2">  1        2 0.16935535E+00 0.19276848E+04</pdfrwt>
<pdfrwt beam="1">  1       -2 0.12983340E+00 0.19276848E+04</pdfrwt>
<totfact> 0.88612210E+00</totfact>
</mgrwt>
</event>
<event>
 4    1  0.2069825E-008  0.3103225E+04  0.7816531E-02  0.8214853E-01
         -2   -1    0    0    0  501 -0.00000000000E+00  0.00000000000E+00  0.10334372123E+04  0.10334372123E+04  0.00000000000E+00 0.  1.
          2   -1    0    0  501    0  0.00000000000E+00 -0.00000000000E+00 -0.23296061622E+04  0.23296061622E+04  0.00000000000E+00 0. -1.
    2000013    1    1    2    0    0  0.10674113835E+04  0.48498841135E+03 -0.25670979079E+03  0.15306798285E+04  0.95000000000E+03 0.  0.
   -2000013    1    1    2    0    0 -0.10674113835E+04 -0.48498841135E+03 -0.10394591592E+04  0.18323635459E+04  0.95000000000E+03 0.  0.
<mgrwt>
<rscale>  0 0.31032252E+04</rscale>
<asrwt>0</asrwt>
<pdfrwt beam="2">  1        2 0.35840095E+00 0.31032252E+04</pdfrwt>
<pdfrwt beam="1">  1       -2 0.15899034E+00 0.31032252E+04</pdfrwt>
<totfact> 0.94858456E-01</totfact>
</mgrwt>
</event>
<event>
 4    1  0.2069825E-008  0.3657673E+04  0.7816531E-02  0.8077407E-01
         -2   -1    0    0    0  501 -0.00000000000E+00  0.00000000000E+00  0.15062470788E+04  0.15062470788E+04  0.00000000000E+00 0. -1.
          2   -1    0    0  501    0  0.00000000000E+00 -0.00000000000E+00 -0.22205139398E+04  0.22205139398E+04  0.00000000000E+00 0.  1.
    2000013    1    1    2    0    0 -0.35397052569E+02 -0.12204856048E+04  0.63663793724E+03  0.16729153971E+04  0.95000000000E+03 0.  0.
   -2000013    1    1    2    0    0  0.35397052569E+02  0.12204856048E+04 -0.13509047982E+04  0.20538456214E+04  0.95000000000E+03 0.  0.
<mgrwt>
<rscale>  0 0.36576728E+04</rscale>
<asrwt>0</asrwt>
<pdfrwt beam="2">  1        2 0.34161753E+00 0.36576728E+04</pdfrwt>
<pdfrwt beam="1">  1       -2 0.23173032E+00 0.36576728E+04</pdfrwt>
<totfact> 0.34016965E-01</totfact>
</mgrwt>
</event>
<event>
 4    1  0.2069825E-008  0.2429312E+04  0.7816531E-02  0.8428610E-01
          2   -1    0    0  501    0  0.00000000000E+00  0.00000000000E+00  0.24401580260E+04  0.24401580260E+04  0.00000000000E+00 0.  1.
         -2   -1    0    0    0  501 -0.00000000000E+00 -0.00000000000E+00 -0.60462851657E+03  0.60462851657E+03  0.00000000000E+00 0. -1.
    2000013    1    1    2    0    0 -0.52262248344E+03 -0.27438127651E+03  0.15115815941E+04  0.18803718411E+04  0.95000000000E+03 0.  0.
   -2000013    1    1    2    0    0  0.52262248344E+03  0.27438127651E+03  0.32394791525E+03  0.11644147014E+04  0.95000000000E+03 0.  0.
<mgrwt>
<rscale>  0 0.24293119E+04</rscale>
<asrwt>0</asrwt>
<pdfrwt beam="1">  1        2 0.37540892E+00 0.24293119E+04</pdfrwt>
<pdfrwt beam="2">  1       -2 0.93019773E-01 0.24293119E+04</pdfrwt>
<totfact> 0.33100903E+00</totfact>
</mgrwt>
</event>
<event>
 4    1  0.2069825E-008  0.2321879E+04  0.7816531E-02  0.8469344E-01
         -2   -1    0    0    0  501 -0.00000000000E+00  0.00000000000E+00  0.60835622007E+03  0.60835622007E+03  0.00000000000E+00 0. -1.
          2   -1    0    0  501    0  0.00000000000E+00 -0.00000000000E+00 -0.22154460544E+04  0.22154460544E+04  0.00000000000E+00 0.  1.
    2000013    1    1    2    0    0 -0.26774646735E+03 -0.55682500291E+03 -0.49698741709E+03  0.12374323203E+04  0.95000000000E+03 0.  0.
   -2000013    1    1    2    0    0  0.26774646735E+03  0.55682500291E+03 -0.11101024172E+04  0.15863699541E+04  0.95000000000E+03 0.  0.
<mgrwt>
<rscale>  0 0.23218789E+04</rscale>
<asrwt>0</asrwt>
<pdfrwt beam="2">  1        2 0.34083785E+00 0.23218789E+04</pdfrwt>
<pdfrwt beam="1">  1       -2 0.93593265E-01 0.23218789E+04</pdfrwt>
<totfact> 0.44198485E+00</totfact>
</mgrwt>
</event>
<event>
 4    1  0.2069825E-008  0.2512199E+04  0.7816531E-02  0.8398653E-01
          2   -1    0    0  501    0  0.00000000000E+00  0.00000000000E+00  0.12316463776E+04  0.12316463776E+04  0.00000000000E+00 0.  1.
         -2   -1    0    0    0  501 -0.00000000000E+00 -0.00000000000E+00 -0.12810377249E+04  0.12810377249E+04  0.00000000000E+00 0. -1.
    2000013    1    1    2    0    0  0.15724941620E+03 -0.59204802084E+03  0.52316672851E+03  0.12455728255E+04  0.95000000000E+03 0.  0.
   -2000013    1    1    2    0    0 -0.15724941620E+03  0.59204802084E+03 -0.57255807584E+03  0.12671112769E+04  0.95000000000E+03 0.  0.
<mgrwt>
<rscale>  0 0.25121986E+04</rscale>
<asrwt>0</asrwt>
<pdfrwt beam="1">  1        2 0.18948406E+00 0.25121986E+04</pdfrwt>
<pdfrwt beam="2">  1       -2 0.19708273E+00 0.25121986E+04</pdfrwt>
<totfact> 0.22464517E+00</totfact>
</mgrwt>
</event>
<event>
 4    1  0.2069825E-008  0.3614342E+04  0.7816531E-02  0.8087214E-01
         -2   -1    0    0    0  501 -0.00000000000E+00  0.00000000000E+00  0.87843770618E+03  0.87843770618E+03  0.00000000000E+00 0.  1.
          2   -1    0    0  501    0  0.00000000000E+00 -0.00000000000E+00 -0.37178127226E+04  0.37178127226E+04  0.00000000000E+00 0. -1.
    2000013    1    1    2    0    0  0.98215930524E+03 -0.11822002407E+04 -0.13768911331E+04  0.22716873690E+04  0.95000000000E+03 0.  0.
   -2000013    1    1    2    0    0 -0.98215930524E+03  0.11822002407E+04 -0.14624838833E+04  0.23245630598E+04  0.95000000000E+03 0.  0.
<mgrwt>
<rscale>  0 0.36143419E+04</rscale>
<asrwt>0</asrwt>
<pdfrwt beam="2">  1        2 0.57197118E+00 0.36143419E+04</pdfrwt>
<pdfrwt beam="1">  1       -2 0.13514427E+00 0.36143419E+04</pdfrwt>
<totfact> 0.18095713E-01</totfact>
</mgrwt>
</event>
<event>
 4    1  0.2069825E-008  0.2196891E+04  0.7816531E-02  0.8519723E-01
          2   -1    0    0  501    0  0.00000000000E+00  0.00000000000E+00  0.21089721172E+04  0.21089721172E+04  0.00000000000E+00 0.  1.
         -2   -1    0    0    0  501 -0.00000000000E+00 -0.00000000000E+00 -0.57211852463E+03  0.57211852463E+03  0.00000000000E+00 0. -1.
    2000013    1    1    2    0    0 -0.42339698243E+03  0.35290976970E+03  0.78854330545E+03  0.13520764974E+04  0.95000000000E+03 0.  0.
   -2000013    1    1    2    0    0  0.42339698243E+03 -0.35290976970E+03  0.74831028716E+03  0.13290141444E+04  0.95000000000E+03 0.  0.
<mgrwt>
<rscale>  0 0.21968905E+04</rscale>
<asrwt>0</asrwt>
<pdfrwt beam="1">  1        2 0.32445724E+00 0.21968905E+04</pdfrwt>
<pdfrwt beam="2">  1       -2 0.88018236E-01 0.21968905E+04</pdfrwt>
<totfact> 0.59068048E+00</totfact>
</mgrwt>
</event>
<event>
 4    1  0.2069825E-008  0.2813266E+04  0.7816531E-02  0.8299161E-01
         -1   -1    0    0    0  501 -0.00000000000E+00  0.00000000000E+00  0.14203593777E+04  0.14203593777E+04  0.00000000000E+00 0.  1.
          1   -1    0    0  501    0  0.00000000000E+00 -0.00000000000E+00 -0.13930397098E+04  0.13930397098E+04  0.00000000000E+00 0. -1.
    2000013    1    1    2    0    0  0.66946424607E+03  0.55983268968E+03  0.57450888558E+03  0.14121456996E+04  0.95000000000E+03 0.  0.
   -2000013    1    1    2    0    0 -0.66946424607E+03 -0.55983268968E+03 -0.54718921772E+03  0.14012533879E+04  0.95000000000E+03 0.  0.
<mgrwt>
<rscale>  0 0.28132664E+04</rscale>
<asrwt>0</asrwt>
<pdfrwt beam="2">  1        1 0.21431380E+00 0.28132664E+04</pdfrwt>
<pdfrwt beam="1">  1       -1 0.21851683E+00 0.28132664E+04</pdfrwt>
<totfact> 0.75659934E-01</totfact>
</mgrwt>
</event>
<event>
 4    1  0.2069825E-008  0.2186638E+04  0.7816531E-02  0.8524010E-01
          2   -1    0    0  501    0  0.00000000000E+00  0.00000000000E+00  0.16155305693E+04  0.16155305693E+04  0.00000000000E+00 0.  1.
         -2   -1    0    0    0  501 -0.00000000000E+00 -0.00000000000E+00 -0.73990976458E+03  0.73990976458E+03  0.00000000000E+00 0. -1.
    2000013    1    1    2    0    0  0.24012390055E+03 -0.34942529751E+03  0.80005834953E+03  0.13123836668E+04  0.95000000000E+03 0.  0.
   -2000013    1    1    2    0    0 -0.24012390055E+03  0.34942529751E+03  0.75562455186E+02  0.10430566671E+04  0.95000000000E+03 0.  0.
<mgrwt>
<rscale>  0 0.21866384E+04</rscale>
<asrwt>0</asrwt>
<pdfrwt beam="1">  1        2 0.24854316E+00 0.21866384E+04</pdfrwt>
<pdfrwt beam="2">  1       -2 0.11383227E+00 0.21866384E+04</pdfrwt>
<totfact> 0.60473874E+00</totfact>
</mgrwt>
</event>
<event>
 4    1  0.2069825E-008  0.2651147E+04  0.7816531E-02  0.8351032E-01
         -2   -1    0    0    0  501 -0.00000000000E+00  0.00000000000E+00  0.14091508788E+04  0.14091508788E+04  0.00000000000E+00 0. -1.
          2   -1    0    0  501    0  0.00000000000E+00 -0.00000000000E+00 -0.12469528007E+04  0.12469528007E+04  0.00000000000E+00 0.  1.
    2000013    1    1    2    0    0  0.55574229654E+03 -0.52786705212E+03  0.59893247510E+03  0.13596739442E+04  0.95000000000E+03 0.  0.
   -2000013    1    1    2    0    0 -0.55574229654E+03  0.52786705212E+03 -0.43673439705E+03  0.12964297353E+04  0.95000000000E+03 0.  0.
<mgrwt>
<rscale>  0 0.26511466E+04</rscale>
<asrwt>0</asrwt>
<pdfrwt beam="2">  1        2 0.19183889E+00 0.26511466E+04</pdfrwt>
<pdfrwt beam="1">  1       -2 0.21679244E+00 0.26511466E+04</pdfrwt>
<totfact> 0.16205582E+00</totfact>
</mgrwt>
</event>
<event>
 4    1  0.2069825E-008  0.3316819E+04  0.7816531E-02  0.8158629E-01
         -2   -1    0    0    0  501 -0.00000000000E+00  0.00000000000E+00  0.18431744568E+04  0.18431744568E+04  0.00000000000E+00 0. -1.
          2   -1    0    0  501    0  0.00000000000E+00 -0.00000000000E+00 -0.14921658665E+04  0.14921658665E+04  0.00000000000E+00 0.  1.
    2000013    1    1    2    0    0  0.60818564070E+03 -0.80568535453E+03 -0.73996574074E+03  0.15713268156E+04  0.95000000000E+03 0.  0.
   -2000013    1    1    2    0    0 -0.60818564070E+03  0.80568535453E+03  0.10909743310E+04  0.17640135076E+04  0.95000000000E+03 0.  0.
<mgrwt>
<rscale>  0 0.33168190E+04</rscale>
<asrwt>0</asrwt>
<pdfrwt beam="2">  1        2 0.22956398E+00 0.33168190E+04</pdfrwt>
<pdfrwt beam="1">  1       -2 0.28356530E+00 0.33168190E+04</pdfrwt>
<totfact> 0.42841406E-01</totfact>
</mgrwt>
</event>
<event>
 4    1  0.2069825E-008  0.2402264E+04  0.7816531E-02  0.8438656E-01
          2   -1    0    0  501    0  0.00000000000E+00  0.00000000000E+00  0.11676717493E+04  0.11676717493E+04  0.00000000000E+00 0.  1.
         -2   -1    0    0    0  501 -0.00000000000E+00 -0.00000000000E+00 -0.12355513748E+04  0.12355513748E+04  0.00000000000E+00 0. -1.
    2000013    1    1    2    0    0 -0.15165997590E+03  0.65705632134E+03 -0.32645124676E+03  0.12098736191E+04  0.95000000000E+03 0.  0.
   -2000013    1    1    2    0    0  0.15165997590E+03 -0.65705632134E+03  0.25857162124E+03  0.11933495050E+04  0.95000000000E+03 0.  0.
<mgrwt>
<rscale>  0 0.24022643E+04</rscale>
<asrwt>0</asrwt>
<pdfrwt beam="1">  1        2 0.17964181E+00 0.24022643E+04</pdfrwt>
<pdfrwt beam="2">  1       -2 0.19008483E+00 0.24022643E+04</pdfrwt>
<totfact> 0.27566111E+00</totfact>
</mgrwt>
</event>
<event>
 4    1  0.2069825E-008  0.2421439E+04  0.7816531E-02  0.8431520E-01
          2   -1    0    0  501    0  0.00000000000E+00  0.00000000000E+00  0.17902780126E+04  0.17902780126E+04  0.00000000000E+00 0.  1.
         -2   -1    0    0    0  501 -0.00000000000E+00 -0.00000000000E+00 -0.81877912909E+03  0.81877912909E+03  0.00000000000E+00 0. -1.
    2000013    1    1    2    0    0  0.71409370195E+03 -0.18572564324E+03  0.33754792052E+03  0.12493447996E+04  0.95000000000E+03 0.  0.
   -2000013    1    1    2    0    0 -0.71409370195E+03  0.18572564324E+03  0.63395096304E+03  0.13597123421E+04  0.95000000000E+03 0.  0.
<mgrwt>
<rscale>  0 0.24214395E+04</rscale>
<asrwt>0</asrwt>
<pdfrwt beam="1">  1        2 0.27542738E+00 0.24214395E+04</pdfrwt>
<pdfrwt beam="2">  1       -2 0.12596602E+00 0.24214395E+04</pdfrwt>
<totfact> 0.36886291E+00</totfact>
</mgrwt>
</event>
<event>
 4    1  0.2069825E-008  0.2743330E+04  0.7816531E-02  0.8321081E-01
          2   -1    0    0  501    0  0.00000000000E+00  0.00000000000E+00  0.93020574051E+03  0.93020574051E+03  0.00000000000E+00 0.  1.
         -2   -1    0    0    0  501 -0.00000000000E+00 -0.00000000000E+00 -0.20226334079E+04  0.20226334079E+04  0.00000000000E+00 0. -1.
    2000013    1    1    2    0    0 -0.26075879912E+02  0.98432907275E+03 -0.65046923883E+03  0.15149897378E+04  0.95000000000E+03 0.  0.
   -2000013    1    1    2    0    0  0.26075879912E+02 -0.98432907275E+03 -0.44195842855E+03  0.14378494106E+04  0.95000000000E+03 0.  0.
<mgrwt>
<rscale>  0 0.27433302E+04</rscale>
<asrwt>0</asrwt>
<pdfrwt beam="1">  1        2 0.14310858E+00 0.27433302E+04</pdfrwt>
<pdfrwt beam="2">  1       -2 0.31117437E+00 0.27433302E+04</pdfrwt>
<totfact> 0.66392806E-01</totfact>
</mgrwt>
</event>
<event>
 4    1  0.2069825E-008  0.2271946E+04  0.7816531E-02  0.8489065E-01
         -2   -1    0    0    0  501 -0.00000000000E+00  0.00000000000E+00  0.44036297800E+03  0.44036297800E+03  0.00000000000E+00 0. -1.
          2   -1    0    0  501    0  0.00000000000E+00 -0.00000000000E+00 -0.29303889948E+04  0.29303889948E+04  0.00000000000E+00 0.  1.
    2000013    1    1    2    0    0  0.37399038401E+03  0.42244023272E+03 -0.16364531986E+04  0.19745388395E+04  0.95000000000E+03 0.  0.
   -2000013    1    1    2    0    0 -0.37399038401E+03 -0.42244023272E+03 -0.85357281815E+03  0.13962131332E+04  0.95000000000E+03 0.  0.
<mgrwt>
<rscale>  0 0.22719461E+04</rscale>
<asrwt>0</asrwt>
<pdfrwt beam="2">  1        2 0.45082908E+00 0.22719461E+04</pdfrwt>
<pdfrwt beam="1">  1       -2 0.67748149E-01 0.22719461E+04</pdfrwt>
<totfact> 0.34926945E+00</totfact>
</mgrwt>
</event>
<event>
 4    1  0.2069825E-008  0.3332826E+04  0.7816531E-02  0.8154593E-01
          2   -1    0    0  501    0  0.00000000000E+00  0.00000000000E+00  0.15841349543E+04  0.15841349543E+04  0.00000000000E+00 0. -1.
         -2   -1    0    0    0  501 -0.00000000000E+00 -0.00000000000E+00 -0.17529640456E+04  0.17529640456E+04  0.00000000000E+00 0.  1.
    2000013    1    1    2    0    0  0.49765670654E+03 -0.12223621991E+04 -0.44902438743E+03  0.16869956858E+04  0.95000000000E+03 0.  0.
   -2000013    1    1    2    0    0 -0.49765670654E+03  0.12223621991E+04  0.28019529618E+03  0.16501033141E+04  0.95000000000E+03 0.  0.
<mgrwt>
<rscale>  0 0.33328256E+04</rscale>
<asrwt>0</asrwt>
<pdfrwt beam="1">  1        2 0.24371307E+00 0.33328256E+04</pdfrwt>
<pdfrwt beam="2">  1       -2 0.26968678E+00 0.33328256E+04</pdfrwt>
<totfact> 0.46156174E-01</totfact>
</mgrwt>
</event>
<event>
 4    1  0.2069825E-008  0.2594630E+04  0.7816531E-02  0.8370028E-01
         -1   -1    0    0    0  501 -0.00000000000E+00  0.00000000000E+00  0.13410392732E+04  0.13410392732E+04  0.00000000000E+00 0. -1.
          1   -1    0    0  501    0  0.00000000000E+00 -0.00000000000E+00 -0.12550163784E+04  0.12550163784E+04  0.00000000000E+00 0.  1.
    2000013    1    1    2    0    0 -0.65268835564E+03 -0.57528907832E+03 -0.11058719577E+03  0.12929381815E+04  0.95000000000E+03 0.  0.
   -2000013    1    1    2    0    0  0.65268835564E+03  0.57528907832E+03  0.19661009060E+03  0.13031174701E+04  0.95000000000E+03 0.  0.
<mgrwt>
<rscale>  0 0.25946300E+04</rscale>
<asrwt>0</asrwt>
<pdfrwt beam="2">  1        1 0.19307944E+00 0.25946300E+04</pdfrwt>
<pdfrwt beam="1">  1       -1 0.20631373E+00 0.25946300E+04</pdfrwt>
<totfact> 0.11696282E+00</totfact>
</mgrwt>
</event>
<event>
 4    1  0.2069825E-008  0.2107104E+04  0.7816531E-02  0.8558120E-01
          2   -1    0    0  501    0  0.00000000000E+00  0.00000000000E+00  0.30674249324E+04  0.30674249324E+04  0.00000000000E+00 0.  1.
         -2   -1    0    0    0  501 -0.00000000000E+00 -0.00000000000E+00 -0.36185794912E+03  0.36185794912E+03  0.00000000000E+00 0. -1.
    2000013    1    1    2    0    0 -0.16395779345E+03  0.30460363108E+03  0.87052400497E+03  0.13341580016E+04  0.95000000000E+03 0.  0.
   -2000013    1    1    2    0    0  0.16395779345E+03 -0.30460363108E+03  0.18350429783E+04  0.20951248799E+04  0.95000000000E+03 0.  0.
<mgrwt>
<rscale>  0 0.21071043E+04</rscale>
<asrwt>0</asrwt>
<pdfrwt beam="1">  1        2 0.47191151E+00 0.21071043E+04</pdfrwt>
<pdfrwt beam="2">  1       -2 0.55670456E-01 0.21071043E+04</pdfrwt>
<totfact> 0.44163656E+00</totfact>
</mgrwt>
</event>
<event>
 4    1  0.2069825E-008  0.1973540E+04  0.7816531E-02  0.8619093E-01
         -2   -1    0    0    0  501 -0.00000000000E+00  0.00000000000E+00  0.91539686155E+03  0.91539686155E+03  0.00000000000E+00 0. -1.
          2   -1    0    0  501    0  0.00000000000E+00 -0.00000000000E+00 -0.10637078176E+04  0.10637078176E+04  0.00000000000E+00 0.  1.
    2000013    1    1    2    0    0  0.19305382425E+03  0.98820231536E+02  0.81780836811E+02  0.97786672021E+03  0.95000000000E+03 0.  0.
   -2000013    1    1    2    0    0 -0.19305382425E+03 -0.98820231536E+02 -0.23009179281E+03  0.10012379589E+04  0.95000000000E+03 0.  0.
<mgrwt>
<rscale>  0 0.19735398E+04</rscale>
<asrwt>0</asrwt>
<pdfrwt beam="2">  1        2 0.16364736E+00 0.19735398E+04</pdfrwt>
<pdfrwt beam="1">  1       -2 0.14083029E+00 0.19735398E+04</pdfrwt>
<totfact> 0.75567899E+00</totfact>
</mgrwt>
</event>
<event>
 4    1  0.2069825E-008  0.3256845E+04  0.7816531E-02  0.8173964E-01
          2   -1    0    0  501    0  0.00000000000E+00  0.00000000000E+00  0.26839274264E+04  0.26839274264E+04  0.00000000000E+00 0.  1.
         -2   -1    0    0    0  501 -0.00000000000E+00 -0.00000000000E+00 -0.98801464140E+03  0.98801464140E+03  0.00000000000E+00 0. -1.
    2000013    1    1    2    0    0  0.42305597462E+03 -0.12461550511E+04  0.69931699364E+03  0.17673208613E+04  0.95000000000E+03 0.  0.
   -2000013    1    1    2    0    0 -0.42305597462E+03  0.12461550511E+04  0.99659579137E+03  0.19046212065E+04  0.95000000000E+03 0.  0.
<mgrwt>
<rscale>  0 0.32568448E+04</rscale>
<asrwt>0</asrwt>
<pdfrwt beam="1">  1        2 0.41291191E+00 0.32568448E+04</pdfrwt>
<pdfrwt beam="2">  1       -2 0.15200225E+00 0.32568448E+04</pdfrwt>
<totfact> 0.65786554E-01</totfact>
</mgrwt>
</event>
<event>
 4    1  0.2069825E-008  0.2896276E+04  0.7816531E-02  0.8273986E-01
          2   -1    0    0  501    0  0.00000000000E+00  0.00000000000E+00  0.20072725509E+04  0.20072725509E+04  0.00000000000E+00 0.  1.
         -2   -1    0    0    0  501 -0.00000000000E+00 -0.00000000000E+00 -0.10447525917E+04  0.10447525917E+04  0.00000000000E+00 0. -1.
    2000013    1    1    2    0    0 -0.96943511598E+03  0.17401844946E+03  0.98057218464E+03  0.16834811178E+04  0.95000000000E+03 0.  0.
   -2000013    1    1    2    0    0  0.96943511598E+03 -0.17401844946E+03 -0.18052225401E+02  0.13685440248E+04  0.95000000000E+03 0.  0.
<mgrwt>
<rscale>  0 0.28962757E+04</rscale>
<asrwt>0</asrwt>
<pdfrwt beam="1">  1        2 0.30881116E+00 0.28962757E+04</pdfrwt>
<pdfrwt beam="2">  1       -2 0.16073117E+00 0.28962757E+04</pdfrwt>
<totfact> 0.14217649E+00</totfact>
</mgrwt>
</event>
<event>
 4    1  0.2069825E-008  0.3992602E+04  0.7816531E-02  0.8006041E-01
          1   -1    0    0  501    0  0.00000000000E+00  0.00000000000E+00  0.19600101790E+04  0.19600101790E+04  0.00000000000E+00 0.  1.
         -1   -1    0    0    0  501 -0.00000000000E+00 -0.00000000000E+00 -0.20332642691E+04  0.20332642691E+04  0.00000000000E+00 0. -1.
    2000013    1    1    2    0    0  0.87109701687E+03  0.13155062247E+04 -0.80705015188E+03  0.20107701479E+04  0.95000000000E+03 0.  0.
   -2000013    1    1    2    0    0 -0.87109701687E+03 -0.13155062247E+04  0.73379606175E+03  0.19825043002E+04  0.95000000000E+03 0.  0.
<mgrwt>
<rscale>  0 0.39926025E+04</rscale>
<asrwt>0</asrwt>
<pdfrwt beam="1">  1        1 0.30154003E+00 0.39926025E+04</pdfrwt>
<pdfrwt beam="2">  1       -1 0.31280988E+00 0.39926025E+04</pdfrwt>
<totfact> 0.67724015E-02</totfact>
</mgrwt>
</event>
<event>
 4    1  0.2069825E-008  0.2734262E+04  0.7816531E-02  0.8323973E-01
         -2   -1    0    0    0  501 -0.00000000000E+00  0.00000000000E+00  0.10425238034E+04  0.10425238034E+04  0.00000000000E+00 0. -1.
          2   -1    0    0  501    0  0.00000000000E+00 -0.00000000000E+00 -0.17928102251E+04  0.17928102251E+04  0.00000000000E+00 0.  1.
    2000013    1    1    2    0    0  0.62297189935E+03  0.73481299382E+03 -0.57861891556E+03  0.14715107790E+04  0.95000000000E+03 0.  0.
   -2000013    1    1    2    0    0 -0.62297189935E+03 -0.73481299382E+03 -0.17166750614E+03  0.13638232495E+04  0.95000000000E+03 0.  0.
<mgrwt>
<rscale>  0 0.27342621E+04</rscale>
<asrwt>0</asrwt>
<pdfrwt beam="2">  1        2 0.27581695E+00 0.27342621E+04</pdfrwt>
<pdfrwt beam="1">  1       -2 0.16038828E+00 0.27342621E+04</pdfrwt>
<totfact> 0.19066935E+00</totfact>
</mgrwt>
</event>
<event>
 4    1  0.2069825E-008  0.2487101E+04  0.7816531E-02  0.8407595E-01
          2   -1    0    0  501    0  0.00000000000E+00  0.00000000000E+00  0.93856608332E+03  0.93856608332E+03  0.00000000000E+00 0.  1.
         -2   -1    0    0    0  501 -0.00000000000E+00 -0.00000000000E+00 -0.16476393555E+04  0.16476393555E+04  0.00000000000E+00 0. -1.
    2000013    1    1    2    0    0 -0.67758740027E+03  0.42885376049E+03 -0.38535163845E+03  0.13015514274E+04  0.95000000000E+03 0.  0.
   -2000013    1    1    2    0    0  0.67758740027E+03 -0.42885376049E+03 -0.32372163370E+03  0.12846540114E+04  0.95000000000E+03 0.  0.
<mgrwt>
<rscale>  0 0.24871015E+04</rscale>
<asrwt>0</asrwt>
<pdfrwt beam="1">  1        2 0.14439478E+00 0.24871015E+04</pdfrwt>
<pdfrwt beam="2">  1       -2 0.25348298E+00 0.24871015E+04</pdfrwt>
<totfact> 0.15086319E+00</totfact>
</mgrwt>
</event>
<event>
 4    1  0.2069825E-008  0.2281898E+04  0.7816531E-02  0.8485093E-01
         -2   -1    0    0    0  501 -0.00000000000E+00  0.00000000000E+00  0.64768966097E+03  0.64768966097E+03  0.00000000000E+00 0. -1.
          2   -1    0    0  501    0  0.00000000000E+00 -0.00000000000E+00 -0.20098577329E+04  0.20098577329E+04  0.00000000000E+00 0.  1.
    2000013    1    1    2    0    0 -0.31602548357E+03  0.54677811196E+03 -0.70511206577E+03  0.13410896448E+04  0.95000000000E+03 0.  0.
   -2000013    1    1    2    0    0  0.31602548357E+03 -0.54677811196E+03 -0.65705600617E+03  0.13164577491E+04  0.95000000000E+03 0.  0.
<mgrwt>
<rscale>  0 0.22818975E+04</rscale>
<asrwt>0</asrwt>
<pdfrwt beam="2">  1        2 0.30920888E+00 0.22818975E+04</pdfrwt>
<pdfrwt beam="1">  1       -2 0.99644564E-01 0.22818975E+04</pdfrwt>
<totfact> 0.49894332E+00</totfact>
</mgrwt>
</event>
<event>
 4    1  0.2069825E-008  0.2563551E+04  0.7816531E-02  0.8380689E-01
          2   -1    0    0  501    0  0.00000000000E+00  0.00000000000E+00  0.30468245966E+04  0.30468245966E+04  0.00000000000E+00 0.  1.
         -2   -1    0    0    0  501 -0.00000000000E+00 -0.00000000000E+00 -0.53923294507E+03  0.53923294507E+03  0.00000000000E+00 0. -1.
    2000013    1    1    2    0    0 -0.61811923557E+03  0.46054027555E+03  0.17888121155E+04  0.21671450158E+04  0.95000000000E+03 0.  0.
   -2000013    1    1    2    0    0  0.61811923557E+03 -0.46054027555E+03  0.71877953603E+03  0.14189125259E+04  0.95000000000E+03 0.  0.
<mgrwt>
<rscale>  0 0.25635508E+04</rscale>
<asrwt>0</asrwt>
<pdfrwt beam="1">  1        2 0.46874224E+00 0.25635508E+04</pdfrwt>
<pdfrwt beam="2">  1       -2 0.82958916E-01 0.25635508E+04</pdfrwt>
<totfact> 0.18379758E+00</totfact>
</mgrwt>
</event>
<event>
 4    1  0.2069825E-008  0.2174459E+04  0.7816531E-02  0.8529135E-01
         -2   -1    0    0    0  501 -0.00000000000E+00  0.00000000000E+00  0.47826022576E+03  0.47826022576E+03  0.00000000000E+00 0. -1.
          2   -1    0    0  501    0  0.00000000000E+00 -0.00000000000E+00 -0.24715998052E+04  0.24715998052E+04  0.00000000000E+00 0.  1.
    2000013    1    1    2    0    0  0.37497687951E+03 -0.36291468229E+03 -0.11122048126E+04  0.15530016973E+04  0.95000000000E+03 0.  0.
   -2000013    1    1    2    0    0 -0.37497687951E+03  0.36291468229E+03 -0.88113476680E+03  0.13968583336E+04  0.95000000000E+03 0.  0.
<mgrwt>
<rscale>  0 0.21744589E+04</rscale>
<asrwt>0</asrwt>
<pdfrwt beam="2">  1        2 0.38024612E+00 0.21744589E+04</pdfrwt>
<pdfrwt beam="1">  1       -2 0.73578497E-01 0.21744589E+04</pdfrwt>
<totfact> 0.55175799E+00</totfact>
</mgrwt>
</event>
<event>
 4    1  0.2069825E-008  0.2159748E+04  0.7816531E-02  0.8535371E-01
         -2   -1    0    0    0  501 -0.00000000000E+00  0.00000000000E+00  0.62738678572E+03  0.62738678572E+03  0.00000000000E+00 0. -1.
          2   -1    0    0  501    0  0.00000000000E+00 -0.00000000000E+00 -0.18587063099E+04  0.18587063099E+04  0.00000000000E+00 0.  1.
    2000013    1    1    2    0    0 -0.48540198044E+03  0.15738518088E+03 -0.68120799398E+03  0.12755114695E+04  0.95000000000E+03 0.  0.
   -2000013    1    1    2    0    0  0.48540198044E+03 -0.15738518088E+03 -0.55011153015E+03  0.12105816261E+04  0.95000000000E+03 0.  0.
<mgrwt>
<rscale>  0 0.21597479E+04</rscale>
<asrwt>0</asrwt>
<pdfrwt beam="2">  1        2 0.28595481E+00 0.21597479E+04</pdfrwt>
<pdfrwt beam="1">  1       -2 0.96521047E-01 0.21597479E+04</pdfrwt>
<totfact> 0.65917589E+00</totfact>
</mgrwt>
</event>
<event>
 4    1  0.2069825E-008  0.2138319E+04  0.7816531E-02  0.8544549E-01
          1   -1    0    0  501    0  0.00000000000E+00  0.00000000000E+00  0.12792068624E+04  0.12792068624E+04  0.00000000000E+00 0. -1.
         -1   -1    0    0    0  501 -0.00000000000E+00 -0.00000000000E+00 -0.89360202285E+03  0.89360202285E+03  0.00000000000E+00 0.  1.
    2000013    1    1    2    0    0 -0.19287358813E+02 -0.36230088116E+03 -0.14262485986E+03  0.10268767119E+04  0.95000000000E+03 0.  0.
   -2000013    1    1    2    0    0  0.19287358813E+02  0.36230088116E+03  0.52822969941E+03  0.11459321734E+04  0.95000000000E+03 0.  0.
<mgrwt>
<rscale>  0 0.21383188E+04</rscale>
<asrwt>0</asrwt>
<pdfrwt beam="1">  1        1 0.19680106E+00 0.21383188E+04</pdfrwt>
<pdfrwt beam="2">  1       -1 0.13747723E+00 0.21383188E+04</pdfrwt>
<totfact> 0.37719179E+00</totfact>
</mgrwt>
</event>
<event>
 4    1  0.2069825E-008  0.2214995E+04  0.7816531E-02  0.8512213E-01
         -2   -1    0    0    0  501 -0.00000000000E+00  0.00000000000E+00  0.68111333014E+03  0.68111333014E+03  0.00000000000E+00 0. -1.
          2   -1    0    0  501    0  0.00000000000E+00 -0.00000000000E+00 -0.18008024013E+04  0.18008024013E+04  0.00000000000E+00 0.  1.
    2000013    1    1    2    0    0  0.35369408893E+03 -0.44603055749E+03 -0.55672443171E+03  0.12395502651E+04  0.95000000000E+03 0.  0.
   -2000013    1    1    2    0    0 -0.35369408893E+03  0.44603055749E+03 -0.56296463946E+03  0.12423654664E+04  0.95000000000E+03 0.  0.
<mgrwt>
<rscale>  0 0.22149948E+04</rscale>
<asrwt>0</asrwt>
<pdfrwt beam="2">  1        2 0.27704652E+00 0.22149948E+04</pdfrwt>
<pdfrwt beam="1">  1       -2 0.10478667E+00 0.22149948E+04</pdfrwt>
<totfact> 0.58130407E+00</totfact>
</mgrwt>
</event>
<event>
 4    1  0.2069825E-008  0.2341192E+04  0.7816531E-02  0.8461855E-01
          1   -1    0    0  501    0  0.00000000000E+00  0.00000000000E+00  0.21340759571E+04  0.21340759571E+04  0.00000000000E+00 0.  1.
         -1   -1    0    0    0  501 -0.00000000000E+00 -0.00000000000E+00 -0.64210213212E+03  0.64210213212E+03  0.00000000000E+00 0. -1.
    2000013    1    1    2    0    0 -0.62043159465E+03  0.55865235026E+02  0.41114162955E+03  0.12081364690E+04  0.95000000000E+03 0.  0.
   -2000013    1    1    2    0    0  0.62043159465E+03 -0.55865235026E+02  0.10808321954E+04  0.15680416202E+04  0.95000000000E+03 0.  0.
<mgrwt>
<rscale>  0 0.23411918E+04</rscale>
<asrwt>0</asrwt>
<pdfrwt beam="1">  1        1 0.32831938E+00 0.23411918E+04</pdfrwt>
<pdfrwt beam="2">  1       -1 0.98784944E-01 0.23411918E+04</pdfrwt>
<totfact> 0.21322878E+00</totfact>
</mgrwt>
</event>
<event>
 4    1  0.2069825E-008  0.2084198E+04  0.7816531E-02  0.8568236E-01
         -2   -1    0    0    0  501 -0.00000000000E+00  0.00000000000E+00  0.10124500044E+04  0.10124500044E+04  0.00000000000E+00 0. -1.
          2   -1    0    0  501    0  0.00000000000E+00 -0.00000000000E+00 -0.10726164750E+04  0.10726164750E+04  0.00000000000E+00 0.  1.
    2000013    1    1    2    0    0 -0.21718022702E+02 -0.42617880523E+03  0.69525641260E+01  0.10414645384E+04  0.95000000000E+03 0.  0.
   -2000013    1    1    2    0    0  0.21718022702E+02  0.42617880523E+03 -0.67119034703E+02  0.10436019410E+04  0.95000000000E+03 0.  0.
<mgrwt>
<rscale>  0 0.20841982E+04</rscale>
<asrwt>0</asrwt>
<pdfrwt beam="2">  1        2 0.16501792E+00 0.20841982E+04</pdfrwt>
<pdfrwt beam="1">  1       -2 0.15576154E+00 0.20841982E+04</pdfrwt>
<totfact> 0.56635422E+00</totfact>
</mgrwt>
</event>
<event>
 4    1  0.2069825E-008  0.2689492E+04  0.7816531E-02  0.8338423E-01
         -2   -1    0    0    0  501 -0.00000000000E+00  0.00000000000E+00  0.12388140996E+04  0.12388140996E+04  0.00000000000E+00 0. -1.
          2   -1    0    0  501    0  0.00000000000E+00 -0.00000000000E+00 -0.14597361658E+04  0.14597361658E+04  0.00000000000E+00 0.  1.
    2000013    1    1    2    0    0 -0.74133801685E+03 -0.53040980810E+03  0.16418542233E+03  0.13267906665E+04  0.95000000000E+03 0.  0.
   -2000013    1    1    2    0    0  0.74133801685E+03  0.53040980810E+03 -0.38510748853E+03  0.13717595990E+04  0.95000000000E+03 0.  0.
<mgrwt>
<rscale>  0 0.26894920E+04</rscale>
<asrwt>0</asrwt>
<pdfrwt beam="2">  1        2 0.22457479E+00 0.26894920E+04</pdfrwt>
<pdfrwt beam="1">  1       -2 0.19058679E+00 0.26894920E+04</pdfrwt>
<totfact> 0.18045729E+00</totfact>
</mgrwt>
</event>
<event>
 4    1  0.2069825E-008  0.3966705E+04  0.7816531E-02  0.8011297E-01
         -2   -1    0    0    0  501 -0.00000000000E+00  0.00000000000E+00  0.12591976139E+04  0.12591976139E+04  0.00000000000E+00 0. -1.
          2   -1    0    0  501    0  0.00000000000E+00 -0.00000000000E+00 -0.31239639766E+04  0.31239639766E+04  0.00000000000E+00 0.  1.
    2000013    1    1    2    0    0  0.72919730854E+03  0.15808242743E+04 -0.90884189977E+03  0.21815654242E+04  0.95000000000E+03 0.  0.
   -2000013    1    1    2    0    0 -0.72919730854E+03 -0.15808242743E+04 -0.95592446286E+03  0.22015961664E+04  0.95000000000E+03 0.  0.
<mgrwt>
<rscale>  0 0.39667054E+04</rscale>
<asrwt>0</asrwt>
<pdfrwt beam="2">  1        2 0.48060984E+00 0.39667054E+04</pdfrwt>
<pdfrwt beam="1">  1       -2 0.19372271E+00 0.39667054E+04</pdfrwt>
<totfact> 0.16801603E-01</totfact>
</mgrwt>
</event>
<event>
 4    1  0.2069825E-008  0.2312240E+04  0.7816531E-02  0.8473111E-01
         -1   -1    0    0    0  501 -0.00000000000E+00  0.00000000000E+00  0.66958207535E+03  0.66958207535E+03  0.00000000000E+00 0.  1.
          1   -1    0    0  501    0  0.00000000000E+00 -0.00000000000E+00 -0.19961899874E+04  0.19961899874E+04  0.00000000000E+00 0. -1.
    2000013    1    1    2    0    0 -0.43832524216E+03  0.49076829668E+03 -0.62454031085E+03  0.13135955005E+04  0.95000000000E+03 0.  0.
   -2000013    1    1    2    0    0  0.43832524216E+03 -0.49076829668E+03 -0.70206760119E+03  0.13521765623E+04  0.95000000000E+03 0.  0.
<mgrwt>
<rscale>  0 0.23122396E+04</rscale>
<asrwt>0</asrwt>
<pdfrwt beam="2">  1        1 0.30710614E+00 0.23122396E+04</pdfrwt>
<pdfrwt beam="1">  1       -1 0.10301263E+00 0.23122396E+04</pdfrwt>
<totfact> 0.24087392E+00</totfact>
</mgrwt>
</event>
<event>
 4    1  0.2069825E-008  0.3191440E+04  0.7816531E-02  0.8191081E-01
          2   -1    0    0  501    0  0.00000000000E+00  0.00000000000E+00  0.12635229320E+04  0.12635229320E+04  0.00000000000E+00 0.  1.
         -2   -1    0    0    0  501 -0.00000000000E+00 -0.00000000000E+00 -0.20152563923E+04  0.20152563923E+04  0.00000000000E+00 0. -1.
    2000013    1    1    2    0    0 -0.44678871475E+03 -0.11955739578E+04 -0.25085929010E+03  0.16107289119E+04  0.95000000000E+03 0.  0.
   -2000013    1    1    2    0    0  0.44678871475E+03  0.11955739578E+04 -0.50087417025E+03  0.16680504125E+04  0.95000000000E+03 0.  0.
<mgrwt>
<rscale>  0 0.31914402E+04</rscale>
<asrwt>0</asrwt>
<pdfrwt beam="1">  1        2 0.19438815E+00 0.31914402E+04</pdfrwt>
<pdfrwt beam="2">  1       -2 0.31003944E+00 0.31914402E+04</pdfrwt>
<totfact> 0.40352649E-01</totfact>
</mgrwt>
</event>
<event>
 4    1  0.2069825E-008  0.3057676E+04  0.7816531E-02  0.8227450E-01
          2   -1    0    0  501    0  0.00000000000E+00  0.00000000000E+00  0.32080304574E+04  0.32080304574E+04  0.00000000000E+00 0.  1.
         -2   -1    0    0    0  501 -0.00000000000E+00 -0.00000000000E+00 -0.72859224492E+03  0.72859224492E+03  0.00000000000E+00 0. -1.
    2000013    1    1    2    0    0 -0.11892519732E+04 -0.16673884116E+02  0.14229174814E+04  0.20836968189E+04  0.95000000000E+03 0.  0.
   -2000013    1    1    2    0    0  0.11892519732E+04  0.16673884116E+02  0.10565207311E+04  0.18529258834E+04  0.95000000000E+03 0.  0.
<mgrwt>
<rscale>  0 0.30576763E+04</rscale>
<asrwt>0</asrwt>
<pdfrwt beam="1">  1        2 0.49354314E+00 0.30576763E+04</pdfrwt>
<pdfrwt beam="2">  1       -2 0.11209112E+00 0.30576763E+04</pdfrwt>
<totfact> 0.68455621E-01</totfact>
</mgrwt>
</event>
<event>
 4    1  0.2069825E-008  0.2530235E+04  0.7816531E-02  0.8392293E-01
          2   -1    0    0  501    0  0.00000000000E+00  0.00000000000E+00  0.23090151081E+04  0.23090151081E+04  0.00000000000E+00 0.  1.
         -2   -1    0    0    0  501 -0.00000000000E+00 -0.00000000000E+00 -0.69316210080E+03  0.69316210080E+03  0.00000000000E+00 0. -1.
    2000013    1    1    2    0    0 -0.65014437275E+03  0.44093146014E+02  0.18753372903E+03  0.11671764265E+04  0.95000000000E+03 0.  0.
   -2000013    1    1    2    0    0  0.65014437275E+03 -0.44093146014E+02  0.14283192783E+04  0.18350007825E+04  0.95000000000E+03 0.  0.
<mgrwt>
<rscale>  0 0.25302346E+04</rscale>
<asrwt>0</asrwt>
<pdfrwt beam="1">  1        2 0.35523309E+00 0.25302346E+04</pdfrwt>
<pdfrwt beam="2">  1       -2 0.10664032E+00 0.25302346E+04</pdfrwt>
<totfact> 0.28223808E+00</totfact>
</mgrwt>
</event>
<event>
 4    1  0.2069825E-008  0.2753240E+04  0.7816531E-02  0.8317934E-01
          2   -1    0    0  501    0  0.00000000000E+00  0.00000000000E+00  0.12402650457E+04  0.12402650457E+04  0.00000000000E+00 0.  1.
         -2   -1    0    0    0  501 -0.00000000000E+00 -0.00000000000E+00 -0.15279661264E+04  0.15279661264E+04  0.00000000000E+00 0. -1.
    2000013    1    1    2    0    0  0.73419532447E+03  0.22384469281E+03 -0.78247325402E+03  0.14504873713E+04  0.95000000000E+03 0.  0.
   -2000013    1    1    2    0    0 -0.73419532447E+03 -0.22384469281E+03  0.49477217336E+03  0.13177438008E+04  0.95000000000E+03 0.  0.
<mgrwt>
<rscale>  0 0.27532403E+04</rscale>
<asrwt>0</asrwt>
<pdfrwt beam="1">  1        2 0.19081001E+00 0.27532403E+04</pdfrwt>
<pdfrwt beam="2">  1       -2 0.23507171E+00 0.27532403E+04</pdfrwt>
<totfact> 0.12444262E+00</totfact>
</mgrwt>
</event>
<event>
 4    1  0.2069825E-008  0.2945623E+04  0.7816531E-02  0.8259431E-01
         -2   -1    0    0    0  501 -0.00000000000E+00  0.00000000000E+00  0.67955363363E+03  0.67955363363E+03  0.00000000000E+00 0. -1.
          2   -1    0    0  501    0  0.00000000000E+00 -0.00000000000E+00 -0.31920556204E+04  0.31920556204E+04  0.00000000000E+00 0.  1.
    2000013    1    1    2    0    0 -0.10272784125E+04  0.45831909576E+03 -0.13039256008E+04  0.19667433241E+04  0.95000000000E+03 0.  0.
   -2000013    1    1    2    0    0  0.10272784125E+04 -0.45831909576E+03 -0.12085763860E+04  0.19048659300E+04  0.95000000000E+03 0.  0.
<mgrwt>
<rscale>  0 0.29456225E+04</rscale>
<asrwt>0</asrwt>
<pdfrwt beam="2">  1        2 0.49108549E+00 0.29456225E+04</pdfrwt>
<pdfrwt beam="1">  1       -2 0.10454671E+00 0.29456225E+04</pdfrwt>
<totfact> 0.83759985E-01</totfact>
</mgrwt>
</event>
<event>
 4    1  0.2069825E-008  0.3294841E+04  0.7816531E-02  0.8164209E-01
         -2   -1    0    0    0  501 -0.00000000000E+00  0.00000000000E+00  0.98069130888E+03  0.98069130888E+03  0.00000000000E+00 0. -1.
          2   -1    0    0  501    0  0.00000000000E+00 -0.00000000000E+00 -0.27674301856E+04  0.27674301856E+04  0.00000000000E+00 0.  1.
    2000013    1    1    2    0    0  0.70418920205E+03 -0.17876607485E+03  0.39548336589E+03  0.12596613968E+04  0.95000000000E+03 0.  0.
   -2000013    1    1    2    0    0 -0.70418920205E+03  0.17876607485E+03 -0.21822222426E+04  0.24884600977E+04  0.95000000000E+03 0.  0.
<mgrwt>
<rscale>  0 0.32948413E+04</rscale>
<asrwt>0</asrwt>
<pdfrwt beam="2">  1        2 0.42575849E+00 0.32948413E+04</pdfrwt>
<pdfrwt beam="1">  1       -2 0.15087559E+00 0.32948413E+04</pdfrwt>
<totfact> 0.59618161E-01</totfact>
</mgrwt>
</event>
<event>
 4    1  0.2069825E-008  0.3285366E+04  0.7816531E-02  0.8166629E-01
          2   -1    0    0  501    0  0.00000000000E+00  0.00000000000E+00  0.22377471587E+04  0.22377471587E+04  0.00000000000E+00 0.  1.
         -2   -1    0    0    0  501 -0.00000000000E+00 -0.00000000000E+00 -0.12058591448E+04  0.12058591448E+04  0.00000000000E+00 0. -1.
    2000013    1    1    2    0    0  0.10168705911E+04 -0.59907751701E+03 -0.14944537769E+03  0.15224170228E+04  0.95000000000E+03 0.  0.
   -2000013    1    1    2    0    0 -0.10168705911E+04  0.59907751701E+03  0.11813333916E+04  0.19211892808E+04  0.95000000000E+03 0.  0.
<mgrwt>
<rscale>  0 0.32853663E+04</rscale>
<asrwt>0</asrwt>
<pdfrwt beam="1">  1        2 0.34426879E+00 0.32853663E+04</pdfrwt>
<pdfrwt beam="2">  1       -2 0.18551679E+00 0.32853663E+04</pdfrwt>
<totfact> 0.68332965E-01</totfact>
</mgrwt>
</event>
<event>
 4    1  0.2069825E-008  0.3580190E+04  0.7816531E-02  0.8095045E-01
         -2   -1    0    0    0  501 -0.00000000000E+00  0.00000000000E+00  0.12895556260E+04  0.12895556260E+04  0.00000000000E+00 0. -1.
          2   -1    0    0  501    0  0.00000000000E+00 -0.00000000000E+00 -0.24849179361E+04  0.24849179361E+04  0.00000000000E+00 0.  1.
    2000013    1    1    2    0    0 -0.68584474443E+03 -0.12876063669E+04 -0.10369785479E+04  0.20263606980E+04  0.95000000000E+03 0.  0.
   -2000013    1    1    2    0    0  0.68584474443E+03  0.12876063669E+04 -0.15838376223E+03  0.17481128641E+04  0.95000000000E+03 0.  0.
<mgrwt>
<rscale>  0 0.35801899E+04</rscale>
<asrwt>0</asrwt>
<pdfrwt beam="2">  1        2 0.38229506E+00 0.35801899E+04</pdfrwt>
<pdfrwt beam="1">  1       -2 0.19839318E+00 0.35801899E+04</pdfrwt>
<totfact> 0.39512342E-01</totfact>
</mgrwt>
</event>
<event>
 4    1  0.2069825E-008  0.2425530E+04  0.7816531E-02  0.8430007E-01
         -1   -1    0    0    0  501 -0.00000000000E+00  0.00000000000E+00  0.85450725129E+03  0.85450725129E+03  0.00000000000E+00 0. -1.
          1   -1    0    0  501    0  0.00000000000E+00 -0.00000000000E+00 -0.17212244473E+04  0.17212244473E+04  0.00000000000E+00 0.  1.
    2000013    1    1    2    0    0  0.21685901531E+03 -0.72147597968E+03 -0.46231139657E+03  0.12976082803E+04  0.95000000000E+03 0.  0.
   -2000013    1    1    2    0    0 -0.21685901531E+03  0.72147597968E+03 -0.40440579948E+03  0.12781234183E+04  0.95000000000E+03 0.  0.
<mgrwt>
<rscale>  0 0.24255299E+04</rscale>
<asrwt>0</asrwt>
<pdfrwt beam="2">  1        1 0.26480376E+00 0.24255299E+04</pdfrwt>
<pdfrwt beam="1">  1       -1 0.13146265E+00 0.24255299E+04</pdfrwt>
<totfact> 0.20317367E+00</totfact>
</mgrwt>
</event>
<event>
 4    1  0.2069825E-008  0.2442046E+04  0.7816531E-02  0.8423928E-01
          1   -1    0    0  501    0  0.00000000000E+00  0.00000000000E+00  0.12066955934E+04  0.12066955934E+04  0.00000000000E+00 0.  1.
         -1   -1    0    0    0  501 -0.00000000000E+00 -0.00000000000E+00 -0.12355201730E+04  0.12355201730E+04  0.00000000000E+00 0. -1.
    2000013    1    1    2    0    0  0.49122742494E+03 -0.51560209657E+03 -0.29947046409E+03  0.12244723206E+04  0.95000000000E+03 0.  0.
   -2000013    1    1    2    0    0 -0.49122742494E+03  0.51560209657E+03  0.27064588447E+03  0.12177434458E+04  0.95000000000E+03 0.  0.
<mgrwt>
<rscale>  0 0.24420457E+04</rscale>
<asrwt>0</asrwt>
<pdfrwt beam="1">  1        1 0.18564548E+00 0.24420457E+04</pdfrwt>
<pdfrwt beam="2">  1       -1 0.19008003E+00 0.24420457E+04</pdfrwt>
<totfact> 0.16648649E+00</totfact>
</mgrwt>
</event>
<event>
 4    1  0.2069825E-008  0.3368476E+04  0.7816531E-02  0.8145687E-01
          2   -1    0    0  501    0  0.00000000000E+00  0.00000000000E+00  0.26406055109E+04  0.26406055109E+04  0.00000000000E+00 0. -1.
         -2   -1    0    0    0  501 -0.00000000000E+00 -0.00000000000E+00 -0.10742451946E+04  0.10742451946E+04  0.00000000000E+00 0.  1.
    2000013    1    1    2    0    0 -0.22921173958E+03 -0.11595420858E+04  0.15913974897E+04  0.21982087800E+04  0.95000000000E+03 0.  0.
   -2000013    1    1    2    0    0  0.22921173958E+03  0.11595420858E+04 -0.25037173408E+02  0.15166419255E+04  0.95000000000E+03 0.  0.
<mgrwt>
<rscale>  0 0.33684761E+04</rscale>
<asrwt>0</asrwt>
<pdfrwt beam="1">  1        2 0.40624700E+00 0.33684761E+04</pdfrwt>
<pdfrwt beam="2">  1       -2 0.16526849E+00 0.33684761E+04</pdfrwt>
<totfact> 0.55118117E-01</totfact>
</mgrwt>
</event>
<event>
 4    1  0.2069825E-008  0.2482175E+04  0.7816531E-02  0.8409363E-01
          1   -1    0    0  501    0  0.00000000000E+00  0.00000000000E+00  0.27905832019E+04  0.27905832019E+04  0.00000000000E+00 0.  1.
         -1   -1    0    0    0  501 -0.00000000000E+00 -0.00000000000E+00 -0.55196294228E+03  0.55196294228E+03  0.00000000000E+00 0. -1.
    2000013    1    1    2    0    0 -0.76664756925E+03  0.94537349726E+02  0.84626589327E+03  0.14884057807E+04  0.95000000000E+03 0.  0.
   -2000013    1    1    2    0    0  0.76664756925E+03 -0.94537349726E+02  0.13923543663E+04  0.18541403635E+04  0.95000000000E+03 0.  0.
<mgrwt>
<rscale>  0 0.24821753E+04</rscale>
<asrwt>0</asrwt>
<pdfrwt beam="1">  1        1 0.42932049E+00 0.24821753E+04</pdfrwt>
<pdfrwt beam="2">  1       -1 0.84917377E-01 0.24821753E+04</pdfrwt>
<totfact> 0.10330413E+00</totfact>
</mgrwt>
</event>
<event>
 4    1  0.2069825E-008  0.1998241E+04  0.7816531E-02  0.8607443E-01
          2   -1    0    0  501    0  0.00000000000E+00  0.00000000000E+00  0.91775069000E+03  0.91775069000E+03  0.00000000000E+00 0.  1.
         -2   -1    0    0    0  501 -0.00000000000E+00 -0.00000000000E+00 -0.10877052764E+04  0.10877052764E+04  0.00000000000E+00 0. -1.
    2000013    1    1    2    0    0 -0.30939510109E+03 -0.17986640136E+01 -0.81262018942E+02  0.10024131282E+04  0.95000000000E+03 0.  0.
   -2000013    1    1    2    0    0  0.30939510109E+03  0.17986640136E+01 -0.88692567416E+02  0.10030428382E+04  0.95000000000E+03 0.  0.
<mgrwt>
<rscale>  0 0.19982415E+04</rscale>
<asrwt>0</asrwt>
<pdfrwt beam="1">  1        2 0.14119241E+00 0.19982415E+04</pdfrwt>
<pdfrwt beam="2">  1       -2 0.16733927E+00 0.19982415E+04</pdfrwt>
<totfact> 0.59004605E+00</totfact>
</mgrwt>
</event>
<event>
 4    1  0.2069825E-008  0.2640344E+04  0.7816531E-02  0.8354625E-01
         -2   -1    0    0    0  501 -0.00000000000E+00  0.00000000000E+00  0.16260051870E+04  0.16260051870E+04  0.00000000000E+00 0. -1.
          2   -1    0    0  501    0  0.00000000000E+00 -0.00000000000E+00 -0.10718628870E+04  0.10718628870E+04  0.00000000000E+00 0.  1.
    2000013    1    1    2    0    0 -0.24488813674E+03  0.82648726602E+03  0.59580172401E+03  0.14144013203E+04  0.95000000000E+03 0.  0.
   -2000013    1    1    2    0    0  0.24488813674E+03 -0.82648726602E+03 -0.41659424076E+02  0.12834667538E+04  0.95000000000E+03 0.  0.
<mgrwt>
<rscale>  0 0.26403444E+04</rscale>
<asrwt>0</asrwt>
<pdfrwt beam="2">  1        2 0.16490198E+00 0.26403444E+04</pdfrwt>
<pdfrwt beam="1">  1       -2 0.25015464E+00 0.26403444E+04</pdfrwt>
<totfact> 0.12820662E+00</totfact>
</mgrwt>
</event>
<event>
 4    1  0.2069825E-008  0.3389684E+04  0.7816531E-02  0.8140443E-01
         -2   -1    0    0    0  501 -0.00000000000E+00  0.00000000000E+00  0.15359235277E+04  0.15359235277E+04  0.00000000000E+00 0. -1.
          2   -1    0    0  501    0  0.00000000000E+00 -0.00000000000E+00 -0.18702031100E+04  0.18702031100E+04  0.00000000000E+00 0.  1.
    2000013    1    1    2    0    0  0.72668065130E+03  0.11699283586E+04 -0.43899202089E+03  0.17297430814E+04  0.95000000000E+03 0.  0.
   -2000013    1    1    2    0    0 -0.72668065130E+03 -0.11699283586E+04  0.10471243856E+03  0.16763835563E+04  0.95000000000E+03 0.  0.
<mgrwt>
<rscale>  0 0.33896837E+04</rscale>
<asrwt>0</asrwt>
<pdfrwt beam="2">  1        2 0.28772355E+00 0.33896837E+04</pdfrwt>
<pdfrwt beam="1">  1       -2 0.23629593E+00 0.33896837E+04</pdfrwt>
<totfact> 0.51085940E-01</totfact>
</mgrwt>
</event>
<event>
 4    1  0.2069825E-008  0.2134819E+04  0.7816531E-02  0.8546059E-01
         -2   -1    0    0    0  501 -0.00000000000E+00  0.00000000000E+00  0.71154005143E+03  0.71154005143E+03  0.00000000000E+00 0. -1.
          2   -1    0    0  501    0  0.00000000000E+00 -0.00000000000E+00 -0.16012635350E+04  0.16012635350E+04  0.00000000000E+00 0.  1.
    2000013    1    1    2    0    0  0.30175714315E+02 -0.48207511538E+03 -0.38025653040E+03  0.11315485052E+04  0.95000000000E+03 0.  0.
   -2000013    1    1    2    0    0 -0.30175714315E+02  0.48207511538E+03 -0.50946695313E+03  0.11812550812E+04  0.95000000000E+03 0.  0.
<mgrwt>
<rscale>  0 0.21348191E+04</rscale>
<asrwt>0</asrwt>
<pdfrwt beam="2">  1        2 0.24634823E+00 0.21348191E+04</pdfrwt>
<pdfrwt beam="1">  1       -2 0.10946770E+00 0.21348191E+04</pdfrwt>
<totfact> 0.68023080E+00</totfact>
</mgrwt>
</event>
<event>
 4    1  0.2069825E-008  0.2351909E+04  0.7816531E-02  0.8457731E-01
         -2   -1    0    0    0  501 -0.00000000000E+00  0.00000000000E+00  0.14023919327E+04  0.14023919327E+04  0.00000000000E+00 0. -1.
          2   -1    0    0  501    0  0.00000000000E+00 -0.00000000000E+00 -0.98607845272E+03  0.98607845272E+03  0.00000000000E+00 0.  1.
    2000013    1    1    2    0    0  0.53803748496E+03  0.42926888886E+03  0.12557625245E+03  0.11798413068E+04  0.95000000000E+03 0.  0.
   -2000013    1    1    2    0    0 -0.53803748496E+03 -0.42926888886E+03  0.29073722756E+03  0.12086290786E+04  0.95000000000E+03 0.  0.
<mgrwt>
<rscale>  0 0.23519086E+04</rscale>
<asrwt>0</asrwt>
<pdfrwt beam="2">  1        2 0.15170438E+00 0.23519086E+04</pdfrwt>
<pdfrwt beam="1">  1       -2 0.21575261E+00 0.23519086E+04</pdfrwt>
<totfact> 0.24412188E+00</totfact>
</mgrwt>
</event>
<event>
 4    1  0.2069825E-008  0.3153229E+04  0.7816531E-02  0.8201280E-01
         -2   -1    0    0    0  501 -0.00000000000E+00  0.00000000000E+00  0.11065487181E+04  0.11065487181E+04  0.00000000000E+00 0. -1.
          2   -1    0    0  501    0  0.00000000000E+00 -0.00000000000E+00 -0.22463651991E+04  0.22463651991E+04  0.00000000000E+00 0.  1.
    2000013    1    1    2    0    0 -0.12507645038E+04  0.77038011938E+02 -0.69051895736E+03  0.17174583342E+04  0.95000000000E+03 0.  0.
   -2000013    1    1    2    0    0  0.12507645038E+04 -0.77038011938E+02 -0.44929752364E+03  0.16354555830E+04  0.95000000000E+03 0.  0.
<mgrwt>
<rscale>  0 0.31532285E+04</rscale>
<asrwt>0</asrwt>
<pdfrwt beam="2">  1        2 0.34559464E+00 0.31532285E+04</pdfrwt>
<pdfrwt beam="1">  1       -2 0.17023827E+00 0.31532285E+04</pdfrwt>
<totfact> 0.87253096E-01</totfact>
</mgrwt>
</event>
<event>
 4    1  0.2069825E-008  0.2529942E+04  0.7816531E-02  0.8392395E-01
          2   -1    0    0  501    0  0.00000000000E+00  0.00000000000E+00  0.28223481339E+04  0.28223481339E+04  0.00000000000E+00 0.  1.
         -2   -1    0    0    0  501 -0.00000000000E+00 -0.00000000000E+00 -0.56695766928E+03  0.56695766928E+03  0.00000000000E+00 0. -1.
    2000013    1    1    2    0    0  0.79184081521E+03 -0.33261671880E+02  0.14809579736E+04  0.19297291870E+04  0.95000000000E+03 0.  0.
   -2000013    1    1    2    0    0 -0.79184081521E+03  0.33261671880E+02  0.77443249101E+03  0.14595766162E+04  0.95000000000E+03 0.  0.
<mgrwt>
<rscale>  0 0.25299422E+04</rscale>
<asrwt>0</asrwt>
<pdfrwt beam="1">  1        2 0.43420740E+00 0.25299422E+04</pdfrwt>
<pdfrwt beam="2">  1       -2 0.87224259E-01 0.25299422E+04</pdfrwt>
<totfact> 0.22647111E+00</totfact>
</mgrwt>
</event>
<event>
 4    1  0.2069825E-008  0.2027397E+04  0.7816531E-02  0.8593918E-01
          2   -1    0    0  501    0  0.00000000000E+00  0.00000000000E+00  0.10781520642E+04  0.10781520642E+04  0.00000000000E+00 0.  1.
         -2   -1    0    0    0  501 -0.00000000000E+00 -0.00000000000E+00 -0.95309761247E+03  0.95309761247E+03  0.00000000000E+00 0. -1.
    2000013    1    1    2    0    0 -0.42122003460E+02  0.27768051375E+03 -0.15283112138E+03  0.10023662417E+04  0.95000000000E+03 0.  0.
   -2000013    1    1    2    0    0  0.42122003460E+02 -0.27768051375E+03  0.27788557307E+03  0.10288834349E+04  0.95000000000E+03 0.  0.
<mgrwt>
<rscale>  0 0.20273965E+04</rscale>
<asrwt>0</asrwt>
<pdfrwt beam="1">  1        2 0.16586955E+00 0.20273965E+04</pdfrwt>
<pdfrwt beam="2">  1       -2 0.14663040E+00 0.20273965E+04</pdfrwt>
<totfact> 0.66294999E+00</totfact>
</mgrwt>
</event>
<event>
 4    1  0.2069825E-008  0.3011882E+04  0.7816531E-02  0.8240346E-01
          2   -1    0    0  501    0  0.00000000000E+00  0.00000000000E+00  0.20185343401E+04  0.20185343401E+04  0.00000000000E+00 0.  1.
         -2   -1    0    0    0  501 -0.00000000000E+00 -0.00000000000E+00 -0.11235175960E+04  0.11235175960E+04  0.00000000000E+00 0. -1.
    2000013    1    1    2    0    0  0.15356313604E+03 -0.74283348838E+03 -0.47971036208E+03  0.13069067525E+04  0.95000000000E+03 0.  0.
   -2000013    1    1    2    0    0 -0.15356313604E+03  0.74283348838E+03  0.13747271062E+04  0.18351451836E+04  0.95000000000E+03 0.  0.
<mgrwt>
<rscale>  0 0.30118824E+04</rscale>
<asrwt>0</asrwt>
<pdfrwt beam="1">  1        2 0.31054374E+00 0.30118824E+04</pdfrwt>
<pdfrwt beam="2">  1       -2 0.17284886E+00 0.30118824E+04</pdfrwt>
<totfact> 0.11352584E+00</totfact>
</mgrwt>
</event>
<event>
 4    1  0.2069825E-008  0.2489546E+04  0.7816531E-02  0.8406719E-01
          2   -1    0    0  501    0  0.00000000000E+00  0.00000000000E+00  0.19499549062E+04  0.19499549062E+04  0.00000000000E+00 0.  1.
         -2   -1    0    0    0  501 -0.00000000000E+00 -0.00000000000E+00 -0.79461293748E+03  0.79461293748E+03  0.00000000000E+00 0. -1.
    2000013    1    1    2    0    0 -0.19792493503E+03  0.69081981721E+03  0.17933690580E+03  0.12046028497E+04  0.95000000000E+03 0.  0.
   -2000013    1    1    2    0    0  0.19792493503E+03 -0.69081981721E+03  0.97600506289E+03  0.15399649939E+04  0.95000000000E+03 0.  0.
<mgrwt>
<rscale>  0 0.24895457E+04</rscale>
<asrwt>0</asrwt>
<pdfrwt beam="1">  1        2 0.29999306E+00 0.24895457E+04</pdfrwt>
<pdfrwt beam="2">  1       -2 0.12224814E+00 0.24895457E+04</pdfrwt>
<totfact> 0.32238673E+00</totfact>
</mgrwt>
</event>
<event>
 4    1  0.2069825E-008  0.2301592E+04  0.7816531E-02  0.8477294E-01
         -2   -1    0    0    0  501 -0.00000000000E+00  0.00000000000E+00  0.38713713394E+03  0.38713713394E+03  0.00000000000E+00 0. -1.
          2   -1    0    0  501    0  0.00000000000E+00 -0.00000000000E+00 -0.34208338270E+04  0.34208338270E+04  0.00000000000E+00 0.  1.
    2000013    1    1    2    0    0 -0.19894234470E+03 -0.57603814264E+03 -0.11452907917E+04  0.16079766776E+04  0.95000000000E+03 0.  0.
   -2000013    1    1    2    0    0  0.19894234470E+03  0.57603814264E+03 -0.18884059014E+04  0.21999942833E+04  0.95000000000E+03 0.  0.
<mgrwt>
<rscale>  0 0.23015923E+04</rscale>
<asrwt>0</asrwt>
<pdfrwt beam="2">  1        2 0.52628210E+00 0.23015923E+04</pdfrwt>
<pdfrwt beam="1">  1       -2 0.59559563E-01 0.23015923E+04</pdfrwt>
<totfact> 0.22050866E+00</totfact>
</mgrwt>
</event>
<event>
 4    1  0.2069825E-008  0.2384968E+04  0.7816531E-02  0.8445153E-01
          2   -1    0    0  501    0  0.00000000000E+00  0.00000000000E+00  0.25399459418E+04  0.25399459418E+04  0.00000000000E+00 0.  1.
         -2   -1    0    0    0  501 -0.00000000000E+00 -0.00000000000E+00 -0.55986143450E+03  0.55986143450E+03  0.00000000000E+00 0. -1.
    2000013    1    1    2    0    0  0.52143643295E+03 -0.44926438992E+03  0.71193910814E+03  0.13722578983E+04  0.95000000000E+03 0.  0.
   -2000013    1    1    2    0    0 -0.52143643295E+03  0.44926438992E+03  0.12681453992E+04  0.17275494780E+04  0.95000000000E+03 0.  0.
<mgrwt>
<rscale>  0 0.23849677E+04</rscale>
<asrwt>0</asrwt>
<pdfrwt beam="1">  1        2 0.39076091E+00 0.23849677E+04</pdfrwt>
<pdfrwt beam="2">  1       -2 0.86132530E-01 0.23849677E+04</pdfrwt>
<totfact> 0.34728825E+00</totfact>
</mgrwt>
</event>
<event>
 4    1  0.2069825E-008  0.3666754E+04  0.7816531E-02  0.8075370E-01
         -2   -1    0    0    0  501 -0.00000000000E+00  0.00000000000E+00  0.11612454712E+04  0.11612454712E+04  0.00000000000E+00 0. -1.
          2   -1    0    0  501    0  0.00000000000E+00 -0.00000000000E+00 -0.28945390607E+04  0.28945390607E+04  0.00000000000E+00 0.  1.
    2000013    1    1    2    0    0 -0.86944951859E+03 -0.97252050585E+03 -0.18290348177E+04  0.24391816176E+04  0.95000000000E+03 0.  0.
   -2000013    1    1    2    0    0  0.86944951859E+03  0.97252050585E+03  0.95741228182E+02  0.16166029143E+04  0.95000000000E+03 0.  0.
<mgrwt>
<rscale>  0 0.36667535E+04</rscale>
<asrwt>0</asrwt>
<pdfrwt beam="2">  1        2 0.44531370E+00 0.36667535E+04</pdfrwt>
<pdfrwt beam="1">  1       -2 0.17865315E+00 0.36667535E+04</pdfrwt>
<totfact> 0.30390598E-01</totfact>
</mgrwt>
</event>
<event>
 4    1  0.2069825E-008  0.2189213E+04  0.7816531E-02  0.8522932E-01
          2   -1    0    0  501    0  0.00000000000E+00  0.00000000000E+00  0.15388313293E+04  0.15388313293E+04  0.00000000000E+00 0.  1.
         -2   -1    0    0    0  501 -0.00000000000E+00 -0.00000000000E+00 -0.77861872213E+03  0.77861872213E+03  0.00000000000E+00 0. -1.
    2000013    1    1    2    0    0  0.24483843658E+01 -0.44072690018E+03  0.71722059776E+03  0.12693114594E+04  0.95000000000E+03 0.  0.
   -2000013    1    1    2    0    0 -0.24483843658E+01  0.44072690018E+03  0.42992009373E+02  0.10481385920E+04  0.95000000000E+03 0.  0.
<mgrwt>
<rscale>  0 0.21892125E+04</rscale>
<asrwt>0</asrwt>
<pdfrwt beam="1">  1        2 0.23674328E+00 0.21892125E+04</pdfrwt>
<pdfrwt beam="2">  1       -2 0.11978750E+00 0.21892125E+04</pdfrwt>
<totfact> 0.58900459E+00</totfact>
</mgrwt>
</event>
<event>
 4    1  0.2069825E-008  0.2359997E+04  0.7816531E-02  0.8454634E-01
         -2   -1    0    0    0  501 -0.00000000000E+00  0.00000000000E+00  0.59685563694E+03  0.59685563694E+03  0.00000000000E+00 0. -1.
          2   -1    0    0  501    0  0.00000000000E+00 -0.00000000000E+00 -0.23328866370E+04  0.23328866370E+04  0.00000000000E+00 0.  1.
    2000013    1    1    2    0    0 -0.32207142985E+02  0.37520520771E+03 -0.13559975584E+03  0.10308751339E+04  0.95000000000E+03 0.  0.
   -2000013    1    1    2    0    0  0.32207142985E+02 -0.37520520771E+03 -0.16004312442E+04  0.18988671400E+04  0.95000000000E+03 0.  0.
<mgrwt>
<rscale>  0 0.23599971E+04</rscale>
<asrwt>0</asrwt>
<pdfrwt beam="2">  1        2 0.35890563E+00 0.23599971E+04</pdfrwt>
<pdfrwt beam="1">  1       -2 0.91823946E-01 0.23599971E+04</pdfrwt>
<totfact> 0.39518659E+00</totfact>
</mgrwt>
</event>
<event>
 4    1  0.2069825E-008  0.2993775E+04  0.7816531E-02  0.8245511E-01
         -2   -1    0    0    0  501 -0.00000000000E+00  0.00000000000E+00  0.85618806584E+03  0.85618806584E+03  0.00000000000E+00 0. -1.
          2   -1    0    0  501    0  0.00000000000E+00 -0.00000000000E+00 -0.26170333751E+04  0.26170333751E+04  0.00000000000E+00 0.  1.
    2000013    1    1    2    0    0  0.95504907942E+03 -0.39398499161E+03 -0.27666658837E+03  0.14305199470E+04  0.95000000000E+03 0.  0.
   -2000013    1    1    2    0    0 -0.95504907942E+03  0.39398499161E+03 -0.14841787209E+04  0.20427014939E+04  0.95000000000E+03 0.  0.
<mgrwt>
<rscale>  0 0.29937754E+04</rscale>
<asrwt>0</asrwt>
<pdfrwt beam="2">  1        2 0.40262051E+00 0.29937754E+04</pdfrwt>
<pdfrwt beam="1">  1       -2 0.13172124E+00 0.29937754E+04</pdfrwt>
<totfact> 0.10694873E+00</totfact>
</mgrwt>
</event>
<event>
 4    1  0.2069825E-008  0.2105930E+04  0.7816531E-02  0.8558636E-01
         -2   -1    0    0    0  501 -0.00000000000E+00  0.00000000000E+00  0.35801771005E+03  0.35801771005E+03  0.00000000000E+00 0. -1.
          2   -1    0    0  501    0  0.00000000000E+00 -0.00000000000E+00 -0.30968737322E+04  0.30968737322E+04  0.00000000000E+00 0.  1.
    2000013    1    1    2    0    0  0.45360074133E+03 -0.14871208669E+02 -0.13429313426E+04  0.17064405575E+04  0.95000000000E+03 0.  0.
   -2000013    1    1    2    0    0 -0.45360074133E+03  0.14871208669E+02 -0.13959246796E+04  0.17484508848E+04  0.95000000000E+03 0.  0.
<mgrwt>
<rscale>  0 0.21059303E+04</rscale>
<asrwt>0</asrwt>
<pdfrwt beam="2">  1        2 0.47644210E+00 0.21059303E+04</pdfrwt>
<pdfrwt beam="1">  1       -2 0.55079649E-01 0.21059303E+04</pdfrwt>
<totfact> 0.43256892E+00</totfact>
</mgrwt>
</event>
<event>
 4    1  0.2069825E-008  0.2057331E+04  0.7816531E-02  0.8580276E-01
          1   -1    0    0  501    0  0.00000000000E+00  0.00000000000E+00  0.19842330318E+04  0.19842330318E+04  0.00000000000E+00 0.  1.
         -1   -1    0    0    0  501 -0.00000000000E+00 -0.00000000000E+00 -0.53328052665E+03  0.53328052665E+03  0.00000000000E+00 0. -1.
    2000013    1    1    2    0    0 -0.34765753277E+03  0.13947599208E+03  0.57394974723E+03  0.11714254670E+04  0.95000000000E+03 0.  0.
   -2000013    1    1    2    0    0  0.34765753277E+03 -0.13947599208E+03  0.87700275790E+03  0.13460880914E+04  0.95000000000E+03 0.  0.
<mgrwt>
<rscale>  0 0.20573311E+04</rscale>
<asrwt>0</asrwt>
<pdfrwt beam="1">  1        1 0.30526662E+00 0.20573311E+04</pdfrwt>
<pdfrwt beam="2">  1       -1 0.82043159E-01 0.20573311E+04</pdfrwt>
<totfact> 0.41663860E+00</totfact>
</mgrwt>
</event>
<event>
 4    1  0.2069825E-008  0.2408974E+04  0.7816531E-02  0.8436151E-01
         -2   -1    0    0    0  501 -0.00000000000E+00  0.00000000000E+00  0.54975455135E+03  0.54975455135E+03  0.00000000000E+00 0. -1.
          2   -1    0    0  501    0  0.00000000000E+00 -0.00000000000E+00 -0.26389766083E+04  0.26389766083E+04  0.00000000000E+00 0.  1.
    2000013    1    1    2    0    0 -0.69058826769E+03  0.20033434348E+03 -0.81063851306E+03  0.14410693264E+04  0.95000000000E+03 0.  0.
   -2000013    1    1    2    0    0  0.69058826769E+03 -0.20033434348E+03 -0.12785835439E+04  0.17476618332E+04  0.95000000000E+03 0.  0.
<mgrwt>
<rscale>  0 0.24089744E+04</rscale>
<asrwt>0</asrwt>
<pdfrwt beam="2">  1        2 0.40599640E+00 0.24089744E+04</pdfrwt>
<pdfrwt beam="1">  1       -2 0.84577624E-01 0.24089744E+04</pdfrwt>
<totfact> 0.31607122E+00</totfact>
</mgrwt>
</event>
<event>
 4    1  0.2069825E-008  0.2263780E+04  0.7816531E-02  0.8492341E-01
         -2   -1    0    0    0  501 -0.00000000000E+00  0.00000000000E+00  0.33060310245E+03  0.33060310245E+03  0.00000000000E+00 0. -1.
          2   -1    0    0  501    0  0.00000000000E+00 -0.00000000000E+00 -0.38752660551E+04  0.38752660551E+04  0.00000000000E+00 0.  1.
    2000013    1    1    2    0    0 -0.57414078048E+03 -0.12617031499E+03 -0.14342228993E+04  0.18179801729E+04  0.95000000000E+03 0.  0.
   -2000013    1    1    2    0    0  0.57414078048E+03  0.12617031499E+03 -0.21104400533E+04  0.23878889846E+04  0.95000000000E+03 0.  0.
<mgrwt>
<rscale>  0 0.22637800E+04</rscale>
<asrwt>0</asrwt>
<pdfrwt beam="2">  1        2 0.59619480E+00 0.22637800E+04</pdfrwt>
<pdfrwt beam="1">  1       -2 0.50862014E-01 0.22637800E+04</pdfrwt>
<totfact> 0.14356843E+00</totfact>
</mgrwt>
</event>
<event>
 4    1  0.2069825E-008  0.3860518E+04  0.7816531E-02  0.8033291E-01
          1   -1    0    0  501    0  0.00000000000E+00  0.00000000000E+00  0.20703426088E+04  0.20703426088E+04  0.00000000000E+00 0.  1.
         -1   -1    0    0    0  501 -0.00000000000E+00 -0.00000000000E+00 -0.17996533262E+04  0.17996533262E+04  0.00000000000E+00 0. -1.
    2000013    1    1    2    0    0 -0.15791259599E+04 -0.31358262367E+03 -0.34690414962E+03  0.19012667746E+04  0.95000000000E+03 0.  0.
   -2000013    1    1    2    0    0  0.15791259599E+04  0.31358262367E+03  0.61759343224E+03  0.19687291603E+04  0.95000000000E+03 0.  0.
<mgrwt>
<rscale>  0 0.38605176E+04</rscale>
<asrwt>0</asrwt>
<pdfrwt beam="1">  1        1 0.31851425E+00 0.38605176E+04</pdfrwt>
<pdfrwt beam="2">  1       -1 0.27686974E+00 0.38605176E+04</pdfrwt>
<totfact> 0.98560462E-02</totfact>
</mgrwt>
</event>
<event>
 4    1  0.2069825E-008  0.3352426E+04  0.7816531E-02  0.8149682E-01
         -2   -1    0    0    0  501 -0.00000000000E+00  0.00000000000E+00  0.88462767246E+03  0.88462767246E+03  0.00000000000E+00 0.  1.
          2   -1    0    0  501    0  0.00000000000E+00 -0.00000000000E+00 -0.31761265036E+04  0.31761265036E+04  0.00000000000E+00 0. -1.
    2000013    1    1    2    0    0 -0.70432634775E+03  0.11449244238E+04 -0.15292936137E+04  0.22468125194E+04  0.95000000000E+03 0.  0.
   -2000013    1    1    2    0    0  0.70432634775E+03 -0.11449244238E+04 -0.76220521750E+03  0.18139416567E+04  0.95000000000E+03 0.  0.
<mgrwt>
<rscale>  0 0.33524256E+04</rscale>
<asrwt>0</asrwt>
<pdfrwt beam="2">  1        2 0.48863484E+00 0.33524256E+04</pdfrwt>
<pdfrwt beam="1">  1       -2 0.13609657E+00 0.33524256E+04</pdfrwt>
<totfact> 0.43151762E-01</totfact>
</mgrwt>
</event>
<event>
 4    1  0.2069825E-008  0.1997895E+04  0.7816531E-02  0.8607605E-01
         -2   -1    0    0    0  501 -0.00000000000E+00  0.00000000000E+00  0.46986565298E+03  0.46986565298E+03  0.00000000000E+00 0. -1.
          2   -1    0    0  501    0  0.00000000000E+00 -0.00000000000E+00 -0.21237913141E+04  0.21237913141E+04  0.00000000000E+00 0.  1.
    2000013    1    1    2    0    0  0.19698401588E+03  0.19770873511E+03 -0.65520258934E+03  0.11873002483E+04  0.95000000000E+03 0.  0.
   -2000013    1    1    2    0    0 -0.19698401588E+03 -0.19770873511E+03 -0.99872307177E+03  0.14063567188E+04  0.95000000000E+03 0.  0.
<mgrwt>
<rscale>  0 0.19978955E+04</rscale>
<asrwt>0</asrwt>
<pdfrwt beam="2">  1        2 0.32673713E+00 0.19978955E+04</pdfrwt>
<pdfrwt beam="1">  1       -2 0.72287022E-01 0.19978955E+04</pdfrwt>
<totfact> 0.91724692E+00</totfact>
</mgrwt>
</event>
<event>
 4    1  0.2069825E-008  0.2063941E+04  0.7816531E-02  0.8577296E-01
          1   -1    0    0  501    0  0.00000000000E+00  0.00000000000E+00  0.15569531624E+04  0.15569531624E+04  0.00000000000E+00 0.  1.
         -1   -1    0    0    0  501 -0.00000000000E+00 -0.00000000000E+00 -0.68400454928E+03  0.68400454928E+03  0.00000000000E+00 0. -1.
    2000013    1    1    2    0    0  0.21242050322E+03 -0.79344974319E+02  0.79828867088E+03  0.12614209833E+04  0.95000000000E+03 0.  0.
   -2000013    1    1    2    0    0 -0.21242050322E+03  0.79344974319E+02  0.74659942194E+02  0.97953672831E+03  0.95000000000E+03 0.  0.
<mgrwt>
<rscale>  0 0.20639409E+04</rscale>
<asrwt>0</asrwt>
<pdfrwt beam="1">  1        1 0.23953125E+00 0.20639409E+04</pdfrwt>
<pdfrwt beam="2">  1       -1 0.10523147E+00 0.20639409E+04</pdfrwt>
<totfact> 0.46680449E+00</totfact>
</mgrwt>
</event>
<event>
 4    1  0.2069825E-008  0.2601189E+04  0.7816531E-02  0.8367798E-01
          2   -1    0    0  501    0  0.00000000000E+00  0.00000000000E+00  0.11198386057E+04  0.11198386057E+04  0.00000000000E+00 0.  1.
         -2   -1    0    0    0  501 -0.00000000000E+00 -0.00000000000E+00 -0.15105262488E+04  0.15105262488E+04  0.00000000000E+00 0. -1.
    2000013    1    1    2    0    0 -0.34457072684E+02 -0.79965708221E+03  0.19421329562E+03  0.12573215751E+04  0.95000000000E+03 0.  0.
   -2000013    1    1    2    0    0  0.34457072684E+02  0.79965708221E+03 -0.58490093879E+03  0.13730432794E+04  0.95000000000E+03 0.  0.
<mgrwt>
<rscale>  0 0.26011887E+04</rscale>
<asrwt>0</asrwt>
<pdfrwt beam="1">  1        2 0.17228286E+00 0.26011887E+04</pdfrwt>
<pdfrwt beam="2">  1       -2 0.23238865E+00 0.26011887E+04</pdfrwt>
<totfact> 0.15475172E+00</totfact>
</mgrwt>
</event>
<event>
 4    1  0.2069825E-008  0.3404521E+04  0.7816531E-02  0.8136798E-01
         -2   -1    0    0    0  501 -0.00000000000E+00  0.00000000000E+00  0.16854781662E+04  0.16854781662E+04  0.00000000000E+00 0. -1.
          2   -1    0    0  501    0  0.00000000000E+00 -0.00000000000E+00 -0.17192096880E+04  0.17192096880E+04  0.00000000000E+00 0.  1.
    2000013    1    1    2    0    0  0.10686590584E+04  0.11842442899E+02 -0.94050080936E+03  0.17114947265E+04  0.95000000000E+03 0.  0.
   -2000013    1    1    2    0    0 -0.10686590584E+04 -0.11842442899E+02  0.90676928760E+03  0.16931931276E+04  0.95000000000E+03 0.  0.
<mgrwt>
<rscale>  0 0.34045208E+04</rscale>
<asrwt>0</asrwt>
<pdfrwt beam="2">  1        2 0.26449380E+00 0.34045208E+04</pdfrwt>
<pdfrwt beam="1">  1       -2 0.25930433E+00 0.34045208E+04</pdfrwt>
<totfact> 0.44646945E-01</totfact>
</mgrwt>
</event>
<event>
 4    1  0.2069825E-008  0.3570005E+04  0.7816531E-02  0.8097397E-01
          2   -1    0    0  501    0  0.00000000000E+00  0.00000000000E+00  0.16841790855E+04  0.16841790855E+04  0.00000000000E+00 0.  1.
         -2   -1    0    0    0  501 -0.00000000000E+00 -0.00000000000E+00 -0.18918612812E+04  0.18918612812E+04  0.00000000000E+00 0. -1.
    2000013    1    1    2    0    0  0.45998675511E+03 -0.12754816607E+04 -0.77227126992E+03  0.18268399481E+04  0.95000000000E+03 0.  0.
   -2000013    1    1    2    0    0 -0.45998675511E+03  0.12754816607E+04  0.56458907426E+03  0.17492004186E+04  0.95000000000E+03 0.  0.
<mgrwt>
<rscale>  0 0.35700046E+04</rscale>
<asrwt>0</asrwt>
<pdfrwt beam="1">  1        2 0.25910448E+00 0.35700046E+04</pdfrwt>
<pdfrwt beam="2">  1       -2 0.29105558E+00 0.35700046E+04</pdfrwt>
<totfact> 0.29476318E-01</totfact>
</mgrwt>
</event>
<event>
 4    1  0.2069825E-008  0.3337672E+04  0.7816531E-02  0.8153375E-01
          2   -1    0    0  501    0  0.00000000000E+00  0.00000000000E+00  0.14428165126E+04  0.14428165126E+04  0.00000000000E+00 0.  1.
         -2   -1    0    0    0  501 -0.00000000000E+00 -0.00000000000E+00 -0.19302613426E+04  0.19302613426E+04  0.00000000000E+00 0. -1.
    2000013    1    1    2    0    0 -0.74531892673E+03  0.10834399196E+04  0.15179939351E+03  0.16293819128E+04  0.95000000000E+03 0.  0.
   -2000013    1    1    2    0    0  0.74531892673E+03 -0.10834399196E+04 -0.63924422350E+03  0.17436959423E+04  0.95000000000E+03 0.  0.
<mgrwt>
<rscale>  0 0.33376716E+04</rscale>
<asrwt>0</asrwt>
<pdfrwt beam="1">  1        2 0.22197177E+00 0.33376716E+04</pdfrwt>
<pdfrwt beam="2">  1       -2 0.29696328E+00 0.33376716E+04</pdfrwt>
<totfact> 0.37778098E-01</totfact>
</mgrwt>
</event>
<event>
 4    1  0.2069825E-008  0.2483056E+04  0.7816531E-02  0.8409047E-01
          2   -1    0    0  501    0  0.00000000000E+00  0.00000000000E+00  0.43479115585E+04  0.43479115585E+04  0.00000000000E+00 0.  1.
         -2   -1    0    0    0  501 -0.00000000000E+00 -0.00000000000E+00 -0.35451307510E+03  0.35451307510E+03  0.00000000000E+00 0. -1.
    2000013    1    1    2    0    0 -0.65115602646E+03  0.25149252867E+03  0.27341628381E+04  0.29774820046E+04  0.95000000000E+03 0.  0.
   -2000013    1    1    2    0    0  0.65115602646E+03 -0.25149252867E+03  0.12592356453E+04  0.17249426290E+04  0.95000000000E+03 0.  0.
<mgrwt>
<rscale>  0 0.24830558E+04</rscale>
<asrwt>0</asrwt>
<pdfrwt beam="1">  1        2 0.66890943E+00 0.24830558E+04</pdfrwt>
<pdfrwt beam="2">  1       -2 0.54540476E-01 0.24830558E+04</pdfrwt>
<totfact> 0.48737150E-01</totfact>
</mgrwt>
</event>
<event>
 4    1  0.2069825E-008  0.2763541E+04  0.7816531E-02  0.8314678E-01
         -1   -1    0    0    0  501 -0.00000000000E+00  0.00000000000E+00  0.68452233846E+03  0.68452233846E+03  0.00000000000E+00 0. -1.
          1   -1    0    0  501    0  0.00000000000E+00 -0.00000000000E+00 -0.27892292483E+04  0.27892292483E+04  0.00000000000E+00 0.  1.
    2000013    1    1    2    0    0 -0.69698151730E+03  0.45977147689E+03 -0.17517846852E+04  0.21606532877E+04  0.95000000000E+03 0.  0.
   -2000013    1    1    2    0    0  0.69698151730E+03 -0.45977147689E+03 -0.35292222471E+03  0.13130982991E+04  0.95000000000E+03 0.  0.
<mgrwt>
<rscale>  0 0.27635410E+04</rscale>
<asrwt>0</asrwt>
<pdfrwt beam="2">  1        1 0.42911219E+00 0.27635410E+04</pdfrwt>
<pdfrwt beam="1">  1       -1 0.10531113E+00 0.27635410E+04</pdfrwt>
<totfact> 0.62250182E-01</totfact>
</mgrwt>
</event>
<event>
 4    1  0.2069825E-008  0.3107433E+04  0.7816531E-02  0.8213701E-01
          2   -1    0    0  501    0  0.00000000000E+00  0.00000000000E+00  0.39419542040E+04  0.39419542040E+04  0.00000000000E+00 0.  1.
         -2   -1    0    0    0  501 -0.00000000000E+00 -0.00000000000E+00 -0.61239551756E+03  0.61239551756E+03  0.00000000000E+00 0. -1.
    2000013    1    1    2    0    0 -0.70392013858E+03  0.34545865544E+03  0.30526395271E+04  0.32918009245E+04  0.95000000000E+03 0.  0.
   -2000013    1    1    2    0    0  0.70392013858E+03 -0.34545865544E+03  0.27691915932E+03  0.12625487970E+04  0.95000000000E+03 0.  0.
<mgrwt>
<rscale>  0 0.31074331E+04</rscale>
<asrwt>0</asrwt>
<pdfrwt beam="1">  1        2 0.60645448E+00 0.31074331E+04</pdfrwt>
<pdfrwt beam="2">  1       -2 0.94214697E-01 0.31074331E+04</pdfrwt>
<totfact> 0.30672730E-01</totfact>
</mgrwt>
</event>
<event>
 4    1  0.2069825E-008  0.2192261E+04  0.7816531E-02  0.8521656E-01
          2   -1    0    0  501    0  0.00000000000E+00  0.00000000000E+00  0.18721858230E+04  0.18721858230E+04  0.00000000000E+00 0.  1.
         -2   -1    0    0    0  501 -0.00000000000E+00 -0.00000000000E+00 -0.64176416280E+03  0.64176416280E+03  0.00000000000E+00 0. -1.
    2000013    1    1    2    0    0 -0.43679322759E+03 -0.16136101547E+03  0.28648252184E+03  0.10960829970E+04  0.95000000000E+03 0.  0.
   -2000013    1    1    2    0    0  0.43679322759E+03  0.16136101547E+03  0.94393913831E+03  0.14178669888E+04  0.95000000000E+03 0.  0.
<mgrwt>
<rscale>  0 0.21922607E+04</rscale>
<asrwt>0</asrwt>
<pdfrwt beam="1">  1        2 0.28802859E+00 0.21922607E+04</pdfrwt>
<pdfrwt beam="2">  1       -2 0.98732949E-01 0.21922607E+04</pdfrwt>
<totfact> 0.61262574E+00</totfact>
</mgrwt>
</event>
<event>
 4    1  0.2069825E-008  0.2058231E+04  0.7816531E-02  0.8579869E-01
         -2   -1    0    0    0  501 -0.00000000000E+00  0.00000000000E+00  0.55607153969E+03  0.55607153969E+03  0.00000000000E+00 0. -1.
          2   -1    0    0  501    0  0.00000000000E+00 -0.00000000000E+00 -0.19045736240E+04  0.19045736240E+04  0.00000000000E+00 0.  1.
    2000013    1    1    2    0    0 -0.84812929278E+02 -0.37563795578E+03 -0.56545214106E+03  0.11706977537E+04  0.95000000000E+03 0.  0.
   -2000013    1    1    2    0    0  0.84812929278E+02  0.37563795578E+03 -0.78304994323E+03  0.12899474099E+04  0.95000000000E+03 0.  0.
<mgrwt>
<rscale>  0 0.20582315E+04</rscale>
<asrwt>0</asrwt>
<pdfrwt beam="2">  1        2 0.29301133E+00 0.20582315E+04</pdfrwt>
<pdfrwt beam="1">  1       -2 0.85549467E-01 0.20582315E+04</pdfrwt>
<totfact> 0.82876735E+00</totfact>
</mgrwt>
</event>
<event>
 4    1  0.2069825E-008  0.2288325E+04  0.7816531E-02  0.8482539E-01
         -2   -1    0    0    0  501 -0.00000000000E+00  0.00000000000E+00  0.87194804020E+03  0.87194804020E+03  0.00000000000E+00 0. -1.
          2   -1    0    0  501    0  0.00000000000E+00 -0.00000000000E+00 -0.15013592566E+04  0.15013592566E+04  0.00000000000E+00 0.  1.
    2000013    1    1    2    0    0  0.57648369011E+03 -0.96527603984E+02 -0.57903581496E+03  0.12567551465E+04  0.95000000000E+03 0.  0.
   -2000013    1    1    2    0    0 -0.57648369011E+03  0.96527603984E+02 -0.50375401469E+02  0.11165521503E+04  0.95000000000E+03 0.  0.
<mgrwt>
<rscale>  0 0.22883245E+04</rscale>
<asrwt>0</asrwt>
<pdfrwt beam="2">  1        2 0.23097835E+00 0.22883245E+04</pdfrwt>
<pdfrwt beam="1">  1       -2 0.13414585E+00 0.22883245E+04</pdfrwt>
<totfact> 0.46115172E+00</totfact>
</mgrwt>
</event>
<event>
 4    1  0.2069825E-008  0.2730215E+04  0.7816531E-02  0.8325267E-01
         -2   -1    0    0    0  501 -0.00000000000E+00  0.00000000000E+00  0.13235620182E+04  0.13235620182E+04  0.00000000000E+00 0. -1.
          2   -1    0    0  501    0  0.00000000000E+00 -0.00000000000E+00 -0.14079573564E+04  0.14079573564E+04  0.00000000000E+00 0.  1.
    2000013    1    1    2    0    0  0.52333714252E+03 -0.73939126872E+03  0.33273146996E+03  0.13541755588E+04  0.95000000000E+03 0.  0.
   -2000013    1    1    2    0    0 -0.52333714252E+03  0.73939126872E+03 -0.41712680814E+03  0.13773438159E+04  0.95000000000E+03 0.  0.
<mgrwt>
<rscale>  0 0.27302153E+04</rscale>
<asrwt>0</asrwt>
<pdfrwt beam="2">  1        2 0.21660882E+00 0.27302153E+04</pdfrwt>
<pdfrwt beam="1">  1       -2 0.20362493E+00 0.27302153E+04</pdfrwt>
<totfact> 0.15782110E+00</totfact>
</mgrwt>
</event>
<event>
 4    1  0.2069825E-008  0.3254263E+04  0.7816531E-02  0.8174632E-01
         -1   -1    0    0    0  501 -0.00000000000E+00  0.00000000000E+00  0.11047098457E+04  0.11047098457E+04  0.00000000000E+00 0. -1.
          1   -1    0    0  501    0  0.00000000000E+00 -0.00000000000E+00 -0.23966088593E+04  0.23966088593E+04  0.00000000000E+00 0.  1.
    2000013    1    1    2    0    0 -0.10387630752E+04 -0.70010443583E+03 -0.10971714550E+04  0.19171489637E+04  0.95000000000E+03 0.  0.
   -2000013    1    1    2    0    0  0.10387630752E+04  0.70010443583E+03 -0.19472755862E+03  0.15841697414E+04  0.95000000000E+03 0.  0.
<mgrwt>
<rscale>  0 0.32542633E+04</rscale>
<asrwt>0</asrwt>
<pdfrwt beam="2">  1        1 0.36870905E+00 0.32542633E+04</pdfrwt>
<pdfrwt beam="1">  1       -1 0.16995536E+00 0.32542633E+04</pdfrwt>
<totfact> 0.32750073E-01</totfact>
</mgrwt>
</event>
<event>
 4    1  0.2069825E-008  0.2391702E+04  0.7816531E-02  0.8442617E-01
          2   -1    0    0  501    0  0.00000000000E+00  0.00000000000E+00  0.19806235994E+04  0.19806235994E+04  0.00000000000E+00 0.  1.
         -2   -1    0    0    0  501 -0.00000000000E+00 -0.00000000000E+00 -0.72202469895E+03  0.72202469895E+03  0.00000000000E+00 0. -1.
    2000013    1    1    2    0    0 -0.10389299150E+03 -0.54621940291E+03  0.10119653449E+03  0.11053913915E+04  0.95000000000E+03 0.  0.
   -2000013    1    1    2    0    0  0.10389299150E+03  0.54621940291E+03  0.11574023660E+04  0.15972569069E+04  0.95000000000E+03 0.  0.
<mgrwt>
<rscale>  0 0.23917016E+04</rscale>
<asrwt>0</asrwt>
<pdfrwt beam="1">  1        2 0.30471132E+00 0.23917016E+04</pdfrwt>
<pdfrwt beam="2">  1       -2 0.11108072E+00 0.23917016E+04</pdfrwt>
<totfact> 0.39543060E+00</totfact>
</mgrwt>
</event>
<event>
 4    1  0.2069825E-008  0.3571511E+04  0.7816531E-02  0.8097049E-01
          2   -1    0    0  501    0  0.00000000000E+00  0.00000000000E+00  0.14112027551E+04  0.14112027551E+04  0.00000000000E+00 0.  1.
         -2   -1    0    0    0  501 -0.00000000000E+00 -0.00000000000E+00 -0.22597196259E+04  0.22597196259E+04  0.00000000000E+00 0. -1.
    2000013    1    1    2    0    0  0.15065153626E+04  0.32062598369E+02 -0.55347982265E+03  0.18653301214E+04  0.95000000000E+03 0.  0.
   -2000013    1    1    2    0    0 -0.15065153626E+04 -0.32062598369E+02 -0.29503704816E+03  0.18055922595E+04  0.95000000000E+03 0.  0.
<mgrwt>
<rscale>  0 0.35715109E+04</rscale>
<asrwt>0</asrwt>
<pdfrwt beam="1">  1        2 0.21710812E+00 0.35715109E+04</pdfrwt>
<pdfrwt beam="2">  1       -2 0.34764917E+00 0.35715109E+04</pdfrwt>
<totfact> 0.18743872E-01</totfact>
</mgrwt>
</event>
<event>
 4    1  0.2069825E-008  0.2598202E+04  0.7816531E-02  0.8368812E-01
          2   -1    0    0  501    0  0.00000000000E+00  0.00000000000E+00  0.24658584819E+04  0.24658584819E+04  0.00000000000E+00 0.  1.
         -2   -1    0    0    0  501 -0.00000000000E+00 -0.00000000000E+00 -0.68441207075E+03  0.68441207075E+03  0.00000000000E+00 0. -1.
    2000013    1    1    2    0    0 -0.42845732632E+03  0.32624744614E+02 -0.48870002180E+02  0.10438047382E+04  0.95000000000E+03 0.  0.
   -2000013    1    1    2    0    0  0.42845732632E+03 -0.32624744614E+02  0.18303164133E+04  0.21064658144E+04  0.95000000000E+03 0.  0.
<mgrwt>
<rscale>  0 0.25982019E+04</rscale>
<asrwt>0</asrwt>
<pdfrwt beam="1">  1        2 0.37936284E+00 0.25982019E+04</pdfrwt>
<pdfrwt beam="2">  1       -2 0.10529417E+00 0.25982019E+04</pdfrwt>
<totfact> 0.23528878E+00</totfact>
</mgrwt>
</event>
<event>
 4    1  0.2069825E-008  0.2491169E+04  0.7816531E-02  0.8406139E-01
          2   -1    0    0  501    0  0.00000000000E+00  0.00000000000E+00  0.11626722272E+04  0.11626722272E+04  0.00000000000E+00 0.  1.
         -2   -1    0    0    0  501 -0.00000000000E+00 -0.00000000000E+00 -0.13344088850E+04  0.13344088850E+04  0.00000000000E+00 0. -1.
    2000013    1    1    2    0    0 -0.69704963955E+03  0.34643193250E+03 -0.29393475026E+03  0.12628503163E+04  0.95000000000E+03 0.  0.
   -2000013    1    1    2    0    0  0.69704963955E+03 -0.34643193250E+03  0.12219809245E+03  0.12342307959E+04  0.95000000000E+03 0.  0.
<mgrwt>
<rscale>  0 0.24911685E+04</rscale>
<asrwt>0</asrwt>
<pdfrwt beam="1">  1        2 0.17887265E+00 0.24911685E+04</pdfrwt>
<pdfrwt beam="2">  1       -2 0.20529368E+00 0.24911685E+04</pdfrwt>
<totfact> 0.21863697E+00</totfact>
</mgrwt>
</event>
<event>
 4    1  0.2069825E-008  0.2968554E+04  0.7816531E-02  0.8252768E-01
         -2   -1    0    0    0  501 -0.00000000000E+00  0.00000000000E+00  0.87626407245E+03  0.87626407245E+03  0.00000000000E+00 0. -1.
          2   -1    0    0  501    0  0.00000000000E+00 -0.00000000000E+00 -0.25141708942E+04  0.25141708942E+04  0.00000000000E+00 0.  1.
    2000013    1    1    2    0    0  0.97607287217E+03  0.14163994851E+03 -0.14728564279E+04  0.20111156565E+04  0.95000000000E+03 0.  0.
   -2000013    1    1    2    0    0 -0.97607287217E+03 -0.14163994851E+03 -0.16505039390E+03  0.13793193101E+04  0.95000000000E+03 0.  0.
<mgrwt>
<rscale>  0 0.29685536E+04</rscale>
<asrwt>0</asrwt>
<pdfrwt beam="2">  1        2 0.38679552E+00 0.29685536E+04</pdfrwt>
<pdfrwt beam="1">  1       -2 0.13480986E+00 0.29685536E+04</pdfrwt>
<totfact> 0.11604424E+00</totfact>
</mgrwt>
</event>
<event>
 4    1  0.2069825E-008  0.2287763E+04  0.7816531E-02  0.8482762E-01
          2   -1    0    0  501    0  0.00000000000E+00  0.00000000000E+00  0.13030670518E+04  0.13030670518E+04  0.00000000000E+00 0.  1.
         -2   -1    0    0    0  501 -0.00000000000E+00 -0.00000000000E+00 -0.10041423155E+04  0.10041423155E+04  0.00000000000E+00 0. -1.
    2000013    1    1    2    0    0 -0.40321926819E+03  0.10243649849E+03  0.63614679977E+03  0.12166600862E+04  0.95000000000E+03 0.  0.
   -2000013    1    1    2    0    0  0.40321926819E+03 -0.10243649849E+03 -0.33722206340E+03  0.10905492811E+04  0.95000000000E+03 0.  0.
<mgrwt>
<rscale>  0 0.22877629E+04</rscale>
<asrwt>0</asrwt>
<pdfrwt beam="1">  1        2 0.20047185E+00 0.22877629E+04</pdfrwt>
<pdfrwt beam="2">  1       -2 0.15448343E+00 0.22877629E+04</pdfrwt>
<totfact> 0.41390033E+00</totfact>
</mgrwt>
</event>
<event>
 4    1  0.2069825E-008  0.2848802E+04  0.7816531E-02  0.8288276E-01
         -2   -1    0    0    0  501 -0.00000000000E+00  0.00000000000E+00  0.13536142038E+04  0.13536142038E+04  0.00000000000E+00 0. -1.
          2   -1    0    0  501    0  0.00000000000E+00 -0.00000000000E+00 -0.14988893239E+04  0.14988893239E+04  0.00000000000E+00 0.  1.
    2000013    1    1    2    0    0  0.10137574872E+04 -0.29690865445E+03  0.30252406517E+02  0.14210116819E+04  0.95000000000E+03 0.  0.
   -2000013    1    1    2    0    0 -0.10137574872E+04  0.29690865445E+03 -0.17552752662E+03  0.14314918458E+04  0.95000000000E+03 0.  0.
<mgrwt>
<rscale>  0 0.28488018E+04</rscale>
<asrwt>0</asrwt>
<pdfrwt beam="2">  1        2 0.23059836E+00 0.28488018E+04</pdfrwt>
<pdfrwt beam="1">  1       -2 0.20824834E+00 0.28488018E+04</pdfrwt>
<totfact> 0.12949551E+00</totfact>
</mgrwt>
</event>
<event>
 4    1  0.2069825E-008  0.2444839E+04  0.7816531E-02  0.8422905E-01
         -1   -1    0    0    0  501 -0.00000000000E+00  0.00000000000E+00  0.17225560569E+04  0.17225560569E+04  0.00000000000E+00 0. -1.
          1   -1    0    0  501    0  0.00000000000E+00 -0.00000000000E+00 -0.86749556408E+03  0.86749556408E+03  0.00000000000E+00 0.  1.
    2000013    1    1    2    0    0 -0.18514770648E+03 -0.55119279731E+03  0.96115076746E+03  0.14711913441E+04  0.95000000000E+03 0.  0.
   -2000013    1    1    2    0    0  0.18514770648E+03  0.55119279731E+03 -0.10609027460E+03  0.11188602770E+04  0.95000000000E+03 0.  0.
<mgrwt>
<rscale>  0 0.24448392E+04</rscale>
<asrwt>0</asrwt>
<pdfrwt beam="2">  1        1 0.13346086E+00 0.24448392E+04</pdfrwt>
<pdfrwt beam="1">  1       -1 0.26500862E+00 0.24448392E+04</pdfrwt>
<totfact> 0.96212399E-01</totfact>
</mgrwt>
</event>
<event>
 4    1  0.2069825E-008  0.5029348E+04  0.7816531E-02  0.7823996E-01
          2   -1    0    0  501    0  0.00000000000E+00  0.00000000000E+00  0.33676483052E+04  0.33676483052E+04  0.00000000000E+00 0.  1.
         -2   -1    0    0    0  501 -0.00000000000E+00 -0.00000000000E+00 -0.18777451937E+04  0.18777451937E+04  0.00000000000E+00 0. -1.
    2000013    1    1    2    0    0  0.74175529433E+03 -0.12461809292E+04  0.26447134882E+04  0.31623056873E+04  0.95000000000E+03 0.  0.
   -2000013    1    1    2    0    0 -0.74175529433E+03  0.12461809292E+04 -0.11548103767E+04  0.20830878116E+04  0.95000000000E+03 0.  0.
<mgrwt>
<rscale>  0 0.50293480E+04</rscale>
<asrwt>0</asrwt>
<pdfrwt beam="1">  1        2 0.51809974E+00 0.50293480E+04</pdfrwt>
<pdfrwt beam="2">  1       -2 0.28888388E+00 0.50293480E+04</pdfrwt>
<totfact> 0.27037918E-02</totfact>
</mgrwt>
</event>
<event>
 4    1  0.2069825E-008  0.2863389E+04  0.7816531E-02  0.8283854E-01
          2   -1    0    0  501    0  0.00000000000E+00  0.00000000000E+00  0.23301237267E+04  0.23301237267E+04  0.00000000000E+00 0.  1.
         -2   -1    0    0    0  501 -0.00000000000E+00 -0.00000000000E+00 -0.87967410349E+03  0.87967410349E+03  0.00000000000E+00 0. -1.
    2000013    1    1    2    0    0 -0.96200516814E+03  0.43452475848E+03  0.92881065425E+03  0.16968956776E+04  0.95000000000E+03 0.  0.
   -2000013    1    1    2    0    0  0.96200516814E+03 -0.43452475848E+03  0.52163896891E+03  0.15129021525E+04  0.95000000000E+03 0.  0.
<mgrwt>
<rscale>  0 0.28633893E+04</rscale>
<asrwt>0</asrwt>
<pdfrwt beam="1">  1        2 0.35848057E+00 0.28633893E+04</pdfrwt>
<pdfrwt beam="2">  1       -2 0.13533448E+00 0.28633893E+04</pdfrwt>
<totfact> 0.14788482E+00</totfact>
</mgrwt>
</event>
<event>
 4    1  0.2069825E-008  0.2941429E+04  0.7816531E-02  0.8260657E-01
          2   -1    0    0  501    0  0.00000000000E+00  0.00000000000E+00  0.39976218077E+04  0.39976218077E+04  0.00000000000E+00 0.  1.
         -2   -1    0    0    0  501 -0.00000000000E+00 -0.00000000000E+00 -0.54107212450E+03  0.54107212450E+03  0.00000000000E+00 0. -1.
    2000013    1    1    2    0    0 -0.11213802154E+04  0.54794061648E+02  0.17319741502E+04  0.22721642621E+04  0.95000000000E+03 0.  0.
   -2000013    1    1    2    0    0  0.11213802154E+04 -0.54794061648E+02  0.17245755330E+04  0.22665296702E+04  0.95000000000E+03 0.  0.
<mgrwt>
<rscale>  0 0.29414294E+04</rscale>
<asrwt>0</asrwt>
<pdfrwt beam="1">  1        2 0.61501872E+00 0.29414294E+04</pdfrwt>
<pdfrwt beam="2">  1       -2 0.83241868E-01 0.29414294E+04</pdfrwt>
<totfact> 0.37339615E-01</totfact>
</mgrwt>
</event>
<event>
 4    1  0.2069825E-008  0.2771288E+04  0.7816531E-02  0.8312238E-01
          1   -1    0    0  501    0  0.00000000000E+00  0.00000000000E+00  0.15428385624E+04  0.15428385624E+04  0.00000000000E+00 0.  1.
         -1   -1    0    0    0  501 -0.00000000000E+00 -0.00000000000E+00 -0.12444652219E+04  0.12444652219E+04  0.00000000000E+00 0. -1.
    2000013    1    1    2    0    0 -0.60835813429E+03  0.76171365901E+03 -0.11154425282E+03  0.13657413511E+04  0.95000000000E+03 0.  0.
   -2000013    1    1    2    0    0  0.60835813429E+03 -0.76171365901E+03  0.40991759337E+03  0.14215624331E+04  0.95000000000E+03 0.  0.
<mgrwt>
<rscale>  0 0.27712877E+04</rscale>
<asrwt>0</asrwt>
<pdfrwt beam="1">  1        1 0.23735978E+00 0.27712877E+04</pdfrwt>
<pdfrwt beam="2">  1       -1 0.19145619E+00 0.27712877E+04</pdfrwt>
<totfact> 0.91520147E-01</totfact>
</mgrwt>
</event>
<event>
 4    1  0.2069825E-008  0.3112813E+04  0.7816531E-02  0.8212230E-01
         -2   -1    0    0    0  501 -0.00000000000E+00  0.00000000000E+00  0.19666435561E+04  0.19666435561E+04  0.00000000000E+00 0. -1.
          2   -1    0    0  501    0  0.00000000000E+00 -0.00000000000E+00 -0.12317440908E+04  0.12317440908E+04  0.00000000000E+00 0.  1.
    2000013    1    1    2    0    0 -0.11967299931E+04 -0.29147817806E+03  0.31328064176E+03  0.15867472909E+04  0.95000000000E+03 0.  0.
   -2000013    1    1    2    0    0  0.11967299931E+04  0.29147817806E+03  0.42161882356E+03  0.16116403560E+04  0.95000000000E+03 0.  0.
<mgrwt>
<rscale>  0 0.31128132E+04</rscale>
<asrwt>0</asrwt>
<pdfrwt beam="2">  1        2 0.18949909E+00 0.31128132E+04</pdfrwt>
<pdfrwt beam="1">  1       -2 0.30256055E+00 0.31128132E+04</pdfrwt>
<totfact> 0.47142480E-01</totfact>
</mgrwt>
</event>
<event>
 4    1  0.2069825E-008  0.2249673E+04  0.7816531E-02  0.8498033E-01
         -2   -1    0    0    0  501 -0.00000000000E+00  0.00000000000E+00  0.35557031540E+03  0.35557031540E+03  0.00000000000E+00 0. -1.
          2   -1    0    0  501    0  0.00000000000E+00 -0.00000000000E+00 -0.35583892401E+04  0.35583892401E+04  0.00000000000E+00 0.  1.
    2000013    1    1    2    0    0 -0.48221546136E+03  0.35516176840E+03 -0.14901995581E+04  0.18659759794E+04  0.95000000000E+03 0.  0.
   -2000013    1    1    2    0    0  0.48221546136E+03 -0.35516176840E+03 -0.17126193666E+04  0.20479835761E+04  0.95000000000E+03 0.  0.
<mgrwt>
<rscale>  0 0.22496734E+04</rscale>
<asrwt>0</asrwt>
<pdfrwt beam="2">  1        2 0.54744450E+00 0.22496734E+04</pdfrwt>
<pdfrwt beam="1">  1       -2 0.54703125E-01 0.22496734E+04</pdfrwt>
<totfact> 0.21234868E+00</totfact>
</mgrwt>
</event>
<event>
 4    1  0.2069825E-008  0.4165395E+04  0.7816531E-02  0.7971988E-01
          2   -1    0    0  501    0  0.00000000000E+00  0.00000000000E+00  0.11438777127E+04  0.11438777127E+04  0.00000000000E+00 0.  1.
         -2   -1    0    0    0  501 -0.00000000000E+00 -0.00000000000E+00 -0.37920383835E+04  0.37920383835E+04  0.00000000000E+00 0. -1.
    2000013    1    1    2    0    0  0.15578502301E+04 -0.66266569292E+03 -0.43014145908E+03  0.19883522914E+04  0.95000000000E+03 0.  0.
   -2000013    1    1    2    0    0 -0.15578502301E+04  0.66266569292E+03 -0.22180192117E+04  0.29475638048E+04  0.95000000000E+03 0.  0.
<mgrwt>
<rscale>  0 0.41653947E+04</rscale>
<asrwt>0</asrwt>
<pdfrwt beam="1">  1        2 0.17598118E+00 0.41653947E+04</pdfrwt>
<pdfrwt beam="2">  1       -2 0.58339053E+00 0.41653947E+04</pdfrwt>
<totfact> 0.94823889E-03</totfact>
</mgrwt>
</event>
<event>
 4    1  0.2069825E-008  0.2473351E+04  0.7816531E-02  0.8412541E-01
          2   -1    0    0  501    0  0.00000000000E+00  0.00000000000E+00  0.22384963912E+04  0.22384963912E+04  0.00000000000E+00 0.  1.
         -2   -1    0    0    0  501 -0.00000000000E+00 -0.00000000000E+00 -0.68321155437E+03  0.68321155437E+03  0.00000000000E+00 0. -1.
    2000013    1    1    2    0    0 -0.61000908057E+03 -0.42015276667E+03  0.44725018949E+03  0.12849794386E+04  0.95000000000E+03 0.  0.
   -2000013    1    1    2    0    0  0.61000908057E+03  0.42015276667E+03  0.11080346473E+04  0.16367285069E+04  0.95000000000E+03 0.  0.
<mgrwt>
<rscale>  0 0.24733512E+04</rscale>
<asrwt>0</asrwt>
<pdfrwt beam="1">  1        2 0.34438406E+00 0.24733512E+04</pdfrwt>
<pdfrwt beam="2">  1       -2 0.10510947E+00 0.24733512E+04</pdfrwt>
<totfact> 0.32189417E+00</totfact>
</mgrwt>
</event>
<event>
 4    1  0.2069825E-008  0.2268398E+04  0.7816531E-02  0.8490486E-01
          1   -1    0    0  501    0  0.00000000000E+00  0.00000000000E+00  0.26450668366E+04  0.26450668366E+04  0.00000000000E+00 0. -1.
         -1   -1    0    0    0  501 -0.00000000000E+00 -0.00000000000E+00 -0.48634218638E+03  0.48634218638E+03  0.00000000000E+00 0.  1.
    2000013    1    1    2    0    0  0.58125675042E+03 -0.21355811254E+03  0.10503692364E+04  0.15457173125E+04  0.95000000000E+03 0.  0.
   -2000013    1    1    2    0    0 -0.58125675042E+03  0.21355811254E+03  0.11083554138E+04  0.15856917104E+04  0.95000000000E+03 0.  0.
<mgrwt>
<rscale>  0 0.22683982E+04</rscale>
<asrwt>0</asrwt>
<pdfrwt beam="1">  1        1 0.40693335E+00 0.22683982E+04</pdfrwt>
<pdfrwt beam="2">  1       -1 0.74821876E-01 0.22683982E+04</pdfrwt>
<totfact> 0.17473171E+00</totfact>
</mgrwt>
</event>
<event>
 4    1  0.2069825E-008  0.2799701E+04  0.7816531E-02  0.8303361E-01
          2   -1    0    0  501    0  0.00000000000E+00  0.00000000000E+00  0.22813399321E+04  0.22813399321E+04  0.00000000000E+00 0.  1.
         -2   -1    0    0    0  501 -0.00000000000E+00 -0.00000000000E+00 -0.85896052493E+03  0.85896052493E+03  0.00000000000E+00 0. -1.
    2000013    1    1    2    0    0  0.61660640092E+03  0.42434736632E+03  0.15017834426E+04  0.19282447068E+04  0.95000000000E+03 0.  0.
   -2000013    1    1    2    0    0 -0.61660640092E+03 -0.42434736632E+03 -0.79404035349E+02  0.12120557503E+04  0.95000000000E+03 0.  0.
<mgrwt>
<rscale>  0 0.27997007E+04</rscale>
<asrwt>0</asrwt>
<pdfrwt beam="1">  1        2 0.35097537E+00 0.27997007E+04</pdfrwt>
<pdfrwt beam="2">  1       -2 0.13214777E+00 0.27997007E+04</pdfrwt>
<totfact> 0.16838859E+00</totfact>
</mgrwt>
</event>
<event>
 4    1  0.2069825E-008  0.2464966E+04  0.7816531E-02  0.8415574E-01
         -2   -1    0    0    0  501 -0.00000000000E+00  0.00000000000E+00  0.15477876892E+04  0.15477876892E+04  0.00000000000E+00 0. -1.
          2   -1    0    0  501    0  0.00000000000E+00 -0.00000000000E+00 -0.98140971124E+03  0.98140971124E+03  0.00000000000E+00 0.  1.
    2000013    1    1    2    0    0 -0.61572935259E+03 -0.46376003982E+03  0.12990452977E+03  0.12302728141E+04  0.95000000000E+03 0.  0.
   -2000013    1    1    2    0    0  0.61572935259E+03  0.46376003982E+03  0.43647344823E+03  0.12989245864E+04  0.95000000000E+03 0.  0.
<mgrwt>
<rscale>  0 0.24649656E+04</rscale>
<asrwt>0</asrwt>
<pdfrwt beam="2">  1        2 0.15098611E+00 0.24649656E+04</pdfrwt>
<pdfrwt beam="1">  1       -2 0.23812118E+00 0.24649656E+04</pdfrwt>
<totfact> 0.17621056E+00</totfact>
</mgrwt>
</event>
<event>
 4    1  0.2069825E-008  0.3491983E+04  0.7816531E-02  0.8115692E-01
          2   -1    0    0  501    0  0.00000000000E+00  0.00000000000E+00  0.21971215009E+04  0.21971215009E+04  0.00000000000E+00 0. -1.
         -2   -1    0    0    0  501 -0.00000000000E+00 -0.00000000000E+00 -0.13874910441E+04  0.13874910441E+04  0.00000000000E+00 0.  1.
    2000013    1    1    2    0    0  0.98770543411E+03  0.74805964928E+03  0.12071039344E+04  0.19735134081E+04  0.95000000000E+03 0.  0.
   -2000013    1    1    2    0    0 -0.98770543411E+03 -0.74805964928E+03 -0.39747347757E+03  0.16110991369E+04  0.95000000000E+03 0.  0.
<mgrwt>
<rscale>  0 0.34919830E+04</rscale>
<asrwt>0</asrwt>
<pdfrwt beam="1">  1        2 0.33801869E+00 0.34919830E+04</pdfrwt>
<pdfrwt beam="2">  1       -2 0.21346016E+00 0.34919830E+04</pdfrwt>
<totfact> 0.46366700E-01</totfact>
</mgrwt>
</event>
<event>
 4    1  0.2069825E-008  0.2147815E+04  0.7816531E-02  0.8540468E-01
          2   -1    0    0  501    0  0.00000000000E+00  0.00000000000E+00  0.10273535279E+04  0.10273535279E+04  0.00000000000E+00 0.  1.
         -2   -1    0    0    0  501 -0.00000000000E+00 -0.00000000000E+00 -0.11225707166E+04  0.11225707166E+04  0.00000000000E+00 0. -1.
    2000013    1    1    2    0    0 -0.49467227556E+03 -0.70343862351E+02 -0.81228289596E+02  0.10764510923E+04  0.95000000000E+03 0.  0.
   -2000013    1    1    2    0    0  0.49467227556E+03  0.70343862351E+02 -0.13988899151E+02  0.10734731522E+04  0.95000000000E+03 0.  0.
<mgrwt>
<rscale>  0 0.21478147E+04</rscale>
<asrwt>0</asrwt>
<pdfrwt beam="1">  1        2 0.15805439E+00 0.21478147E+04</pdfrwt>
<pdfrwt beam="2">  1       -2 0.17270319E+00 0.21478147E+04</pdfrwt>
<totfact> 0.45284774E+00</totfact>
</mgrwt>
</event>
<event>
 4    1  0.2069825E-008  0.2187596E+04  0.7816531E-02  0.8523609E-01
         -2   -1    0    0    0  501 -0.00000000000E+00  0.00000000000E+00  0.60432208401E+03  0.60432208401E+03  0.00000000000E+00 0. -1.
          2   -1    0    0  501    0  0.00000000000E+00 -0.00000000000E+00 -0.19797286467E+04  0.19797286467E+04  0.00000000000E+00 0.  1.
    2000013    1    1    2    0    0 -0.34312624918E+03  0.35840464512E+03 -0.42970761304E+03  0.11547026220E+04  0.95000000000E+03 0.  0.
   -2000013    1    1    2    0    0  0.34312624918E+03 -0.35840464512E+03 -0.94569894961E+03  0.14293481087E+04  0.95000000000E+03 0.  0.
<mgrwt>
<rscale>  0 0.21875957E+04</rscale>
<asrwt>0</asrwt>
<pdfrwt beam="2">  1        2 0.30457364E+00 0.21875957E+04</pdfrwt>
<pdfrwt beam="1">  1       -2 0.92972626E-01 0.21875957E+04</pdfrwt>
<totfact> 0.61487431E+00</totfact>
</mgrwt>
</event>
<event>
 4    1  0.2069825E-008  0.3348681E+04  0.7816531E-02  0.8150618E-01
          2   -1    0    0  501    0  0.00000000000E+00  0.00000000000E+00  0.37035092425E+04  0.37035092425E+04  0.00000000000E+00 0.  1.
         -2   -1    0    0    0  501 -0.00000000000E+00 -0.00000000000E+00 -0.75696188823E+03  0.75696188823E+03  0.00000000000E+00 0. -1.
    2000013    1    1    2    0    0  0.11104234826E+04  0.78828930201E+03  0.17604289419E+04  0.24199277662E+04  0.95000000000E+03 0.  0.
   -2000013    1    1    2    0    0 -0.11104234826E+04 -0.78828930201E+03  0.11861184124E+04  0.20405433646E+04  0.95000000000E+03 0.  0.
<mgrwt>
<rscale>  0 0.33486805E+04</rscale>
<asrwt>0</asrwt>
<pdfrwt beam="1">  1        2 0.56977064E+00 0.33486805E+04</pdfrwt>
<pdfrwt beam="2">  1       -2 0.11645568E+00 0.33486805E+04</pdfrwt>
<totfact> 0.27550052E-01</totfact>
</mgrwt>
</event>
<event>
 4    1  0.2069825E-008  0.2201286E+04  0.7816531E-02  0.8517893E-01
          2   -1    0    0  501    0  0.00000000000E+00  0.00000000000E+00  0.86729310027E+03  0.86729310027E+03  0.00000000000E+00 0.  1.
         -2   -1    0    0    0  501 -0.00000000000E+00 -0.00000000000E+00 -0.13967766626E+04  0.13967766626E+04  0.00000000000E+00 0. -1.
    2000013    1    1    2    0    0  0.34283883530E+03 -0.43028622785E+03 -0.34592371567E+03  0.11510203829E+04  0.95000000000E+03 0.  0.
   -2000013    1    1    2    0    0 -0.34283883530E+03  0.43028622785E+03 -0.18355984666E+03  0.11130493799E+04  0.95000000000E+03 0.  0.
<mgrwt>
<rscale>  0 0.22012858E+04</rscale>
<asrwt>0</asrwt>
<pdfrwt beam="1">  1        2 0.13342971E+00 0.22012858E+04</pdfrwt>
<pdfrwt beam="2">  1       -2 0.21488871E+00 0.22012858E+04</pdfrwt>
<totfact> 0.30045999E+00</totfact>
</mgrwt>
</event>
<event>
 4    1  0.2069825E-008  0.2575630E+04  0.7816531E-02  0.8376527E-01
          1   -1    0    0  501    0  0.00000000000E+00  0.00000000000E+00  0.10033399506E+04  0.10033399506E+04  0.00000000000E+00 0. -1.
         -1   -1    0    0    0  501 -0.00000000000E+00 -0.00000000000E+00 -0.16529467850E+04  0.16529467850E+04  0.00000000000E+00 0.  1.
    2000013    1    1    2    0    0 -0.83149030343E+03  0.17525881453E+03 -0.13498600446E+03  0.12817226682E+04  0.95000000000E+03 0.  0.
   -2000013    1    1    2    0    0  0.83149030343E+03 -0.17525881453E+03 -0.51462083000E+03  0.13745640674E+04  0.95000000000E+03 0.  0.
<mgrwt>
<rscale>  0 0.25756301E+04</rscale>
<asrwt>0</asrwt>
<pdfrwt beam="1">  1        1 0.15435999E+00 0.25756301E+04</pdfrwt>
<pdfrwt beam="2">  1       -1 0.25429950E+00 0.25756301E+04</pdfrwt>
<totfact> 0.86751947E-01</totfact>
</mgrwt>
</event>
<event>
 4    1  0.2069825E-008  0.2432142E+04  0.7816531E-02  0.8427567E-01
          2   -1    0    0  501    0  0.00000000000E+00  0.00000000000E+00  0.35526758763E+04  0.35526758763E+04  0.00000000000E+00 0.  1.
         -2   -1    0    0    0  501 -0.00000000000E+00 -0.00000000000E+00 -0.41625783256E+03  0.41625783256E+03  0.00000000000E+00 0. -1.
    2000013    1    1    2    0    0 -0.16802900062E+03  0.68210041877E+03  0.10985417473E+04  0.16133160561E+04  0.95000000000E+03 0.  0.
   -2000013    1    1    2    0    0  0.16802900062E+03 -0.68210041877E+03  0.20378762964E+04  0.23556176527E+04  0.95000000000E+03 0.  0.
<mgrwt>
<rscale>  0 0.24321424E+04</rscale>
<asrwt>0</asrwt>
<pdfrwt beam="1">  1        2 0.54656550E+00 0.24321424E+04</pdfrwt>
<pdfrwt beam="2">  1       -2 0.64039669E-01 0.24321424E+04</pdfrwt>
<totfact> 0.15117165E+00</totfact>
</mgrwt>
</event>
<event>
 4    1  0.2069825E-008  0.2771883E+04  0.7816531E-02  0.8312051E-01
         -2   -1    0    0    0  501 -0.00000000000E+00  0.00000000000E+00  0.18963079159E+04  0.18963079159E+04  0.00000000000E+00 0. -1.
          2   -1    0    0  501    0  0.00000000000E+00 -0.00000000000E+00 -0.10129332533E+04  0.10129332533E+04  0.00000000000E+00 0.  1.
    2000013    1    1    2    0    0 -0.56264909381E+03 -0.79252874909E+03  0.72653551105E+03  0.15411131268E+04  0.95000000000E+03 0.  0.
   -2000013    1    1    2    0    0  0.56264909381E+03  0.79252874909E+03  0.15683915150E+03  0.13681280424E+04  0.95000000000E+03 0.  0.
<mgrwt>
<rscale>  0 0.27718826E+04</rscale>
<asrwt>0</asrwt>
<pdfrwt beam="2">  1        2 0.15583589E+00 0.27718826E+04</pdfrwt>
<pdfrwt beam="1">  1       -2 0.29173968E+00 0.27718826E+04</pdfrwt>
<totfact> 0.76952108E-01</totfact>
</mgrwt>
</event>
<event>
 4    1  0.2069825E-008  0.2967042E+04  0.7816531E-02  0.8253205E-01
          2   -1    0    0  501    0  0.00000000000E+00  0.00000000000E+00  0.21002073340E+04  0.21002073340E+04  0.00000000000E+00 0.  1.
         -2   -1    0    0    0  501 -0.00000000000E+00 -0.00000000000E+00 -0.10479127317E+04  0.10479127317E+04  0.00000000000E+00 0. -1.
    2000013    1    1    2    0    0  0.15838906760E+03  0.10695999293E+04  0.90753244970E+03  0.17015423159E+04  0.95000000000E+03 0.  0.
   -2000013    1    1    2    0    0 -0.15838906760E+03 -0.10695999293E+04  0.14476215254E+03  0.14465777498E+04  0.95000000000E+03 0.  0.
<mgrwt>
<rscale>  0 0.29670416E+04</rscale>
<asrwt>0</asrwt>
<pdfrwt beam="1">  1        2 0.32310882E+00 0.29670416E+04</pdfrwt>
<pdfrwt beam="2">  1       -2 0.16121734E+00 0.29670416E+04</pdfrwt>
<totfact> 0.12441049E+00</totfact>
</mgrwt>
</event>
<event>
 4    1  0.2069825E-008  0.3126702E+04  0.7816531E-02  0.8208448E-01
         -2   -1    0    0    0  501 -0.00000000000E+00  0.00000000000E+00  0.97972017448E+03  0.97972017448E+03  0.00000000000E+00 0. -1.
          2   -1    0    0  501    0  0.00000000000E+00 -0.00000000000E+00 -0.24946572697E+04  0.24946572697E+04  0.00000000000E+00 0.  1.
    2000013    1    1    2    0    0 -0.75059158650E+03  0.83151854640E+03 -0.16242848399E+03  0.14777326670E+04  0.95000000000E+03 0.  0.
   -2000013    1    1    2    0    0  0.75059158650E+03 -0.83151854640E+03 -0.13525086112E+04  0.19966447772E+04  0.95000000000E+03 0.  0.
<mgrwt>
<rscale>  0 0.31267018E+04</rscale>
<asrwt>0</asrwt>
<pdfrwt beam="2">  1        2 0.38379342E+00 0.31267018E+04</pdfrwt>
<pdfrwt beam="1">  1       -2 0.15072618E+00 0.31267018E+04</pdfrwt>
<totfact> 0.87839972E-01</totfact>
</mgrwt>
</event>
<event>
 4    1  0.2069825E-008  0.2615739E+04  0.7816531E-02  0.8362875E-01
         -2   -1    0    0    0  501 -0.00000000000E+00  0.00000000000E+00  0.91969360829E+03  0.91969360829E+03  0.00000000000E+00 0. -1.
          2   -1    0    0  501    0  0.00000000000E+00 -0.00000000000E+00 -0.18598826847E+04  0.18598826847E+04  0.00000000000E+00 0.  1.
    2000013    1    1    2    0    0 -0.50477874713E+03  0.74304118851E+03 -0.50550479153E+03  0.14017656315E+04  0.95000000000E+03 0.  0.
   -2000013    1    1    2    0    0  0.50477874713E+03 -0.74304118851E+03 -0.43468428485E+03  0.13778106615E+04  0.95000000000E+03 0.  0.
<mgrwt>
<rscale>  0 0.26157387E+04</rscale>
<asrwt>0</asrwt>
<pdfrwt beam="2">  1        2 0.28613579E+00 0.26157387E+04</pdfrwt>
<pdfrwt beam="1">  1       -2 0.14149133E+00 0.26157387E+04</pdfrwt>
<totfact> 0.24672995E+00</totfact>
</mgrwt>
</event>
<event>
 4    1  0.2069825E-008  0.2532196E+04  0.7816531E-02  0.8391604E-01
          4   -1    0    0  501    0  0.00000000000E+00  0.00000000000E+00  0.18360488198E+04  0.18360488198E+04  0.00000000000E+00 0.  1.
         -4   -1    0    0    0  501 -0.00000000000E+00 -0.00000000000E+00 -0.87307278359E+03  0.87307278359E+03  0.00000000000E+00 0. -1.
    2000013    1    1    2    0    0 -0.92551091395E+02 -0.40916380422E+03  0.12563309118E+04  0.16299840745E+04  0.95000000000E+03 0.  0.
   -2000013    1    1    2    0    0  0.92551091395E+02  0.40916380422E+03 -0.29335487559E+03  0.10791375289E+04  0.95000000000E+03 0.  0.
<mgrwt>
<rscale>  0 0.25321961E+04</rscale>
<asrwt>0</asrwt>
<pdfrwt beam="1">  1        4 0.28246905E+00 0.25321961E+04</pdfrwt>
<pdfrwt beam="2">  1       -4 0.13431889E+00 0.25321961E+04</pdfrwt>
<totfact> 0.28034260E-02</totfact>
</mgrwt>
</event>
<event>
 4    1  0.2069825E-008  0.3195240E+04  0.7816531E-02  0.8190075E-01
          2   -1    0    0  501    0  0.00000000000E+00  0.00000000000E+00  0.71658302667E+03  0.71658302667E+03  0.00000000000E+00 0.  1.
         -2   -1    0    0    0  501 -0.00000000000E+00 -0.00000000000E+00 -0.35618900890E+04  0.35618900890E+04  0.00000000000E+00 0. -1.
    2000013    1    1    2    0    0  0.61929642112E+03 -0.89648000496E+03 -0.51184256221E+03  0.15335211981E+04  0.95000000000E+03 0.  0.
   -2000013    1    1    2    0    0 -0.61929642112E+03  0.89648000496E+03 -0.23334645001E+04  0.27449519176E+04  0.95000000000E+03 0.  0.
<mgrwt>
<rscale>  0 0.31952402E+04</rscale>
<asrwt>0</asrwt>
<pdfrwt beam="1">  1        2 0.11024354E+00 0.31952402E+04</pdfrwt>
<pdfrwt beam="2">  1       -2 0.54798308E+00 0.31952402E+04</pdfrwt>
<totfact> 0.29118819E-02</totfact>
</mgrwt>
</event>
<event>
 4    1  0.2069825E-008  0.2853605E+04  0.7816531E-02  0.8286817E-01
         -2   -1    0    0    0  501 -0.00000000000E+00  0.00000000000E+00  0.12650880401E+04  0.12650880401E+04  0.00000000000E+00 0. -1.
          2   -1    0    0  501    0  0.00000000000E+00 -0.00000000000E+00 -0.16091887837E+04  0.16091887837E+04  0.00000000000E+00 0.  1.
    2000013    1    1    2    0    0 -0.47810299335E+03 -0.85864504013E+03 -0.58417411589E+03  0.14864767657E+04  0.95000000000E+03 0.  0.
   -2000013    1    1    2    0    0  0.47810299335E+03  0.85864504013E+03  0.24007337224E+03  0.13878000581E+04  0.95000000000E+03 0.  0.
<mgrwt>
<rscale>  0 0.28536051E+04</rscale>
<asrwt>0</asrwt>
<pdfrwt beam="2">  1        2 0.24756751E+00 0.28536051E+04</pdfrwt>
<pdfrwt beam="1">  1       -2 0.19462893E+00 0.28536051E+04</pdfrwt>
<totfact> 0.13782518E+00</totfact>
</mgrwt>
</event>
<event>
 4    1  0.2069825E-008  0.2655764E+04  0.7816531E-02  0.8349502E-01
          2   -1    0    0  501    0  0.00000000000E+00  0.00000000000E+00  0.17513740425E+04  0.17513740425E+04  0.00000000000E+00 0.  1.
         -2   -1    0    0    0  501 -0.00000000000E+00 -0.00000000000E+00 -0.10067925432E+04  0.10067925432E+04  0.00000000000E+00 0. -1.
    2000013    1    1    2    0    0 -0.37580892090E+03 -0.68691296582E+03 -0.14458245771E+03  0.12395506665E+04  0.95000000000E+03 0.  0.
   -2000013    1    1    2    0    0  0.37580892090E+03  0.68691296582E+03  0.88916395701E+03  0.15186159192E+04  0.95000000000E+03 0.  0.
<mgrwt>
<rscale>  0 0.26557638E+04</rscale>
<asrwt>0</asrwt>
<pdfrwt beam="1">  1        2 0.26944216E+00 0.26557638E+04</pdfrwt>
<pdfrwt beam="2">  1       -2 0.15489116E+00 0.26557638E+04</pdfrwt>
<totfact> 0.22240918E+00</totfact>
</mgrwt>
</event>
<event>
 4    1  0.2069825E-008  0.3501351E+04  0.7816531E-02  0.8113470E-01
          2   -1    0    0  501    0  0.00000000000E+00  0.00000000000E+00  0.20664136198E+04  0.20664136198E+04  0.00000000000E+00 0.  1.
         -2   -1    0    0    0  501 -0.00000000000E+00 -0.00000000000E+00 -0.14831805979E+04  0.14831805979E+04  0.00000000000E+00 0. -1.
    2000013    1    1    2    0    0 -0.86670907530E+03 -0.28138239823E+02 -0.91234443856E+03  0.15769745579E+04  0.95000000000E+03 0.  0.
   -2000013    1    1    2    0    0  0.86670907530E+03  0.28138239823E+02  0.14955774604E+04  0.19726196597E+04  0.95000000000E+03 0.  0.
<mgrwt>
<rscale>  0 0.35013509E+04</rscale>
<asrwt>0</asrwt>
<pdfrwt beam="1">  1        2 0.31790979E+00 0.35013509E+04</pdfrwt>
<pdfrwt beam="2">  1       -2 0.22818163E+00 0.35013509E+04</pdfrwt>
<totfact> 0.44248004E-01</totfact>
</mgrwt>
</event>
<event>
 4    1  0.2069825E-008  0.2960714E+04  0.7816531E-02  0.8255039E-01
          2   -1    0    0  501    0  0.00000000000E+00  0.00000000000E+00  0.12006914390E+04  0.12006914390E+04  0.00000000000E+00 0.  1.
         -2   -1    0    0    0  501 -0.00000000000E+00 -0.00000000000E+00 -0.18251618681E+04  0.18251618681E+04  0.00000000000E+00 0. -1.
    2000013    1    1    2    0    0  0.25854390678E+03 -0.97188602255E+03  0.22618478051E+03  0.14018084561E+04  0.95000000000E+03 0.  0.
   -2000013    1    1    2    0    0 -0.25854390678E+03  0.97188602255E+03 -0.85065520964E+03  0.16240448511E+04  0.95000000000E+03 0.  0.
<mgrwt>
<rscale>  0 0.29607136E+04</rscale>
<asrwt>0</asrwt>
<pdfrwt beam="1">  1        2 0.18472176E+00 0.29607136E+04</pdfrwt>
<pdfrwt beam="2">  1       -2 0.28079413E+00 0.29607136E+04</pdfrwt>
<totfact> 0.67673458E-01</totfact>
</mgrwt>
</event>
<event>
 4    1  0.2069825E-008  0.2739722E+04  0.7816531E-02  0.8322230E-01
         -2   -1    0    0    0  501 -0.00000000000E+00  0.00000000000E+00  0.98338595130E+03  0.98338595130E+03  0.00000000000E+00 0. -1.
          2   -1    0    0  501    0  0.00000000000E+00 -0.00000000000E+00 -0.19082225443E+04  0.19082225443E+04  0.00000000000E+00 0.  1.
    2000013    1    1    2    0    0 -0.62179878571E+03  0.66674839457E+03 -0.63534971279E+02  0.13182275388E+04  0.95000000000E+03 0.  0.
   -2000013    1    1    2    0    0  0.62179878571E+03 -0.66674839457E+03 -0.86130162175E+03  0.15733809568E+04  0.95000000000E+03 0.  0.
<mgrwt>
<rscale>  0 0.27397221E+04</rscale>
<asrwt>0</asrwt>
<pdfrwt beam="2">  1        2 0.29357270E+00 0.27397221E+04</pdfrwt>
<pdfrwt beam="1">  1       -2 0.15129015E+00 0.27397221E+04</pdfrwt>
<totfact> 0.19246071E+00</totfact>
</mgrwt>
</event>
<event>
 4    1  0.2069825E-008  0.3277489E+04  0.7816531E-02  0.8168647E-01
         -2   -1    0    0    0  501 -0.00000000000E+00  0.00000000000E+00  0.15400468858E+04  0.15400468858E+04  0.00000000000E+00 0. -1.
          2   -1    0    0  501    0  0.00000000000E+00 -0.00000000000E+00 -0.17437674572E+04  0.17437674572E+04  0.00000000000E+00 0.  1.
    2000013    1    1    2    0    0  0.81282964619E+03 -0.10321191134E+04 -0.34111339573E+03  0.16567499047E+04  0.95000000000E+03 0.  0.
   -2000013    1    1    2    0    0 -0.81282964619E+03  0.10321191134E+04  0.13739282430E+03  0.16270644382E+04  0.95000000000E+03 0.  0.
<mgrwt>
<rscale>  0 0.32774891E+04</rscale>
<asrwt>0</asrwt>
<pdfrwt beam="2">  1        2 0.26827192E+00 0.32774891E+04</pdfrwt>
<pdfrwt beam="1">  1       -2 0.23693029E+00 0.32774891E+04</pdfrwt>
<totfact> 0.60051938E-01</totfact>
</mgrwt>
</event>
<event>
 4    1  0.2069825E-008  0.2736942E+04  0.7816531E-02  0.8323117E-01
         -2   -1    0    0    0  501 -0.00000000000E+00  0.00000000000E+00  0.14144542663E+04  0.14144542663E+04  0.00000000000E+00 0. -1.
          2   -1    0    0  501    0  0.00000000000E+00 -0.00000000000E+00 -0.13239828308E+04  0.13239828308E+04  0.00000000000E+00 0.  1.
    2000013    1    1    2    0    0 -0.21831953433E+03 -0.88459234432E+03 -0.32919605707E+03  0.13568482151E+04  0.95000000000E+03 0.  0.
   -2000013    1    1    2    0    0  0.21831953433E+03  0.88459234432E+03  0.41966749256E+03  0.13815888821E+04  0.95000000000E+03 0.  0.
<mgrwt>
<rscale>  0 0.27369422E+04</rscale>
<asrwt>0</asrwt>
<pdfrwt beam="2">  1        2 0.20368966E+00 0.27369422E+04</pdfrwt>
<pdfrwt beam="1">  1       -2 0.21760835E+00 0.27369422E+04</pdfrwt>
<totfact> 0.14331638E+00</totfact>
</mgrwt>
</event>
<event>
 4    1  0.2069825E-008  0.2167786E+04  0.7816531E-02  0.8531957E-01
         -2   -1    0    0    0  501 -0.00000000000E+00  0.00000000000E+00  0.11871899213E+04  0.11871899213E+04  0.00000000000E+00 0. -1.
          2   -1    0    0  501    0  0.00000000000E+00 -0.00000000000E+00 -0.98958395881E+03  0.98958395881E+03  0.00000000000E+00 0.  1.
    2000013    1    1    2    0    0  0.47628753603E+03 -0.56828150578E+02 -0.10758469729E+03  0.10696512155E+04  0.95000000000E+03 0.  0.
   -2000013    1    1    2    0    0 -0.47628753603E+03  0.56828150578E+02  0.30519065975E+03  0.11071226646E+04  0.95000000000E+03 0.  0.
<mgrwt>
<rscale>  0 0.21677861E+04</rscale>
<asrwt>0</asrwt>
<pdfrwt beam="2">  1        2 0.15224369E+00 0.21677861E+04</pdfrwt>
<pdfrwt beam="1">  1       -2 0.18264460E+00 0.21677861E+04</pdfrwt>
<totfact> 0.40755466E+00</totfact>
</mgrwt>
</event>
<event>
 4    1  0.2069825E-008  0.2413679E+04  0.7816531E-02  0.8434400E-01
         -1   -1    0    0    0  501 -0.00000000000E+00  0.00000000000E+00  0.49660321451E+03  0.49660321451E+03  0.00000000000E+00 0.  1.
          1   -1    0    0  501    0  0.00000000000E+00 -0.00000000000E+00 -0.29328486606E+04  0.29328486606E+04  0.00000000000E+00 0. -1.
    2000013    1    1    2    0    0 -0.18787679082E+02  0.73081978296E+03 -0.14165909121E+04  0.18557155882E+04  0.95000000000E+03 0.  0.
   -2000013    1    1    2    0    0  0.18787679082E+02 -0.73081978296E+03 -0.10196545340E+04  0.15737362869E+04  0.95000000000E+03 0.  0.
<mgrwt>
<rscale>  0 0.24136794E+04</rscale>
<asrwt>0</asrwt>
<pdfrwt beam="2">  1        1 0.45120748E+00 0.24136794E+04</pdfrwt>
<pdfrwt beam="1">  1       -1 0.76400495E-01 0.24136794E+04</pdfrwt>
<totfact> 0.10297377E+00</totfact>
</mgrwt>
</event>
<event>
 4    1  0.2069825E-008  0.2063841E+04  0.7816531E-02  0.8577341E-01
          1   -1    0    0  501    0  0.00000000000E+00  0.00000000000E+00  0.72574214762E+03  0.72574214762E+03  0.00000000000E+00 0. -1.
         -1   -1    0    0    0  501 -0.00000000000E+00 -0.00000000000E+00 -0.14672699403E+04  0.14672699403E+04  0.00000000000E+00 0.  1.
    2000013    1    1    2    0    0 -0.18559438027E+02 -0.39192586942E+03 -0.27332222780E+03  0.10635578875E+04  0.95000000000E+03 0.  0.
   -2000013    1    1    2    0    0  0.18559438027E+02  0.39192586942E+03 -0.46820556490E+03  0.11294542004E+04  0.95000000000E+03 0.  0.
<mgrwt>
<rscale>  0 0.20638407E+04</rscale>
<asrwt>0</asrwt>
<pdfrwt beam="1">  1        1 0.11165264E+00 0.20638407E+04</pdfrwt>
<pdfrwt beam="2">  1       -1 0.22573384E+00 0.20638407E+04</pdfrwt>
<totfact> 0.23957850E+00</totfact>
</mgrwt>
</event>
<event>
 4    1  0.2069825E-008  0.3377717E+04  0.7816531E-02  0.8143397E-01
         -2   -1    0    0    0  501 -0.00000000000E+00  0.00000000000E+00  0.17911313598E+04  0.17911313598E+04  0.00000000000E+00 0. -1.
          2   -1    0    0  501    0  0.00000000000E+00 -0.00000000000E+00 -0.15924252178E+04  0.15924252178E+04  0.00000000000E+00 0.  1.
    2000013    1    1    2    0    0 -0.10463378135E+04  0.89035594957E+03 -0.15044969656E+03  0.16771081206E+04  0.95000000000E+03 0.  0.
   -2000013    1    1    2    0    0  0.10463378135E+04 -0.89035594957E+03  0.34915583853E+03  0.17064484570E+04  0.95000000000E+03 0.  0.
<mgrwt>
<rscale>  0 0.33777168E+04</rscale>
<asrwt>0</asrwt>
<pdfrwt beam="2">  1        2 0.24498849E+00 0.33777168E+04</pdfrwt>
<pdfrwt beam="1">  1       -2 0.27555867E+00 0.33777168E+04</pdfrwt>
<totfact> 0.41892816E-01</totfact>
</mgrwt>
</event>
<event>
 4    1  0.2069825E-008  0.2487683E+04  0.7816531E-02  0.8407387E-01
          2   -1    0    0  501    0  0.00000000000E+00  0.00000000000E+00  0.91676897644E+03  0.91676897644E+03  0.00000000000E+00 0.  1.
         -2   -1    0    0    0  501 -0.00000000000E+00 -0.00000000000E+00 -0.16876028871E+04  0.16876028871E+04  0.00000000000E+00 0. -1.
    2000013    1    1    2    0    0  0.54534187315E+03  0.33276760603E+03  0.12371763977E+03  0.11514938526E+04  0.95000000000E+03 0.  0.
   -2000013    1    1    2    0    0 -0.54534187315E+03 -0.33276760603E+03 -0.89455155044E+03  0.14528780109E+04  0.95000000000E+03 0.  0.
<mgrwt>
<rscale>  0 0.24876832E+04</rscale>
<asrwt>0</asrwt>
<pdfrwt beam="1">  1        2 0.14104138E+00 0.24876832E+04</pdfrwt>
<pdfrwt beam="2">  1       -2 0.25963121E+00 0.24876832E+04</pdfrwt>
<totfact> 0.14302733E+00</totfact>
</mgrwt>
</event>
<event>
 4    1  0.2069825E-008  0.2363168E+04  0.7816531E-02  0.8453423E-01
         -2   -1    0    0    0  501 -0.00000000000E+00  0.00000000000E+00  0.31940181649E+03  0.31940181649E+03  0.00000000000E+00 0. -1.
          2   -1    0    0  501    0  0.00000000000E+00 -0.00000000000E+00 -0.43711100506E+04  0.43711100506E+04  0.00000000000E+00 0.  1.
    2000013    1    1    2    0    0  0.32150482627E+03  0.59248473183E+03 -0.24190178644E+04  0.26848744737E+04  0.95000000000E+03 0.  0.
   -2000013    1    1    2    0    0 -0.32150482627E+03 -0.59248473183E+03 -0.16326903697E+04  0.20056373934E+04  0.95000000000E+03 0.  0.
<mgrwt>
<rscale>  0 0.23631678E+04</rscale>
<asrwt>0</asrwt>
<pdfrwt beam="2">  1        2 0.67247842E+00 0.23631678E+04</pdfrwt>
<pdfrwt beam="1">  1       -2 0.49138744E-01 0.23631678E+04</pdfrwt>
<totfact> 0.58180762E-01</totfact>
</mgrwt>
</event>
<event>
 4    1  0.2069825E-008  0.2101445E+04  0.7816531E-02  0.8560607E-01
          2   -1    0    0  501    0  0.00000000000E+00  0.00000000000E+00  0.38109097310E+04  0.38109097310E+04  0.00000000000E+00 0.  1.
         -2   -1    0    0    0  501 -0.00000000000E+00 -0.00000000000E+00 -0.28969930409E+03  0.28969930409E+03  0.00000000000E+00 0. -1.
    2000013    1    1    2    0    0  0.40788885698E+03 -0.17520140071E+03  0.18907610916E+04  0.21620699239E+04  0.95000000000E+03 0.  0.
   -2000013    1    1    2    0    0 -0.40788885698E+03  0.17520140071E+03  0.16304493353E+04  0.19385391111E+04  0.95000000000E+03 0.  0.
<mgrwt>
<rscale>  0 0.21014451E+04</rscale>
<asrwt>0</asrwt>
<pdfrwt beam="1">  1        2 0.58629377E+00 0.21014451E+04</pdfrwt>
<pdfrwt beam="2">  1       -2 0.44569126E-01 0.21014451E+04</pdfrwt>
<totfact> 0.21344046E+00</totfact>
</mgrwt>
</event>
<event>
 4    1  0.2069825E-008  0.2623475E+04  0.7816531E-02  0.8360271E-01
          2   -1    0    0  501    0  0.00000000000E+00  0.00000000000E+00  0.13735528392E+04  0.13735528392E+04  0.00000000000E+00 0.  1.
         -2   -1    0    0    0  501 -0.00000000000E+00 -0.00000000000E+00 -0.12527044545E+04  0.12527044545E+04  0.00000000000E+00 0. -1.
    2000013    1    1    2    0    0  0.48314749448E+03 -0.55796030919E+03 -0.46301127919E+03  0.12890425333E+04  0.95000000000E+03 0.  0.
   -2000013    1    1    2    0    0 -0.48314749448E+03  0.55796030919E+03  0.58385966390E+03  0.13372147603E+04  0.95000000000E+03 0.  0.
<mgrwt>
<rscale>  0 0.26234754E+04</rscale>
<asrwt>0</asrwt>
<pdfrwt beam="1">  1        2 0.21131582E+00 0.26234754E+04</pdfrwt>
<pdfrwt beam="2">  1       -2 0.19272376E+00 0.26234754E+04</pdfrwt>
<totfact> 0.19664710E+00</totfact>
</mgrwt>
</event>
<event>
 4    1  0.2069825E-008  0.2581078E+04  0.7816531E-02  0.8374657E-01
         -1   -1    0    0    0  501 -0.00000000000E+00  0.00000000000E+00  0.11881331769E+04  0.11881331769E+04  0.00000000000E+00 0. -1.
          1   -1    0    0  501    0  0.00000000000E+00 -0.00000000000E+00 -0.14017708727E+04  0.14017708727E+04  0.00000000000E+00 0.  1.
    2000013    1    1    2    0    0  0.65084469796E+03  0.24732867834E+03 -0.63608840985E+03  0.13386107579E+04  0.95000000000E+03 0.  0.
   -2000013    1    1    2    0    0 -0.65084469796E+03 -0.24732867834E+03  0.42245071412E+03  0.12512932917E+04  0.95000000000E+03 0.  0.
<mgrwt>
<rscale>  0 0.25810777E+04</rscale>
<asrwt>0</asrwt>
<pdfrwt beam="2">  1        1 0.21565706E+00 0.25810777E+04</pdfrwt>
<pdfrwt beam="1">  1       -1 0.18278972E+00 0.25810777E+04</pdfrwt>
<totfact> 0.13432793E+00</totfact>
</mgrwt>
</event>
<event>
 4    1  0.2069825E-008  0.2919379E+04  0.7816531E-02  0.8267135E-01
          1   -1    0    0  501    0  0.00000000000E+00  0.00000000000E+00  0.13730992358E+04  0.13730992358E+04  0.00000000000E+00 0.  1.
         -1   -1    0    0    0  501 -0.00000000000E+00 -0.00000000000E+00 -0.15517403479E+04  0.15517403479E+04  0.00000000000E+00 0. -1.
    2000013    1    1    2    0    0 -0.42092252244E+03  0.93405485049E+03  0.33403254583E+03  0.14365625553E+04  0.95000000000E+03 0.  0.
   -2000013    1    1    2    0    0  0.42092252244E+03 -0.93405485049E+03 -0.51267365799E+03  0.14882770284E+04  0.95000000000E+03 0.  0.
<mgrwt>
<rscale>  0 0.29193790E+04</rscale>
<asrwt>0</asrwt>
<pdfrwt beam="1">  1        1 0.21124604E+00 0.29193790E+04</pdfrwt>
<pdfrwt beam="2">  1       -1 0.23872928E+00 0.29193790E+04</pdfrwt>
<totfact> 0.56842214E-01</totfact>
</mgrwt>
</event>
<event>
 4    1  0.2069825E-008  0.2366298E+04  0.7816531E-02  0.8452230E-01
         -2   -1    0    0    0  501 -0.00000000000E+00  0.00000000000E+00  0.61411912342E+03  0.61411912342E+03  0.00000000000E+00 0. -1.
          2   -1    0    0  501    0  0.00000000000E+00 -0.00000000000E+00 -0.22794298335E+04  0.22794298335E+04  0.00000000000E+00 0.  1.
    2000013    1    1    2    0    0 -0.59942432035E+03  0.33626031359E+03 -0.10258485637E+04  0.15579620630E+04  0.95000000000E+03 0.  0.
   -2000013    1    1    2    0    0  0.59942432035E+03 -0.33626031359E+03 -0.63946214637E+03  0.13355868938E+04  0.95000000000E+03 0.  0.
<mgrwt>
<rscale>  0 0.23662979E+04</rscale>
<asrwt>0</asrwt>
<pdfrwt beam="2">  1        2 0.35068151E+00 0.23662979E+04</pdfrwt>
<pdfrwt beam="1">  1       -2 0.94479865E-01 0.23662979E+04</pdfrwt>
<totfact> 0.39638167E+00</totfact>
</mgrwt>
</event>
<event>
 4    1  0.2069825E-008  0.2142263E+04  0.7816531E-02  0.8542851E-01
         -2   -1    0    0    0  501 -0.00000000000E+00  0.00000000000E+00  0.99631437099E+03  0.99631437099E+03  0.00000000000E+00 0. -1.
          2   -1    0    0  501    0  0.00000000000E+00 -0.00000000000E+00 -0.11515672712E+04  0.11515672712E+04  0.00000000000E+00 0.  1.
    2000013    1    1    2    0    0 -0.20934586727E+03 -0.44215187377E+03 -0.32763900582E+01  0.10685666598E+04  0.95000000000E+03 0.  0.
   -2000013    1    1    2    0    0  0.20934586727E+03  0.44215187377E+03 -0.15197651012E+03  0.10793149824E+04  0.95000000000E+03 0.  0.
<mgrwt>
<rscale>  0 0.21422633E+04</rscale>
<asrwt>0</asrwt>
<pdfrwt beam="2">  1        2 0.17716420E+00 0.21422633E+04</pdfrwt>
<pdfrwt beam="1">  1       -2 0.15327913E+00 0.21422633E+04</pdfrwt>
<totfact> 0.52624828E+00</totfact>
</mgrwt>
</event>
<event>
 4    1  0.2069825E-008  0.2660765E+04  0.7816531E-02  0.8347849E-01
          2   -1    0    0  501    0  0.00000000000E+00  0.00000000000E+00  0.10848651060E+04  0.10848651060E+04  0.00000000000E+00 0.  1.
         -2   -1    0    0    0  501 -0.00000000000E+00 -0.00000000000E+00 -0.16314634995E+04  0.16314634995E+04  0.00000000000E+00 0. -1.
    2000013    1    1    2    0    0 -0.86230053113E+03 -0.35059296856E+03 -0.30460196836E+03  0.13644632625E+04  0.95000000000E+03 0.  0.
   -2000013    1    1    2    0    0  0.86230053113E+03  0.35059296856E+03 -0.24199642515E+03  0.13518653429E+04  0.95000000000E+03 0.  0.
<mgrwt>
<rscale>  0 0.26607652E+04</rscale>
<asrwt>0</asrwt>
<pdfrwt beam="1">  1        2 0.16690232E+00 0.26607652E+04</pdfrwt>
<pdfrwt beam="2">  1       -2 0.25099439E+00 0.26607652E+04</pdfrwt>
<totfact> 0.12414059E+00</totfact>
</mgrwt>
</event>
<event>
 4    1  0.2069825E-008  0.2806375E+04  0.7816531E-02  0.8301292E-01
          2   -1    0    0  501    0  0.00000000000E+00  0.00000000000E+00  0.24872184043E+04  0.24872184043E+04  0.00000000000E+00 0.  1.
         -2   -1    0    0    0  501 -0.00000000000E+00 -0.00000000000E+00 -0.79162147573E+03  0.79162147573E+03  0.00000000000E+00 0. -1.
    2000013    1    1    2    0    0  0.45999744769E+03 -0.36173754710E+03  0.18419186489E+04  0.21535124829E+04  0.95000000000E+03 0.  0.
   -2000013    1    1    2    0    0 -0.45999744769E+03  0.36173754710E+03 -0.14632172035E+03  0.11253273971E+04  0.95000000000E+03 0.  0.
<mgrwt>
<rscale>  0 0.28063752E+04</rscale>
<asrwt>0</asrwt>
<pdfrwt beam="1">  1        2 0.38264898E+00 0.28063752E+04</pdfrwt>
<pdfrwt beam="2">  1       -2 0.12178792E+00 0.28063752E+04</pdfrwt>
<totfact> 0.15757611E+00</totfact>
</mgrwt>
</event>
<event>
 4    1  0.2069825E-008  0.1986133E+04  0.7816531E-02  0.8613132E-01
          1   -1    0    0  501    0  0.00000000000E+00  0.00000000000E+00  0.89953582323E+03  0.89953582323E+03  0.00000000000E+00 0.  1.
         -1   -1    0    0    0  501 -0.00000000000E+00 -0.00000000000E+00 -0.10963216881E+04  0.10963216881E+04  0.00000000000E+00 0. -1.
    2000013    1    1    2    0    0  0.28620446595E+03  0.22089143831E+02 -0.62444799251E+02  0.99438437214E+03  0.95000000000E+03 0.  0.
   -2000013    1    1    2    0    0 -0.28620446595E+03 -0.22089143831E+02 -0.13434106562E+03  0.10014731392E+04  0.95000000000E+03 0.  0.
<mgrwt>
<rscale>  0 0.19861326E+04</rscale>
<asrwt>0</asrwt>
<pdfrwt beam="1">  1        1 0.13839013E+00 0.19861326E+04</pdfrwt>
<pdfrwt beam="2">  1       -1 0.16866488E+00 0.19861326E+04</pdfrwt>
<totfact> 0.42576384E+00</totfact>
</mgrwt>
</event>
<event>
 4    1  0.2069825E-008  0.3354644E+04  0.7816531E-02  0.8149129E-01
          2   -1    0    0  501    0  0.00000000000E+00  0.00000000000E+00  0.29032148869E+04  0.29032148869E+04  0.00000000000E+00 0. -1.
         -2   -1    0    0    0  501 -0.00000000000E+00 -0.00000000000E+00 -0.96906704536E+03  0.96906704536E+03  0.00000000000E+00 0.  1.
    2000013    1    1    2    0    0 -0.25855914207E+03 -0.13111439671E+04  0.13751145813E+04  0.21399512714E+04  0.95000000000E+03 0.  0.
   -2000013    1    1    2    0    0  0.25855914207E+03  0.13111439671E+04  0.55903326025E+03  0.17323306608E+04  0.95000000000E+03 0.  0.
<mgrwt>
<rscale>  0 0.33546445E+04</rscale>
<asrwt>0</asrwt>
<pdfrwt beam="1">  1        2 0.44664844E+00 0.33546445E+04</pdfrwt>
<pdfrwt beam="2">  1       -2 0.14908724E+00 0.33546445E+04</pdfrwt>
<totfact> 0.50607361E-01</totfact>
</mgrwt>
</event>
<event>
 4    1  0.2069825E-008  0.2082620E+04  0.7816531E-02  0.8568938E-01
          1   -1    0    0  501    0  0.00000000000E+00  0.00000000000E+00  0.10315813691E+04  0.10315813691E+04  0.00000000000E+00 0.  1.
         -1   -1    0    0    0  501 -0.00000000000E+00 -0.00000000000E+00 -0.10511307671E+04  0.10511307671E+04  0.00000000000E+00 0. -1.
    2000013    1    1    2    0    0 -0.38700561265E+03  0.11692919651E+03 -0.14535771508E+03  0.10426287194E+04  0.95000000000E+03 0.  0.
   -2000013    1    1    2    0    0  0.38700561265E+03 -0.11692919651E+03  0.12580831710E+03  0.10400834168E+04  0.95000000000E+03 0.  0.
<mgrwt>
<rscale>  0 0.20826204E+04</rscale>
<asrwt>0</asrwt>
<pdfrwt beam="1">  1        1 0.15870483E+00 0.20826204E+04</pdfrwt>
<pdfrwt beam="2">  1       -1 0.16171242E+00 0.20826204E+04</pdfrwt>
<totfact> 0.37359457E+00</totfact>
</mgrwt>
</event>
<event>
 4    1  0.2069825E-008  0.2010739E+04  0.7816531E-02  0.8601616E-01
          2   -1    0    0  501    0  0.00000000000E+00  0.00000000000E+00  0.12798324358E+04  0.12798324358E+04  0.00000000000E+00 0.  1.
         -2   -1    0    0    0  501 -0.00000000000E+00 -0.00000000000E+00 -0.78976596732E+03  0.78976596732E+03  0.00000000000E+00 0. -1.
    2000013    1    1    2    0    0  0.15463257597E+03 -0.24709486721E+03  0.87918269759E+02  0.99759547368E+03  0.95000000000E+03 0.  0.
   -2000013    1    1    2    0    0 -0.15463257597E+03  0.24709486721E+03  0.40214819870E+03  0.10720029294E+04  0.95000000000E+03 0.  0.
<mgrwt>
<rscale>  0 0.20107393E+04</rscale>
<asrwt>0</asrwt>
<pdfrwt beam="1">  1        2 0.19689730E+00 0.20107393E+04</pdfrwt>
<pdfrwt beam="2">  1       -2 0.12150246E+00 0.20107393E+04</pdfrwt>
<totfact> 0.81187005E+00</totfact>
</mgrwt>
</event>
<event>
 4    1  0.2069825E-008  0.3004824E+04  0.7816531E-02  0.8242355E-01
         -2   -1    0    0    0  501 -0.00000000000E+00  0.00000000000E+00  0.10802771092E+04  0.10802771092E+04  0.00000000000E+00 0. -1.
          2   -1    0    0  501    0  0.00000000000E+00 -0.00000000000E+00 -0.20895020155E+04  0.20895020155E+04  0.00000000000E+00 0.  1.
    2000013    1    1    2    0    0  0.56305602872E+02 -0.76024346602E+03 -0.14324425626E+04  0.18803010779E+04  0.95000000000E+03 0.  0.
   -2000013    1    1    2    0    0 -0.56305602872E+02  0.76024346602E+03  0.42321765634E+03  0.12894780468E+04  0.95000000000E+03 0.  0.
<mgrwt>
<rscale>  0 0.30048236E+04</rscale>
<asrwt>0</asrwt>
<pdfrwt beam="2">  1        2 0.32146185E+00 0.30048236E+04</pdfrwt>
<pdfrwt beam="1">  1       -2 0.16619648E+00 0.30048236E+04</pdfrwt>
<totfact> 0.11566309E+00</totfact>
</mgrwt>
</event>
<event>
 4    1  0.2069825E-008  0.2666231E+04  0.7816531E-02  0.8346046E-01
          2   -1    0    0  501    0  0.00000000000E+00  0.00000000000E+00  0.24083512452E+04  0.24083512452E+04  0.00000000000E+00 0.  1.
         -2   -1    0    0    0  501 -0.00000000000E+00 -0.00000000000E+00 -0.73793084954E+03  0.73793084954E+03  0.00000000000E+00 0. -1.
    2000013    1    1    2    0    0 -0.86651790794E+03  0.41136569126E+02  0.12476387719E+04  0.17921071417E+04  0.95000000000E+03 0.  0.
   -2000013    1    1    2    0    0  0.86651790794E+03 -0.41136569126E+02  0.42278162377E+03  0.13541749531E+04  0.95000000000E+03 0.  0.
<mgrwt>
<rscale>  0 0.26662308E+04</rscale>
<asrwt>0</asrwt>
<pdfrwt beam="1">  1        2 0.37051557E+00 0.26662308E+04</pdfrwt>
<pdfrwt beam="2">  1       -2 0.11352782E+00 0.26662308E+04</pdfrwt>
<totfact> 0.21043419E+00</totfact>
</mgrwt>
</event>
<event>
 4    1  0.2069825E-008  0.3323469E+04  0.7816531E-02  0.8156949E-01
          2   -1    0    0  501    0  0.00000000000E+00  0.00000000000E+00  0.15423766396E+04  0.15423766396E+04  0.00000000000E+00 0.  1.
         -2   -1    0    0    0  501 -0.00000000000E+00 -0.00000000000E+00 -0.17903286713E+04  0.17903286713E+04  0.00000000000E+00 0. -1.
    2000013    1    1    2    0    0 -0.14854622411E+03  0.11477360872E+04 -0.84674056477E+03  0.17201260682E+04  0.95000000000E+03 0.  0.
   -2000013    1    1    2    0    0  0.14854622411E+03 -0.11477360872E+04  0.59878853312E+03  0.16125792427E+04  0.95000000000E+03 0.  0.
<mgrwt>
<rscale>  0 0.33234687E+04</rscale>
<asrwt>0</asrwt>
<pdfrwt beam="1">  1        2 0.23728871E+00 0.33234687E+04</pdfrwt>
<pdfrwt beam="2">  1       -2 0.27543518E+00 0.33234687E+04</pdfrwt>
<totfact> 0.44968651E-01</totfact>
</mgrwt>
</event>
<event>
 4    1  0.2069825E-008  0.3016029E+04  0.7816531E-02  0.8239168E-01
         -2   -1    0    0    0  501 -0.00000000000E+00  0.00000000000E+00  0.65215354070E+03  0.65215354070E+03  0.00000000000E+00 0.  1.
          2   -1    0    0  501    0  0.00000000000E+00 -0.00000000000E+00 -0.34870749896E+04  0.34870749896E+04  0.00000000000E+00 0. -1.
    2000013    1    1    2    0    0  0.12906070551E+03  0.10792346840E+04 -0.20160015956E+04  0.24795496773E+04  0.95000000000E+03 0.  0.
   -2000013    1    1    2    0    0 -0.12906070551E+03 -0.10792346840E+04 -0.81891985337E+03  0.16596788530E+04  0.95000000000E+03 0.  0.
<mgrwt>
<rscale>  0 0.30160294E+04</rscale>
<asrwt>0</asrwt>
<pdfrwt beam="2">  1        2 0.53647306E+00 0.30160294E+04</pdfrwt>
<pdfrwt beam="1">  1       -2 0.10033132E+00 0.30160294E+04</pdfrwt>
<totfact> 0.58108660E-01</totfact>
</mgrwt>
</event>
<event>
 4    1  0.2069825E-008  0.2025685E+04  0.7816531E-02  0.8594705E-01
          2   -1    0    0  501    0  0.00000000000E+00  0.00000000000E+00  0.16384010214E+04  0.16384010214E+04  0.00000000000E+00 0.  1.
         -2   -1    0    0    0  501 -0.00000000000E+00 -0.00000000000E+00 -0.62612895397E+03  0.62612895397E+03  0.00000000000E+00 0. -1.
    2000013    1    1    2    0    0  0.14770763701E+03  0.89185834580E+02  0.84811113533E+03  0.12851319609E+04  0.95000000000E+03 0.  0.
   -2000013    1    1    2    0    0 -0.14770763701E+03 -0.89185834580E+02  0.16416093212E+03  0.97939801447E+03  0.95000000000E+03 0.  0.
<mgrwt>
<rscale>  0 0.20256854E+04</rscale>
<asrwt>0</asrwt>
<pdfrwt beam="1">  1        2 0.25206169E+00 0.20256854E+04</pdfrwt>
<pdfrwt beam="2">  1       -2 0.96327532E-01 0.20256854E+04</pdfrwt>
<totfact> 0.88784241E+00</totfact>
</mgrwt>
</event>
<event>
 4    1  0.2069825E-008  0.2203258E+04  0.7816531E-02  0.8517073E-01
         -2   -1    0    0    0  501 -0.00000000000E+00  0.00000000000E+00  0.13519280508E+04  0.13519280508E+04  0.00000000000E+00 0. -1.
          2   -1    0    0  501    0  0.00000000000E+00 -0.00000000000E+00 -0.89767123390E+03  0.89767123390E+03  0.00000000000E+00 0.  1.
    2000013    1    1    2    0    0 -0.30956215700E+03 -0.24972713985E+03  0.62636995158E+03  0.12054176412E+04  0.95000000000E+03 0.  0.
   -2000013    1    1    2    0    0  0.30956215700E+03  0.24972713985E+03 -0.17211313473E+03  0.10441816435E+04  0.95000000000E+03 0.  0.
<mgrwt>
<rscale>  0 0.22032584E+04</rscale>
<asrwt>0</asrwt>
<pdfrwt beam="2">  1        2 0.13810327E+00 0.22032584E+04</pdfrwt>
<pdfrwt beam="1">  1       -2 0.20798893E+00 0.22032584E+04</pdfrwt>
<totfact> 0.31715701E+00</totfact>
</mgrwt>
</event>
<event>
 4    1  0.2069825E-008  0.3117293E+04  0.7816531E-02  0.8211008E-01
         -2   -1    0    0    0  501 -0.00000000000E+00  0.00000000000E+00  0.98129018238E+03  0.98129018238E+03  0.00000000000E+00 0. -1.
          2   -1    0    0  501    0  0.00000000000E+00 -0.00000000000E+00 -0.24756988640E+04  0.24756988640E+04  0.00000000000E+00 0.  1.
    2000013    1    1    2    0    0 -0.48054910660E+03  0.11266111552E+04 -0.56600080922E+03  0.16501627359E+04  0.95000000000E+03 0.  0.
   -2000013    1    1    2    0    0  0.48054910660E+03 -0.11266111552E+04 -0.92840787244E+03  0.18068263105E+04  0.95000000000E+03 0.  0.
<mgrwt>
<rscale>  0 0.31172930E+04</rscale>
<asrwt>0</asrwt>
<pdfrwt beam="2">  1        2 0.38087675E+00 0.31172930E+04</pdfrwt>
<pdfrwt beam="1">  1       -2 0.15096772E+00 0.31172930E+04</pdfrwt>
<totfact> 0.89776736E-01</totfact>
</mgrwt>
</event>
<event>
 4    1  0.2069825E-008  0.3438394E+04  0.7816531E-02  0.8128547E-01
         -2   -1    0    0    0  501 -0.00000000000E+00  0.00000000000E+00  0.16347497384E+04  0.16347497384E+04  0.00000000000E+00 0. -1.
          2   -1    0    0  501    0  0.00000000000E+00 -0.00000000000E+00 -0.18080066116E+04  0.18080066116E+04  0.00000000000E+00 0.  1.
    2000013    1    1    2    0    0 -0.14234539394E+04 -0.16116305805E+03 -0.55869981571E+02  0.17198302543E+04  0.95000000000E+03 0.  0.
   -2000013    1    1    2    0    0  0.14234539394E+04  0.16116305805E+03 -0.11738689164E+03  0.17229260957E+04  0.95000000000E+03 0.  0.
<mgrwt>
<rscale>  0 0.34383940E+04</rscale>
<asrwt>0</asrwt>
<pdfrwt beam="2">  1        2 0.27815486E+00 0.34383940E+04</pdfrwt>
<pdfrwt beam="1">  1       -2 0.25149996E+00 0.34383940E+04</pdfrwt>
<totfact> 0.44376286E-01</totfact>
</mgrwt>
</event>
<event>
 4    1  0.2069825E-008  0.3362870E+04  0.7816531E-02  0.8147080E-01
         -2   -1    0    0    0  501 -0.00000000000E+00  0.00000000000E+00  0.17231358422E+04  0.17231358422E+04  0.00000000000E+00 0. -1.
          2   -1    0    0  501    0  0.00000000000E+00 -0.00000000000E+00 -0.16407430645E+04  0.16407430645E+04  0.00000000000E+00 0.  1.
    2000013    1    1    2    0    0 -0.12695684454E+04  0.50134442928E+03 -0.20701696581E+03  0.16758598684E+04  0.95000000000E+03 0.  0.
   -2000013    1    1    2    0    0  0.12695684454E+04 -0.50134442928E+03  0.28940974356E+03  0.16880190384E+04  0.95000000000E+03 0.  0.
<mgrwt>
<rscale>  0 0.33628697E+04</rscale>
<asrwt>0</asrwt>
<pdfrwt beam="2">  1        2 0.25242201E+00 0.33628697E+04</pdfrwt>
<pdfrwt beam="1">  1       -2 0.26509782E+00 0.33628697E+04</pdfrwt>
<totfact> 0.45661787E-01</totfact>
</mgrwt>
</event>
<event>
 4    1  0.2069825E-008  0.2759596E+04  0.7816531E-02  0.8315923E-01
         -1   -1    0    0    0  501 -0.00000000000E+00  0.00000000000E+00  0.10526289084E+04  0.10526289084E+04  0.00000000000E+00 0. -1.
          1   -1    0    0  501    0  0.00000000000E+00 -0.00000000000E+00 -0.18086553185E+04  0.18086553185E+04  0.00000000000E+00 0.  1.
    2000013    1    1    2    0    0 -0.85292631435E+03  0.48726519887E+03 -0.18010756879E+03  0.13783502487E+04  0.95000000000E+03 0.  0.
   -2000013    1    1    2    0    0  0.85292631435E+03 -0.48726519887E+03 -0.57591884134E+03  0.14829339781E+04  0.95000000000E+03 0.  0.
<mgrwt>
<rscale>  0 0.27595963E+04</rscale>
<asrwt>0</asrwt>
<pdfrwt beam="2">  1        1 0.27825466E+00 0.27595963E+04</pdfrwt>
<pdfrwt beam="1">  1       -1 0.16194291E+00 0.27595963E+04</pdfrwt>
<totfact> 0.98642330E-01</totfact>
</mgrwt>
</event>
<event>
 4    1  0.2069825E-008  0.3088060E+04  0.7816531E-02  0.8219022E-01
          1   -1    0    0  501    0  0.00000000000E+00  0.00000000000E+00  0.19783303808E+04  0.19783303808E+04  0.00000000000E+00 0.  1.
         -1   -1    0    0    0  501 -0.00000000000E+00 -0.00000000000E+00 -0.12050712476E+04  0.12050712476E+04  0.00000000000E+00 0. -1.
    2000013    1    1    2    0    0 -0.31777741963E+03 -0.11695248557E+04  0.50306900229E+03  0.16199843510E+04  0.95000000000E+03 0.  0.
   -2000013    1    1    2    0    0  0.31777741963E+03  0.11695248557E+04  0.27019013093E+03  0.15634172774E+04  0.95000000000E+03 0.  0.
<mgrwt>
<rscale>  0 0.30880603E+04</rscale>
<asrwt>0</asrwt>
<pdfrwt beam="1">  1        1 0.30435852E+00 0.30880603E+04</pdfrwt>
<pdfrwt beam="2">  1       -1 0.18539558E+00 0.30880603E+04</pdfrwt>
<totfact> 0.49587882E-01</totfact>
</mgrwt>
</event>
<event>
 4    1  0.2069825E-008  0.1991082E+04  0.7816531E-02  0.8610801E-01
          2   -1    0    0  501    0  0.00000000000E+00  0.00000000000E+00  0.14742461243E+04  0.14742461243E+04  0.00000000000E+00 0.  1.
         -2   -1    0    0    0  501 -0.00000000000E+00 -0.00000000000E+00 -0.67227731844E+03  0.67227731844E+03  0.00000000000E+00 0. -1.
    2000013    1    1    2    0    0 -0.29240137608E+03 -0.55015271935E+02  0.41044357348E+03  0.10767957893E+04  0.95000000000E+03 0.  0.
   -2000013    1    1    2    0    0  0.29240137608E+03  0.55015271935E+02  0.39152523237E+03  0.10697276534E+04  0.95000000000E+03 0.  0.
<mgrwt>
<rscale>  0 0.19910824E+04</rscale>
<asrwt>0</asrwt>
<pdfrwt beam="1">  1        2 0.22680709E+00 0.19910824E+04</pdfrwt>
<pdfrwt beam="2">  1       -2 0.10342728E+00 0.19910824E+04</pdfrwt>
<totfact> 0.93034898E+00</totfact>
</mgrwt>
</event>
<event>
 4    1  0.2069825E-008  0.2715363E+04  0.7816531E-02  0.8330037E-01
         -2   -1    0    0    0  501 -0.00000000000E+00  0.00000000000E+00  0.12093045057E+04  0.12093045057E+04  0.00000000000E+00 0. -1.
          2   -1    0    0  501    0  0.00000000000E+00 -0.00000000000E+00 -0.15242643222E+04  0.15242643222E+04  0.00000000000E+00 0.  1.
    2000013    1    1    2    0    0  0.41244545119E+03 -0.73329042092E+03 -0.64338943613E+03  0.14227705571E+04  0.95000000000E+03 0.  0.
   -2000013    1    1    2    0    0 -0.41244545119E+03  0.73329042092E+03  0.32842961970E+03  0.13107982708E+04  0.95000000000E+03 0.  0.
<mgrwt>
<rscale>  0 0.27153635E+04</rscale>
<asrwt>0</asrwt>
<pdfrwt beam="2">  1        2 0.23450220E+00 0.27153635E+04</pdfrwt>
<pdfrwt beam="1">  1       -2 0.18604685E+00 0.27153635E+04</pdfrwt>
<totfact> 0.17765850E+00</totfact>
</mgrwt>
</event>
<event>
 4    1  0.2069825E-008  0.2346438E+04  0.7816531E-02  0.8459833E-01
         -1   -1    0    0    0  501 -0.00000000000E+00  0.00000000000E+00  0.61063524973E+03  0.61063524973E+03  0.00000000000E+00 0. -1.
          1   -1    0    0  501    0  0.00000000000E+00 -0.00000000000E+00 -0.22541154674E+04  0.22541154674E+04  0.00000000000E+00 0.  1.
    2000013    1    1    2    0    0  0.60796429847E+03 -0.32294341790E+03 -0.81512899652E+03  0.14285826264E+04  0.95000000000E+03 0.  0.
   -2000013    1    1    2    0    0 -0.60796429847E+03  0.32294341790E+03 -0.82835122119E+03  0.14361680908E+04  0.95000000000E+03 0.  0.
<mgrwt>
<rscale>  0 0.23464376E+04</rscale>
<asrwt>0</asrwt>
<pdfrwt beam="2">  1        1 0.34678699E+00 0.23464376E+04</pdfrwt>
<pdfrwt beam="1">  1       -1 0.93943885E-01 0.23464376E+04</pdfrwt>
<totfact> 0.19772756E+00</totfact>
</mgrwt>
</event>
<event>
 4    1  0.2069825E-008  0.3136502E+04  0.7816531E-02  0.8205791E-01
          2   -1    0    0  501    0  0.00000000000E+00  0.00000000000E+00  0.83147080016E+03  0.83147080016E+03  0.00000000000E+00 0.  1.
         -2   -1    0    0    0  501 -0.00000000000E+00 -0.00000000000E+00 -0.29579052914E+04  0.29579052914E+04  0.00000000000E+00 0. -1.
    2000013    1    1    2    0    0 -0.10741400804E+04  0.57105586170E+03 -0.13985318811E+04  0.20828521628E+04  0.95000000000E+03 0.  0.
   -2000013    1    1    2    0    0  0.10741400804E+04 -0.57105586170E+03 -0.72790261010E+03  0.17065239287E+04  0.95000000000E+03 0.  0.
<mgrwt>
<rscale>  0 0.31365024E+04</rscale>
<asrwt>0</asrwt>
<pdfrwt beam="1">  1        2 0.12791859E+00 0.31365024E+04</pdfrwt>
<pdfrwt beam="2">  1       -2 0.45506234E+00 0.31365024E+04</pdfrwt>
<totfact> 0.88826209E-02</totfact>
</mgrwt>
</event>
<event>
 4    1  0.2069825E-008  0.2826462E+04  0.7816531E-02  0.8295100E-01
         -2   -1    0    0    0  501 -0.00000000000E+00  0.00000000000E+00  0.83935581090E+03  0.83935581090E+03  0.00000000000E+00 0. -1.
          2   -1    0    0  501    0  0.00000000000E+00 -0.00000000000E+00 -0.23794694321E+04  0.23794694321E+04  0.00000000000E+00 0.  1.
    2000013    1    1    2    0    0  0.39733356373E+03  0.64933359058E+03 -0.15874817267E+04  0.20005265070E+04  0.95000000000E+03 0.  0.
   -2000013    1    1    2    0    0 -0.39733356373E+03 -0.64933359058E+03  0.47368105468E+02  0.12182987360E+04  0.95000000000E+03 0.  0.
<mgrwt>
<rscale>  0 0.28264617E+04</rscale>
<asrwt>0</asrwt>
<pdfrwt beam="2">  1        2 0.36607222E+00 0.28264617E+04</pdfrwt>
<pdfrwt beam="1">  1       -2 0.12913166E+00 0.28264617E+04</pdfrwt>
<totfact> 0.15664044E+00</totfact>
</mgrwt>
</event>
<event>
 4    1  0.2069825E-008  0.2359011E+04  0.7816531E-02  0.8455011E-01
          2   -1    0    0  501    0  0.00000000000E+00  0.00000000000E+00  0.17235581130E+04  0.17235581130E+04  0.00000000000E+00 0.  1.
         -2   -1    0    0    0  501 -0.00000000000E+00 -0.00000000000E+00 -0.80718650437E+03  0.80718650437E+03  0.00000000000E+00 0. -1.
    2000013    1    1    2    0    0 -0.43930114386E+03  0.53372707402E+03  0.57010073146E+03  0.13058962166E+04  0.95000000000E+03 0.  0.
   -2000013    1    1    2    0    0  0.43930114386E+03 -0.53372707402E+03  0.34627087721E+03  0.12248484008E+04  0.95000000000E+03 0.  0.
<mgrwt>
<rscale>  0 0.23590107E+04</rscale>
<asrwt>0</asrwt>
<pdfrwt beam="1">  1        2 0.26516279E+00 0.23590107E+04</pdfrwt>
<pdfrwt beam="2">  1       -2 0.12418254E+00 0.23590107E+04</pdfrwt>
<totfact> 0.41852987E+00</totfact>
</mgrwt>
</event>
<event>
 4    1  0.2069825E-008  0.2537256E+04  0.7816531E-02  0.8389832E-01
          2   -1    0    0  501    0  0.00000000000E+00  0.00000000000E+00  0.20166210869E+04  0.20166210869E+04  0.00000000000E+00 0.  1.
         -2   -1    0    0    0  501 -0.00000000000E+00 -0.00000000000E+00 -0.79807606833E+03  0.79807606833E+03  0.00000000000E+00 0. -1.
    2000013    1    1    2    0    0  0.45552791986E+03 -0.66666005472E+03  0.34916504104E+03  0.12947422679E+04  0.95000000000E+03 0.  0.
   -2000013    1    1    2    0    0 -0.45552791986E+03  0.66666005472E+03  0.86937997756E+03  0.15199548874E+04  0.95000000000E+03 0.  0.
<mgrwt>
<rscale>  0 0.25372560E+04</rscale>
<asrwt>0</asrwt>
<pdfrwt beam="1">  1        2 0.31024940E+00 0.25372560E+04</pdfrwt>
<pdfrwt beam="2">  1       -2 0.12278093E+00 0.25372560E+04</pdfrwt>
<totfact> 0.29164172E+00</totfact>
</mgrwt>
</event>
<event>
 4    1  0.2069825E-008  0.3557515E+04  0.7816531E-02  0.8100293E-01
         -2   -1    0    0    0  501 -0.00000000000E+00  0.00000000000E+00  0.94738360231E+03  0.94738360231E+03  0.00000000000E+00 0. -1.
          2   -1    0    0  501    0  0.00000000000E+00 -0.00000000000E+00 -0.33397016853E+04  0.33397016853E+04  0.00000000000E+00 0.  1.
    2000013    1    1    2    0    0  0.95154511141E+03 -0.10078944952E+04 -0.49328805014E+03  0.17513202200E+04  0.95000000000E+03 0.  0.
   -2000013    1    1    2    0    0 -0.95154511141E+03  0.10078944952E+04 -0.18990300329E+04  0.25357650676E+04  0.95000000000E+03 0.  0.
<mgrwt>
<rscale>  0 0.35575152E+04</rscale>
<asrwt>0</asrwt>
<pdfrwt beam="2">  1        2 0.51380026E+00 0.35575152E+04</pdfrwt>
<pdfrwt beam="1">  1       -2 0.14575132E+00 0.35575152E+04</pdfrwt>
<totfact> 0.27659901E-01</totfact>
</mgrwt>
</event>
<event>
 4    1  0.2069825E-008  0.2458101E+04  0.7816531E-02  0.8418066E-01
         -2   -1    0    0    0  501 -0.00000000000E+00  0.00000000000E+00  0.63966869351E+03  0.63966869351E+03  0.00000000000E+00 0. -1.
          2   -1    0    0  501    0  0.00000000000E+00 -0.00000000000E+00 -0.23614802387E+04  0.23614802387E+04  0.00000000000E+00 0.  1.
    2000013    1    1    2    0    0  0.49580594699E+03  0.52800551839E+03 -0.50820596895E+03  0.12982244303E+04  0.95000000000E+03 0.  0.
   -2000013    1    1    2    0    0 -0.49580594699E+03 -0.52800551839E+03 -0.12136055762E+04  0.17029245019E+04  0.95000000000E+03 0.  0.
<mgrwt>
<rscale>  0 0.24581009E+04</rscale>
<asrwt>0</asrwt>
<pdfrwt beam="2">  1        2 0.36330465E+00 0.24581009E+04</pdfrwt>
<pdfrwt beam="1">  1       -2 0.98410569E-01 0.24581009E+04</pdfrwt>
<totfact> 0.32107390E+00</totfact>
</mgrwt>
</event>
<event>
 4    1  0.2069825E-008  0.2489177E+04  0.7816531E-02  0.8406851E-01
          2   -1    0    0  501    0  0.00000000000E+00  0.00000000000E+00  0.84214494496E+03  0.84214494496E+03  0.00000000000E+00 0. -1.
         -2   -1    0    0    0  501 -0.00000000000E+00 -0.00000000000E+00 -0.18393520186E+04  0.18393520186E+04  0.00000000000E+00 0.  1.
    2000013    1    1    2    0    0  0.55231588951E+03  0.50127562516E+03 -0.17511813167E+03  0.12204492838E+04  0.95000000000E+03 0.  0.
   -2000013    1    1    2    0    0 -0.55231588951E+03 -0.50127562516E+03 -0.82208894201E+03  0.14610476798E+04  0.95000000000E+03 0.  0.
<mgrwt>
<rscale>  0 0.24891774E+04</rscale>
<asrwt>0</asrwt>
<pdfrwt beam="1">  1        2 0.12956076E+00 0.24891774E+04</pdfrwt>
<pdfrwt beam="2">  1       -2 0.28297723E+00 0.24891774E+04</pdfrwt>
<totfact> 0.11589346E+00</totfact>
</mgrwt>
</event>
<event>
 4    1  0.2069825E-008  0.2216141E+04  0.7816531E-02  0.8511740E-01
          2   -1    0    0  501    0  0.00000000000E+00  0.00000000000E+00  0.27305456332E+04  0.27305456332E+04  0.00000000000E+00 0.  1.
         -2   -1    0    0    0  501 -0.00000000000E+00 -0.00000000000E+00 -0.44966092703E+03  0.44966092703E+03  0.00000000000E+00 0. -1.
    2000013    1    1    2    0    0 -0.38852025128E+03 -0.37598731464E+02  0.17372417888E+04  0.20181354471E+04  0.95000000000E+03 0.  0.
   -2000013    1    1    2    0    0  0.38852025128E+03  0.37598731464E+02  0.54364291738E+03  0.11620711131E+04  0.95000000000E+03 0.  0.
<mgrwt>
<rscale>  0 0.22161405E+04</rscale>
<asrwt>0</asrwt>
<pdfrwt beam="1">  1        2 0.42008393E+00 0.22161405E+04</pdfrwt>
<pdfrwt beam="2">  1       -2 0.69178606E-01 0.22161405E+04</pdfrwt>
<totfact> 0.44353958E+00</totfact>
</mgrwt>
</event>
<event>
 4    1  0.2069825E-008  0.2958997E+04  0.7816531E-02  0.8255537E-01
          1   -1    0    0  501    0  0.00000000000E+00  0.00000000000E+00  0.14773859560E+04  0.14773859560E+04  0.00000000000E+00 0.  1.
         -1   -1    0    0    0  501 -0.00000000000E+00 -0.00000000000E+00 -0.14816140230E+04  0.14816140230E+04  0.00000000000E+00 0. -1.
    2000013    1    1    2    0    0  0.96059991072E+03 -0.37998168335E+03 -0.47038524692E+03  0.14801690946E+04  0.95000000000E+03 0.  0.
   -2000013    1    1    2    0    0 -0.96059991072E+03  0.37998168335E+03  0.46615717999E+03  0.14788308844E+04  0.95000000000E+03 0.  0.
<mgrwt>
<rscale>  0 0.29589970E+04</rscale>
<asrwt>0</asrwt>
<pdfrwt beam="1">  1        1 0.22729015E+00 0.29589970E+04</pdfrwt>
<pdfrwt beam="2">  1       -1 0.22794062E+00 0.29589970E+04</pdfrwt>
<totfact> 0.56429722E-01</totfact>
</mgrwt>
</event>
<event>
 4    1  0.2069825E-008  0.2961625E+04  0.7816531E-02  0.8254775E-01
          2   -1    0    0  501    0  0.00000000000E+00  0.00000000000E+00  0.32368138463E+04  0.32368138463E+04  0.00000000000E+00 0.  1.
         -2   -1    0    0    0  501 -0.00000000000E+00 -0.00000000000E+00 -0.67745828256E+03  0.67745828256E+03  0.00000000000E+00 0. -1.
    2000013    1    1    2    0    0  0.10112187370E+04 -0.50874960255E+03  0.14044812872E+04  0.20387391148E+04  0.95000000000E+03 0.  0.
   -2000013    1    1    2    0    0 -0.10112187370E+04  0.50874960255E+03  0.11548742765E+04  0.18755330140E+04  0.95000000000E+03 0.  0.
<mgrwt>
<rscale>  0 0.29616255E+04</rscale>
<asrwt>0</asrwt>
<pdfrwt beam="1">  1        2 0.49797135E+00 0.29616255E+04</pdfrwt>
<pdfrwt beam="2">  1       -2 0.10422435E+00 0.29616255E+04</pdfrwt>
<totfact> 0.78767101E-01</totfact>
</mgrwt>
</event>
<event>
 4    1  0.2069825E-008  0.2074686E+04  0.7816531E-02  0.8572477E-01
          2   -1    0    0  501    0  0.00000000000E+00  0.00000000000E+00  0.91300325904E+03  0.91300325904E+03  0.00000000000E+00 0. -1.
         -2   -1    0    0    0  501 -0.00000000000E+00 -0.00000000000E+00 -0.11786167588E+04  0.11786167588E+04  0.00000000000E+00 0.  1.
    2000013    1    1    2    0    0 -0.21887989911E+02 -0.41598787846E+03 -0.12526621171E+03  0.10448524407E+04  0.95000000000E+03 0.  0.
   -2000013    1    1    2    0    0  0.21887989911E+02  0.41598787846E+03 -0.14034728801E+03  0.10467675771E+04  0.95000000000E+03 0.  0.
<mgrwt>
<rscale>  0 0.20746864E+04</rscale>
<asrwt>0</asrwt>
<pdfrwt beam="1">  1        2 0.14046204E+00 0.20746864E+04</pdfrwt>
<pdfrwt beam="2">  1       -2 0.18132566E+00 0.20746864E+04</pdfrwt>
<totfact> 0.47096710E+00</totfact>
</mgrwt>
</event>
<event>
 4    1  0.2069825E-008  0.2116279E+04  0.7816531E-02  0.8554106E-01
          2   -1    0    0  501    0  0.00000000000E+00  0.00000000000E+00  0.57533447509E+04  0.57533447509E+04  0.00000000000E+00 0.  1.
         -2   -1    0    0    0  501 -0.00000000000E+00 -0.00000000000E+00 -0.19461014514E+03  0.19461014514E+03  0.00000000000E+00 0. -1.
    2000013    1    1    2    0    0  0.40102913822E+03 -0.23349831076E+03  0.28990536667E+04  0.30858318154E+04  0.95000000000E+03 0.  0.
   -2000013    1    1    2    0    0 -0.40102913822E+03  0.23349831076E+03  0.26596809391E+04  0.28621230806E+04  0.95000000000E+03 0.  0.
<mgrwt>
<rscale>  0 0.21162791E+04</rscale>
<asrwt>0</asrwt>
<pdfrwt beam="1">  1        2 0.88512983E+00 0.21162791E+04</pdfrwt>
<pdfrwt beam="2">  1       -2 0.29940027E-01 0.21162791E+04</pdfrwt>
<totfact> 0.17252566E-02</totfact>
</mgrwt>
</event>
<event>
 4    1  0.2069825E-008  0.3189769E+04  0.7816531E-02  0.8191525E-01
          2   -1    0    0  501    0  0.00000000000E+00  0.00000000000E+00  0.27980926234E+04  0.27980926234E+04  0.00000000000E+00 0.  1.
         -2   -1    0    0    0  501 -0.00000000000E+00 -0.00000000000E+00 -0.90906777094E+03  0.90906777094E+03  0.00000000000E+00 0. -1.
    2000013    1    1    2    0    0  0.78031451479E+03  0.90710949214E+03  0.41266306485E+03  0.15825704338E+04  0.95000000000E+03 0.  0.
   -2000013    1    1    2    0    0 -0.78031451479E+03 -0.90710949214E+03  0.14763617876E+04  0.21245899606E+04  0.95000000000E+03 0.  0.
<mgrwt>
<rscale>  0 0.31897685E+04</rscale>
<asrwt>0</asrwt>
<pdfrwt beam="1">  1        2 0.43047579E+00 0.31897685E+04</pdfrwt>
<pdfrwt beam="2">  1       -2 0.13985658E+00 0.31897685E+04</pdfrwt>
<totfact> 0.70334375E-01</totfact>
</mgrwt>
</event>
<event>
 4    1  0.2069825E-008  0.2710283E+04  0.7816531E-02  0.8331676E-01
          2   -1    0    0  501    0  0.00000000000E+00  0.00000000000E+00  0.18457499768E+04  0.18457499768E+04  0.00000000000E+00 0.  1.
         -2   -1    0    0    0  501 -0.00000000000E+00 -0.00000000000E+00 -0.99493926629E+03  0.99493926629E+03  0.00000000000E+00 0. -1.
    2000013    1    1    2    0    0  0.22517044698E+03  0.78440638273E+03 -0.11710337772E+03  0.12578586187E+04  0.95000000000E+03 0.  0.
   -2000013    1    1    2    0    0 -0.22517044698E+03 -0.78440638273E+03  0.96791408824E+03  0.15828306244E+04  0.95000000000E+03 0.  0.
<mgrwt>
<rscale>  0 0.27102835E+04</rscale>
<asrwt>0</asrwt>
<pdfrwt beam="1">  1        2 0.28396153E+00 0.27102835E+04</pdfrwt>
<pdfrwt beam="2">  1       -2 0.15306758E+00 0.27102835E+04</pdfrwt>
<totfact> 0.20256029E+00</totfact>
</mgrwt>
</event>
<event>
 4    1  0.2069825E-008  0.2217547E+04  0.7816531E-02  0.8511160E-01
          2   -1    0    0  501    0  0.00000000000E+00  0.00000000000E+00  0.26977826937E+04  0.26977826937E+04  0.00000000000E+00 0.  1.
         -2   -1    0    0    0  501 -0.00000000000E+00 -0.00000000000E+00 -0.45569980286E+03  0.45569980286E+03  0.00000000000E+00 0. -1.
    2000013    1    1    2    0    0 -0.49906785861E+03 -0.27829369133E+03  0.10939499937E+04  0.15574795970E+04  0.95000000000E+03 0.  0.
   -2000013    1    1    2    0    0  0.49906785861E+03  0.27829369133E+03  0.11481328971E+04  0.15960028996E+04  0.95000000000E+03 0.  0.
<mgrwt>
<rscale>  0 0.22175473E+04</rscale>
<asrwt>0</asrwt>
<pdfrwt beam="1">  1        2 0.41504348E+00 0.22175473E+04</pdfrwt>
<pdfrwt beam="2">  1       -2 0.70107664E-01 0.22175473E+04</pdfrwt>
<totfact> 0.45058017E+00</totfact>
</mgrwt>
</event>
<event>
 4    1  0.2069825E-008  0.2384042E+04  0.7816531E-02  0.8445502E-01
         -1   -1    0    0    0  501 -0.00000000000E+00  0.00000000000E+00  0.65883735432E+03  0.65883735432E+03  0.00000000000E+00 0. -1.
          1   -1    0    0  501    0  0.00000000000E+00 -0.00000000000E+00 -0.21566994487E+04  0.21566994487E+04  0.00000000000E+00 0.  1.
    2000013    1    1    2    0    0  0.31162946598E+03  0.51114911432E+03 -0.27649281760E+03  0.11564318481E+04  0.95000000000E+03 0.  0.
   -2000013    1    1    2    0    0 -0.31162946598E+03 -0.51114911432E+03 -0.12213692768E+04  0.16591049549E+04  0.95000000000E+03 0.  0.
<mgrwt>
<rscale>  0 0.23840421E+04</rscale>
<asrwt>0</asrwt>
<pdfrwt beam="2">  1        1 0.33179992E+00 0.23840421E+04</pdfrwt>
<pdfrwt beam="1">  1       -1 0.10135959E+00 0.23840421E+04</pdfrwt>
<totfact> 0.19328917E+00</totfact>
</mgrwt>
</event>
<event>
 4    1  0.2069825E-008  0.3538308E+04  0.7816531E-02  0.8104771E-01
         -2   -1    0    0    0  501 -0.00000000000E+00  0.00000000000E+00  0.58989502356E+03  0.58989502356E+03  0.00000000000E+00 0. -1.
          2   -1    0    0  501    0  0.00000000000E+00 -0.00000000000E+00 -0.53058678468E+04  0.53058678468E+04  0.00000000000E+00 0.  1.
    2000013    1    1    2    0    0 -0.73221013194E+03 -0.99241983917E+03 -0.95755298637E+03  0.18276861153E+04  0.95000000000E+03 0.  0.
   -2000013    1    1    2    0    0  0.73221013194E+03  0.99241983917E+03 -0.37584198368E+04  0.40680767550E+04  0.95000000000E+03 0.  0.
<mgrwt>
<rscale>  0 0.35383075E+04</rscale>
<asrwt>0</asrwt>
<pdfrwt beam="2">  1        2 0.81628736E+00 0.35383075E+04</pdfrwt>
<pdfrwt beam="1">  1       -2 0.90753081E-01 0.35383075E+04</pdfrwt>
<totfact> 0.10739918E-02</totfact>
</mgrwt>
</event>
<event>
 4    1  0.2069825E-008  0.2699611E+04  0.7816531E-02  0.8335131E-01
         -2   -1    0    0    0  501 -0.00000000000E+00  0.00000000000E+00  0.87337533896E+03  0.87337533896E+03  0.00000000000E+00 0.  1.
          2   -1    0    0  501    0  0.00000000000E+00 -0.00000000000E+00 -0.20861306015E+04  0.20861306015E+04  0.00000000000E+00 0. -1.
    2000013    1    1    2    0    0  0.26116481769E+03  0.81174427829E+03 -0.10871637252E+04  0.16767709446E+04  0.95000000000E+03 0.  0.
   -2000013    1    1    2    0    0 -0.26116481769E+03 -0.81174427829E+03 -0.12559153737E+03  0.12827349959E+04  0.95000000000E+03 0.  0.
<mgrwt>
<rscale>  0 0.26996111E+04</rscale>
<asrwt>0</asrwt>
<pdfrwt beam="2">  1        2 0.32094317E+00 0.26996111E+04</pdfrwt>
<pdfrwt beam="1">  1       -2 0.13436544E+00 0.26996111E+04</pdfrwt>
<totfact> 0.20954593E+00</totfact>
</mgrwt>
</event>
<event>
 4    1  0.2069825E-008  0.2645087E+04  0.7816531E-02  0.8353046E-01
         -2   -1    0    0    0  501 -0.00000000000E+00  0.00000000000E+00  0.93464787880E+03  0.93464787880E+03  0.00000000000E+00 0. -1.
          2   -1    0    0  501    0  0.00000000000E+00 -0.00000000000E+00 -0.18714224770E+04  0.18714224770E+04  0.00000000000E+00 0.  1.
    2000013    1    1    2    0    0  0.40562343918E+03 -0.72426538740E+03 -0.47330476958E+02  0.12624701580E+04  0.95000000000E+03 0.  0.
   -2000013    1    1    2    0    0 -0.40562343918E+03  0.72426538740E+03 -0.88944412122E+03  0.15436001978E+04  0.95000000000E+03 0.  0.
<mgrwt>
<rscale>  0 0.26450868E+04</rscale>
<asrwt>0</asrwt>
<pdfrwt beam="2">  1        2 0.28791115E+00 0.26450868E+04</pdfrwt>
<pdfrwt beam="1">  1       -2 0.14379198E+00 0.26450868E+04</pdfrwt>
<totfact> 0.23251163E+00</totfact>
</mgrwt>
</event>
<event>
 4    1  0.2069825E-008  0.2012312E+04  0.7816531E-02  0.8600886E-01
         -2   -1    0    0    0  501 -0.00000000000E+00  0.00000000000E+00  0.40584262704E+03  0.40584262704E+03  0.00000000000E+00 0. -1.
          2   -1    0    0  501    0  0.00000000000E+00 -0.00000000000E+00 -0.24944385044E+04  0.24944385044E+04  0.00000000000E+00 0.  1.
    2000013    1    1    2    0    0 -0.30699997315E+03 -0.45992803343E+02 -0.87692978394E+03  0.13296127885E+04  0.95000000000E+03 0.  0.
   -2000013    1    1    2    0    0  0.30699997315E+03  0.45992803343E+02 -0.12116660934E+04  0.15706683429E+04  0.95000000000E+03 0.  0.
<mgrwt>
<rscale>  0 0.20123116E+04</rscale>
<asrwt>0</asrwt>
<pdfrwt beam="2">  1        2 0.38375978E+00 0.20123116E+04</pdfrwt>
<pdfrwt beam="1">  1       -2 0.62437325E-01 0.20123116E+04</pdfrwt>
<totfact> 0.77500354E+00</totfact>
</mgrwt>
</event>
<event>
 4    1  0.2069825E-008  0.2062493E+04  0.7816531E-02  0.8577948E-01
          2   -1    0    0  501    0  0.00000000000E+00  0.00000000000E+00  0.19595138159E+04  0.19595138159E+04  0.00000000000E+00 0.  1.
         -2   -1    0    0    0  501 -0.00000000000E+00 -0.00000000000E+00 -0.54272094592E+03  0.54272094592E+03  0.00000000000E+00 0. -1.
    2000013    1    1    2    0    0  0.83032141613E+02  0.37470968930E+03  0.56656248291E+03  0.11708094357E+04  0.95000000000E+03 0.  0.
   -2000013    1    1    2    0    0 -0.83032141613E+02 -0.37470968930E+03  0.85023038704E+03  0.13314253260E+04  0.95000000000E+03 0.  0.
<mgrwt>
<rscale>  0 0.20624929E+04</rscale>
<asrwt>0</asrwt>
<pdfrwt beam="1">  1        2 0.30146366E+00 0.20624929E+04</pdfrwt>
<pdfrwt beam="2">  1       -2 0.83495531E-01 0.20624929E+04</pdfrwt>
<totfact> 0.81617109E+00</totfact>
</mgrwt>
</event>
<event>
 4    1  0.2069825E-008  0.2477299E+04  0.7816531E-02  0.8411118E-01
         -2   -1    0    0    0  501 -0.00000000000E+00  0.00000000000E+00  0.73030585400E+03  0.73030585400E+03  0.00000000000E+00 0. -1.
          2   -1    0    0  501    0  0.00000000000E+00 -0.00000000000E+00 -0.21008361311E+04  0.21008361311E+04  0.00000000000E+00 0.  1.
    2000013    1    1    2    0    0  0.43770934228E+03  0.24821326308E+03  0.17883084643E+02  0.10751832853E+04  0.95000000000E+03 0.  0.
   -2000013    1    1    2    0    0 -0.43770934228E+03 -0.24821326308E+03 -0.13884133617E+04  0.17559586997E+04  0.95000000000E+03 0.  0.
<mgrwt>
<rscale>  0 0.24772993E+04</rscale>
<asrwt>0</asrwt>
<pdfrwt beam="2">  1        2 0.32320555E+00 0.24772993E+04</pdfrwt>
<pdfrwt beam="1">  1       -2 0.11235475E+00 0.24772993E+04</pdfrwt>
<totfact> 0.32728682E+00</totfact>
</mgrwt>
</event>
<event>
 4    1  0.2069825E-008  0.2001846E+04  0.7816531E-02  0.8605758E-01
          2   -1    0    0  501    0  0.00000000000E+00  0.00000000000E+00  0.69476949670E+03  0.69476949670E+03  0.00000000000E+00 0.  1.
         -2   -1    0    0    0  501 -0.00000000000E+00 -0.00000000000E+00 -0.14419850572E+04  0.14419850572E+04  0.00000000000E+00 0. -1.
    2000013    1    1    2    0    0 -0.62909679280E+02  0.30607077553E+03 -0.32946515701E+03  0.10529407567E+04  0.95000000000E+03 0.  0.
   -2000013    1    1    2    0    0  0.62909679280E+02 -0.30607077553E+03 -0.41775040345E+03  0.10838137972E+04  0.95000000000E+03 0.  0.
<mgrwt>
<rscale>  0 0.20018464E+04</rscale>
<asrwt>0</asrwt>
<pdfrwt beam="1">  1        2 0.10688762E+00 0.20018464E+04</pdfrwt>
<pdfrwt beam="2">  1       -2 0.22184385E+00 0.20018464E+04</pdfrwt>
<totfact> 0.36950113E+00</totfact>
</mgrwt>
</event>
<event>
 4    1  0.2069825E-008  0.2166678E+04  0.7816531E-02  0.8532427E-01
         -1   -1    0    0    0  501 -0.00000000000E+00  0.00000000000E+00  0.75886737266E+03  0.75886737266E+03  0.00000000000E+00 0. -1.
          1   -1    0    0  501    0  0.00000000000E+00 -0.00000000000E+00 -0.15465454043E+04  0.15465454043E+04  0.00000000000E+00 0.  1.
    2000013    1    1    2    0    0  0.26116676763E+03  0.26578125409E+03 -0.68546154886E+01  0.10204875018E+04  0.95000000000E+03 0.  0.
   -2000013    1    1    2    0    0 -0.26116676763E+03 -0.26578125409E+03 -0.78082341613E+03  0.12849252752E+04  0.95000000000E+03 0.  0.
<mgrwt>
<rscale>  0 0.21666775E+04</rscale>
<asrwt>0</asrwt>
<pdfrwt beam="2">  1        1 0.23793006E+00 0.21666775E+04</pdfrwt>
<pdfrwt beam="1">  1       -1 0.11674883E+00 0.21666775E+04</pdfrwt>
<totfact> 0.36759420E+00</totfact>
</mgrwt>
</event>
<event>
 4    1  0.2069825E-008  0.3100637E+04  0.7816531E-02  0.8215563E-01
         -2   -1    0    0    0  501 -0.00000000000E+00  0.00000000000E+00  0.17648374932E+04  0.17648374932E+04  0.00000000000E+00 0. -1.
          2   -1    0    0  501    0  0.00000000000E+00 -0.00000000000E+00 -0.13618745626E+04  0.13618745626E+04  0.00000000000E+00 0.  1.
    2000013    1    1    2    0    0  0.54861238114E+03  0.18651321146E+02 -0.90302119912E+03  0.14210104513E+04  0.95000000000E+03 0.  0.
   -2000013    1    1    2    0    0 -0.54861238114E+03 -0.18651321146E+02  0.13059841298E+04  0.17057016046E+04  0.95000000000E+03 0.  0.
<mgrwt>
<rscale>  0 0.31006369E+04</rscale>
<asrwt>0</asrwt>
<pdfrwt beam="2">  1        2 0.20951916E+00 0.31006369E+04</pdfrwt>
<pdfrwt beam="1">  1       -2 0.27151346E+00 0.31006369E+04</pdfrwt>
<totfact> 0.61304369E-01</totfact>
</mgrwt>
</event>
<event>
 4    1  0.2069825E-008  0.2498140E+04  0.7816531E-02  0.8403649E-01
         -2   -1    0    0    0  501 -0.00000000000E+00  0.00000000000E+00  0.12070826677E+04  0.12070826677E+04  0.00000000000E+00 0. -1.
          2   -1    0    0  501    0  0.00000000000E+00 -0.00000000000E+00 -0.12925176182E+04  0.12925176182E+04  0.00000000000E+00 0.  1.
    2000013    1    1    2    0    0  0.47500135423E+03 -0.62298960789E+03 -0.25244267872E+03  0.12569684340E+04  0.95000000000E+03 0.  0.
   -2000013    1    1    2    0    0 -0.47500135423E+03  0.62298960789E+03  0.16700772825E+03  0.12426318519E+04  0.95000000000E+03 0.  0.
<mgrwt>
<rscale>  0 0.24981398E+04</rscale>
<asrwt>0</asrwt>
<pdfrwt beam="2">  1        2 0.19884886E+00 0.24981398E+04</pdfrwt>
<pdfrwt beam="1">  1       -2 0.18570503E+00 0.24981398E+04</pdfrwt>
<totfact> 0.24684830E+00</totfact>
</mgrwt>
</event>
<event>
 4    1  0.2069825E-008  0.3486222E+04  0.7816531E-02  0.8117063E-01
         -2   -1    0    0    0  501 -0.00000000000E+00  0.00000000000E+00  0.15527768589E+04  0.15527768589E+04  0.00000000000E+00 0. -1.
          2   -1    0    0  501    0  0.00000000000E+00 -0.00000000000E+00 -0.19567751127E+04  0.19567751127E+04  0.00000000000E+00 0.  1.
    2000013    1    1    2    0    0 -0.32428989257E+03  0.14175504014E+04 -0.55001252146E+02  0.17378544855E+04  0.95000000000E+03 0.  0.
   -2000013    1    1    2    0    0  0.32428989257E+03 -0.14175504014E+04 -0.34899700167E+03  0.17716974861E+04  0.95000000000E+03 0.  0.
<mgrwt>
<rscale>  0 0.34862215E+04</rscale>
<asrwt>0</asrwt>
<pdfrwt beam="2">  1        2 0.30104233E+00 0.34862215E+04</pdfrwt>
<pdfrwt beam="1">  1       -2 0.23888875E+00 0.34862215E+04</pdfrwt>
<totfact> 0.43721807E-01</totfact>
</mgrwt>
</event>
<event>
 4    1  0.2069825E-008  0.2645719E+04  0.7816531E-02  0.8352835E-01
         -1   -1    0    0    0  501 -0.00000000000E+00  0.00000000000E+00  0.87807960150E+03  0.87807960150E+03  0.00000000000E+00 0. -1.
          1   -1    0    0  501    0  0.00000000000E+00 -0.00000000000E+00 -0.19929368984E+04  0.19929368984E+04  0.00000000000E+00 0.  1.
    2000013    1    1    2    0    0  0.69342296665E+03 -0.10432642625E+03 -0.12046562003E+04  0.16868360842E+04  0.95000000000E+03 0.  0.
   -2000013    1    1    2    0    0 -0.69342296665E+03  0.10432642625E+03  0.89798903442E+02  0.11841804157E+04  0.95000000000E+03 0.  0.
<mgrwt>
<rscale>  0 0.26457190E+04</rscale>
<asrwt>0</asrwt>
<pdfrwt beam="2">  1        1 0.30660567E+00 0.26457190E+04</pdfrwt>
<pdfrwt beam="1">  1       -1 0.13508917E+00 0.26457190E+04</pdfrwt>
<totfact> 0.12153539E+00</totfact>
</mgrwt>
</event>
<event>
 4    1  0.2069825E-008  0.2614529E+04  0.7816531E-02  0.8363283E-01
          2   -1    0    0  501    0  0.00000000000E+00  0.00000000000E+00  0.16456429272E+04  0.16456429272E+04  0.00000000000E+00 0.  1.
         -2   -1    0    0    0  501 -0.00000000000E+00 -0.00000000000E+00 -0.10384640084E+04  0.10384640084E+04  0.00000000000E+00 0. -1.
    2000013    1    1    2    0    0 -0.79401677051E+03  0.35736114426E+03  0.52914366477E+03  0.13930766803E+04  0.95000000000E+03 0.  0.
   -2000013    1    1    2    0    0  0.79401677051E+03 -0.35736114426E+03  0.78035254009E+02  0.12910302553E+04  0.95000000000E+03 0.  0.
<mgrwt>
<rscale>  0 0.26145294E+04</rscale>
<asrwt>0</asrwt>
<pdfrwt beam="1">  1        2 0.25317583E+00 0.26145294E+04</pdfrwt>
<pdfrwt beam="2">  1       -2 0.15976369E+00 0.26145294E+04</pdfrwt>
<totfact> 0.23500405E+00</totfact>
</mgrwt>
</event>
<event>
 4    1  0.2069825E-008  0.2660246E+04  0.7816531E-02  0.8348020E-01
          2   -1    0    0  501    0  0.00000000000E+00  0.00000000000E+00  0.75244058634E+03  0.75244058634E+03  0.00000000000E+00 0.  1.
         -2   -1    0    0    0  501 -0.00000000000E+00 -0.00000000000E+00 -0.23513178619E+04  0.23513178619E+04  0.00000000000E+00 0. -1.
    2000013    1    1    2    0    0  0.23322448367E+03 -0.63950484356E+03 -0.58441957891E+02  0.11701604878E+04  0.95000000000E+03 0.  0.
   -2000013    1    1    2    0    0 -0.23322448367E+03  0.63950484356E+03 -0.15404353176E+04  0.19335979604E+04  0.95000000000E+03 0.  0.
<mgrwt>
<rscale>  0 0.26602458E+04</rscale>
<asrwt>0</asrwt>
<pdfrwt beam="1">  1        2 0.11576009E+00 0.26602458E+04</pdfrwt>
<pdfrwt beam="2">  1       -2 0.36174121E+00 0.26602458E+04</pdfrwt>
<totfact> 0.43090917E-01</totfact>
</mgrwt>
</event>
<event>
 4    1  0.2069825E-008  0.2005916E+04  0.7816531E-02  0.8603860E-01
         -2   -1    0    0    0  501 -0.00000000000E+00  0.00000000000E+00  0.13722477415E+04  0.13722477415E+04  0.00000000000E+00 0. -1.
          2   -1    0    0  501    0  0.00000000000E+00 -0.00000000000E+00 -0.73304927008E+03  0.73304927008E+03  0.00000000000E+00 0.  1.
    2000013    1    1    2    0    0  0.94586814138E+02  0.27389928910E+03  0.17319740747E+03  0.10081988038E+04  0.95000000000E+03 0.  0.
   -2000013    1    1    2    0    0 -0.94586814138E+02 -0.27389928910E+03  0.46600106397E+03  0.10970982078E+04  0.95000000000E+03 0.  0.
<mgrwt>
<rscale>  0 0.20059165E+04</rscale>
<asrwt>0</asrwt>
<pdfrwt beam="2">  1        2 0.11277681E+00 0.20059165E+04</pdfrwt>
<pdfrwt beam="1">  1       -2 0.21111504E+00 0.20059165E+04</pdfrwt>
<totfact> 0.40376931E+00</totfact>
</mgrwt>
</event>
<event>
 4    1  0.2069825E-008  0.2972101E+04  0.7816531E-02  0.8251743E-01
          2   -1    0    0  501    0  0.00000000000E+00  0.00000000000E+00  0.13638047167E+04  0.13638047167E+04  0.00000000000E+00 0.  1.
         -2   -1    0    0    0  501 -0.00000000000E+00 -0.00000000000E+00 -0.16192542448E+04  0.16192542448E+04  0.00000000000E+00 0. -1.
    2000013    1    1    2    0    0  0.56855605247E+03 -0.79126453489E+03  0.47154522273E+03  0.14402119448E+04  0.95000000000E+03 0.  0.
   -2000013    1    1    2    0    0 -0.56855605247E+03  0.79126453489E+03 -0.72699475091E+03  0.15428470167E+04  0.95000000000E+03 0.  0.
<mgrwt>
<rscale>  0 0.29721013E+04</rscale>
<asrwt>0</asrwt>
<pdfrwt beam="1">  1        2 0.20981611E+00 0.29721013E+04</pdfrwt>
<pdfrwt beam="2">  1       -2 0.24911604E+00 0.29721013E+04</pdfrwt>
<totfact> 0.84755912E-01</totfact>
</mgrwt>
</event>
<event>
 4    1  0.2069825E-008  0.3751635E+04  0.7816531E-02  0.8056614E-01
          2   -1    0    0  501    0  0.00000000000E+00  0.00000000000E+00  0.26917362332E+04  0.26917362332E+04  0.00000000000E+00 0.  1.
         -2   -1    0    0    0  501 -0.00000000000E+00 -0.00000000000E+00 -0.13072198860E+04  0.13072198860E+04  0.00000000000E+00 0. -1.
    2000013    1    1    2    0    0  0.89902681119E+03  0.13144741142E+04  0.39058159798E+03  0.18950317646E+04  0.95000000000E+03 0.  0.
   -2000013    1    1    2    0    0 -0.89902681119E+03 -0.13144741142E+04  0.99393474919E+03  0.21039243546E+04  0.95000000000E+03 0.  0.
<mgrwt>
<rscale>  0 0.37516349E+04</rscale>
<asrwt>0</asrwt>
<pdfrwt beam="1">  1        2 0.41411327E+00 0.37516349E+04</pdfrwt>
<pdfrwt beam="2">  1       -2 0.20111075E+00 0.37516349E+04</pdfrwt>
<totfact> 0.28270232E-01</totfact>
</mgrwt>
</event>
<event>
 4    1  0.2069825E-008  0.3073279E+04  0.7816531E-02  0.8223110E-01
          1   -1    0    0  501    0  0.00000000000E+00  0.00000000000E+00  0.13836007899E+04  0.13836007899E+04  0.00000000000E+00 0.  1.
         -1   -1    0    0    0  501 -0.00000000000E+00 -0.00000000000E+00 -0.17066055009E+04  0.17066055009E+04  0.00000000000E+00 0. -1.
    2000013    1    1    2    0    0  0.10954447594E+04 -0.50867497249E+03 -0.15812667094E+03  0.15447503010E+04  0.95000000000E+03 0.  0.
   -2000013    1    1    2    0    0 -0.10954447594E+04  0.50867497249E+03 -0.16487804006E+03  0.15454559899E+04  0.95000000000E+03 0.  0.
<mgrwt>
<rscale>  0 0.30732788E+04</rscale>
<asrwt>0</asrwt>
<pdfrwt beam="1">  1        1 0.21286166E+00 0.30732788E+04</pdfrwt>
<pdfrwt beam="2">  1       -1 0.26255469E+00 0.30732788E+04</pdfrwt>
<totfact> 0.38535062E-01</totfact>
</mgrwt>
</event>
<event>
 4    1  0.2069825E-008  0.2065900E+04  0.7816531E-02  0.8576415E-01
          3   -1    0    0  501    0  0.00000000000E+00  0.00000000000E+00  0.22068840962E+04  0.22068840962E+04  0.00000000000E+00 0.  1.
         -3   -1    0    0    0  501 -0.00000000000E+00 -0.00000000000E+00 -0.48348059814E+03  0.48348059814E+03  0.00000000000E+00 0. -1.
    2000013    1    1    2    0    0 -0.27444425469E+03 -0.28499368131E+03  0.74562699605E+03  0.12708267642E+04  0.95000000000E+03 0.  0.
   -2000013    1    1    2    0    0  0.27444425469E+03  0.28499368131E+03  0.97777650203E+03  0.14195379302E+04  0.95000000000E+03 0.  0.
<mgrwt>
<rscale>  0 0.20658999E+04</rscale>
<asrwt>0</asrwt>
<pdfrwt beam="1">  1        3 0.33952063E+00 0.20658999E+04</pdfrwt>
<pdfrwt beam="2">  1       -3 0.74381632E-01 0.20658999E+04</pdfrwt>
<totfact> 0.97141916E-02</totfact>
</mgrwt>
</event>
<event>
 4    1  0.2069825E-008  0.2380978E+04  0.7816531E-02  0.8446659E-01
         -2   -1    0    0    0  501 -0.00000000000E+00  0.00000000000E+00  0.13989586741E+04  0.13989586741E+04  0.00000000000E+00 0. -1.
          2   -1    0    0  501    0  0.00000000000E+00 -0.00000000000E+00 -0.10130853040E+04  0.10130853040E+04  0.00000000000E+00 0.  1.
    2000013    1    1    2    0    0 -0.75844016602E+02  0.63385460013E+03  0.52468536263E+03  0.12590943963E+04  0.95000000000E+03 0.  0.
   -2000013    1    1    2    0    0  0.75844016602E+02 -0.63385460013E+03 -0.13881199251E+03  0.11529495818E+04  0.95000000000E+03 0.  0.
<mgrwt>
<rscale>  0 0.23809783E+04</rscale>
<asrwt>0</asrwt>
<pdfrwt beam="2">  1        2 0.15585928E+00 0.23809783E+04</pdfrwt>
<pdfrwt beam="1">  1       -2 0.21522441E+00 0.23809783E+04</pdfrwt>
<totfact> 0.23581570E+00</totfact>
</mgrwt>
</event>
<event>
 4    1  0.2069825E-008  0.3731486E+04  0.7816531E-02  0.8061020E-01
         -2   -1    0    0    0  501 -0.00000000000E+00  0.00000000000E+00  0.24135218873E+04  0.24135218873E+04  0.00000000000E+00 0. -1.
          2   -1    0    0  501    0  0.00000000000E+00 -0.00000000000E+00 -0.14422891497E+04  0.14422891497E+04  0.00000000000E+00 0.  1.
    2000013    1    1    2    0    0  0.13391064793E+04 -0.84615823806E+03  0.75764896950E+03  0.19964272808E+04  0.95000000000E+03 0.  0.
   -2000013    1    1    2    0    0 -0.13391064793E+04  0.84615823806E+03  0.21358376802E+03  0.18593837562E+04  0.95000000000E+03 0.  0.
<mgrwt>
<rscale>  0 0.37314857E+04</rscale>
<asrwt>0</asrwt>
<pdfrwt beam="2">  1        2 0.22189064E+00 0.37314857E+04</pdfrwt>
<pdfrwt beam="1">  1       -2 0.37131106E+00 0.37314857E+04</pdfrwt>
<totfact> 0.12561204E-01</totfact>
</mgrwt>
</event>
<event>
 4    1  0.2069825E-008  0.3731990E+04  0.7816531E-02  0.8060909E-01
          2   -1    0    0  501    0  0.00000000000E+00  0.00000000000E+00  0.41565890919E+04  0.41565890919E+04  0.00000000000E+00 0.  1.
         -2   -1    0    0    0  501 -0.00000000000E+00 -0.00000000000E+00 -0.83769104764E+03  0.83769104764E+03  0.00000000000E+00 0. -1.
    2000013    1    1    2    0    0 -0.13928013654E+04 -0.79965139134E+03  0.16727965200E+04  0.25060100136E+04  0.95000000000E+03 0.  0.
   -2000013    1    1    2    0    0  0.13928013654E+04  0.79965139134E+03  0.16461015243E+04  0.24882701259E+04  0.95000000000E+03 0.  0.
<mgrwt>
<rscale>  0 0.37319901E+04</rscale>
<asrwt>0</asrwt>
<pdfrwt beam="1">  1        2 0.63947524E+00 0.37319901E+04</pdfrwt>
<pdfrwt beam="2">  1       -2 0.12887555E+00 0.37319901E+04</pdfrwt>
<totfact> 0.90367776E-02</totfact>
</mgrwt>
</event>
<event>
 4    1  0.2069825E-008  0.3464608E+04  0.7816531E-02  0.8122229E-01
          2   -1    0    0  501    0  0.00000000000E+00  0.00000000000E+00  0.26550411237E+04  0.26550411237E+04  0.00000000000E+00 0.  1.
         -2   -1    0    0    0  501 -0.00000000000E+00 -0.00000000000E+00 -0.11302561937E+04  0.11302561937E+04  0.00000000000E+00 0. -1.
    2000013    1    1    2    0    0  0.13228744510E+04  0.22520462875E+03  0.16630750712E+03  0.16525350601E+04  0.95000000000E+03 0.  0.
   -2000013    1    1    2    0    0 -0.13228744510E+04 -0.22520462875E+03  0.13584774229E+04  0.21327622573E+04  0.95000000000E+03 0.  0.
<mgrwt>
<rscale>  0 0.34646077E+04</rscale>
<asrwt>0</asrwt>
<pdfrwt beam="1">  1        2 0.40846786E+00 0.34646077E+04</pdfrwt>
<pdfrwt beam="2">  1       -2 0.17388557E+00 0.34646077E+04</pdfrwt>
<totfact> 0.46545843E-01</totfact>
</mgrwt>
</event>
<event>
 4    1  0.2069825E-008  0.2061316E+04  0.7816531E-02  0.8578478E-01
          2   -1    0    0  501    0  0.00000000000E+00  0.00000000000E+00  0.20136209745E+04  0.20136209745E+04  0.00000000000E+00 0.  1.
         -2   -1    0    0    0  501 -0.00000000000E+00 -0.00000000000E+00 -0.52753494114E+03  0.52753494114E+03  0.00000000000E+00 0. -1.
    2000013    1    1    2    0    0  0.12970186855E+03  0.37021958433E+03  0.64858969351E+03  0.12153409834E+04  0.95000000000E+03 0.  0.
   -2000013    1    1    2    0    0 -0.12970186855E+03 -0.37021958433E+03  0.83749633982E+03  0.13258149322E+04  0.95000000000E+03 0.  0.
<mgrwt>
<rscale>  0 0.20613155E+04</rscale>
<asrwt>0</asrwt>
<pdfrwt beam="1">  1        2 0.30978784E+00 0.20613155E+04</pdfrwt>
<pdfrwt beam="2">  1       -2 0.81159223E-01 0.20613155E+04</pdfrwt>
<totfact> 0.81214479E+00</totfact>
</mgrwt>
</event>
<event>
 4    1  0.2069825E-008  0.2213384E+04  0.7816531E-02  0.8512878E-01
         -2   -1    0    0    0  501 -0.00000000000E+00  0.00000000000E+00  0.51564233343E+03  0.51564233343E+03  0.00000000000E+00 0. -1.
          2   -1    0    0  501    0  0.00000000000E+00 -0.00000000000E+00 -0.23752253051E+04  0.23752253051E+04  0.00000000000E+00 0.  1.
    2000013    1    1    2    0    0  0.32237884198E+03 -0.30079391761E+03 -0.13968180945E+04  0.17458539136E+04  0.95000000000E+03 0.  0.
   -2000013    1    1    2    0    0 -0.32237884198E+03  0.30079391761E+03 -0.46276487715E+03  0.11450137249E+04  0.95000000000E+03 0.  0.
<mgrwt>
<rscale>  0 0.22133836E+04</rscale>
<asrwt>0</asrwt>
<pdfrwt beam="2">  1        2 0.36541927E+00 0.22133836E+04</pdfrwt>
<pdfrwt beam="1">  1       -2 0.79329592E-01 0.22133836E+04</pdfrwt>
<totfact> 0.52828693E+00</totfact>
</mgrwt>
</event>
<event>
 4    1  0.2069825E-008  0.2149318E+04  0.7816531E-02  0.8539824E-01
         -2   -1    0    0    0  501 -0.00000000000E+00  0.00000000000E+00  0.77463864423E+03  0.77463864423E+03  0.00000000000E+00 0. -1.
          2   -1    0    0  501    0  0.00000000000E+00 -0.00000000000E+00 -0.14908780803E+04  0.14908780803E+04  0.00000000000E+00 0.  1.
    2000013    1    1    2    0    0  0.44271823887E+03 -0.21532878995E+03 -0.25257726311E+03  0.10993912864E+04  0.95000000000E+03 0.  0.
   -2000013    1    1    2    0    0 -0.44271823887E+03  0.21532878995E+03 -0.46366217298E+03  0.11661254381E+04  0.95000000000E+03 0.  0.
<mgrwt>
<rscale>  0 0.21493178E+04</rscale>
<asrwt>0</asrwt>
<pdfrwt beam="2">  1        2 0.22936586E+00 0.21493178E+04</pdfrwt>
<pdfrwt beam="1">  1       -2 0.11917518E+00 0.21493178E+04</pdfrwt>
<totfact> 0.63699413E+00</totfact>
</mgrwt>
</event>
<event>
 4    1  0.2069825E-008  0.3070235E+04  0.7816531E-02  0.8223955E-01
          2   -1    0    0  501    0  0.00000000000E+00  0.00000000000E+00  0.14234606379E+04  0.14234606379E+04  0.00000000000E+00 0.  1.
         -2   -1    0    0    0  501 -0.00000000000E+00 -0.00000000000E+00 -0.16555324723E+04  0.16555324723E+04  0.00000000000E+00 0. -1.
    2000013    1    1    2    0    0  0.51387786482E+02  0.11979467754E+04 -0.24433886717E+03  0.15491670869E+04  0.95000000000E+03 0.  0.
   -2000013    1    1    2    0    0 -0.51387786482E+02 -0.11979467754E+04  0.12267032801E+02  0.15298260232E+04  0.95000000000E+03 0.  0.
<mgrwt>
<rscale>  0 0.30702347E+04</rscale>
<asrwt>0</asrwt>
<pdfrwt beam="1">  1        2 0.21899394E+00 0.30702347E+04</pdfrwt>
<pdfrwt beam="2">  1       -2 0.25469730E+00 0.30702347E+04</pdfrwt>
<totfact> 0.71801016E-01</totfact>
</mgrwt>
</event>
<event>
 4    1  0.2069825E-008  0.2766922E+04  0.7816531E-02  0.8313612E-01
          2   -1    0    0  501    0  0.00000000000E+00  0.00000000000E+00  0.14539222637E+04  0.14539222637E+04  0.00000000000E+00 0.  1.
         -2   -1    0    0    0  501 -0.00000000000E+00 -0.00000000000E+00 -0.13164148889E+04  0.13164148889E+04  0.00000000000E+00 0. -1.
    2000013    1    1    2    0    0 -0.77264138755E+03  0.53486609617E+02 -0.57362160592E+03  0.13532838867E+04  0.95000000000E+03 0.  0.
   -2000013    1    1    2    0    0  0.77264138755E+03 -0.53486609617E+02  0.71112898069E+03  0.14170532659E+04  0.95000000000E+03 0.  0.
<mgrwt>
<rscale>  0 0.27669224E+04</rscale>
<asrwt>0</asrwt>
<pdfrwt beam="1">  1        2 0.22368035E+00 0.27669224E+04</pdfrwt>
<pdfrwt beam="2">  1       -2 0.20252537E+00 0.27669224E+04</pdfrwt>
<totfact> 0.15060038E+00</totfact>
</mgrwt>
</event>
<event>
 4    1  0.2069825E-008  0.2191508E+04  0.7816531E-02  0.8521971E-01
          2   -1    0    0  501    0  0.00000000000E+00  0.00000000000E+00  0.99613556725E+03  0.99613556725E+03  0.00000000000E+00 0.  1.
         -2   -1    0    0    0  501 -0.00000000000E+00 -0.00000000000E+00 -0.12053349780E+04  0.12053349780E+04  0.00000000000E+00 0. -1.
    2000013    1    1    2    0    0  0.38166272707E+03 -0.31882784901E+03  0.12194578855E+03  0.10792073063E+04  0.95000000000E+03 0.  0.
   -2000013    1    1    2    0    0 -0.38166272707E+03  0.31882784901E+03 -0.33114519929E+03  0.11222632390E+04  0.95000000000E+03 0.  0.
<mgrwt>
<rscale>  0 0.21915082E+04</rscale>
<asrwt>0</asrwt>
<pdfrwt beam="1">  1        2 0.15325163E+00 0.21915082E+04</pdfrwt>
<pdfrwt beam="2">  1       -2 0.18543615E+00 0.21915082E+04</pdfrwt>
<totfact> 0.38551715E+00</totfact>
</mgrwt>
</event>
<event>
 4    1  0.2069825E-008  0.3167548E+04  0.7816531E-02  0.8197441E-01
          2   -1    0    0  501    0  0.00000000000E+00  0.00000000000E+00  0.21946637855E+04  0.21946637855E+04  0.00000000000E+00 0.  1.
         -2   -1    0    0    0  501 -0.00000000000E+00 -0.00000000000E+00 -0.11429265319E+04  0.11429265319E+04  0.00000000000E+00 0. -1.
    2000013    1    1    2    0    0  0.10718692700E+04 -0.32128929438E+03 -0.10079268748E+03  0.14713224353E+04  0.95000000000E+03 0.  0.
   -2000013    1    1    2    0    0 -0.10718692700E+04  0.32128929438E+03  0.11525299411E+04  0.18662678821E+04  0.95000000000E+03 0.  0.
<mgrwt>
<rscale>  0 0.31675476E+04</rscale>
<asrwt>0</asrwt>
<pdfrwt beam="1">  1        2 0.33764058E+00 0.31675476E+04</pdfrwt>
<pdfrwt beam="2">  1       -2 0.17583485E+00 0.31675476E+04</pdfrwt>
<totfact> 0.85101500E-01</totfact>
</mgrwt>
</event>
<event>
 4    1  0.2069825E-008  0.2617119E+04  0.7816531E-02  0.8362410E-01
          2   -1    0    0  501    0  0.00000000000E+00  0.00000000000E+00  0.29838522299E+03  0.29838522299E+03  0.00000000000E+00 0. -1.
         -2   -1    0    0    0  501 -0.00000000000E+00 -0.00000000000E+00 -0.57386468507E+04  0.57386468507E+04  0.00000000000E+00 0.  1.
    2000013    1    1    2    0    0  0.42061278936E+03  0.78842778196E+03 -0.29652756276E+04  0.32394278867E+04  0.95000000000E+03 0.  0.
   -2000013    1    1    2    0    0 -0.42061278936E+03 -0.78842778196E+03 -0.24749860001E+04  0.27976041869E+04  0.95000000000E+03 0.  0.
<mgrwt>
<rscale>  0 0.26171186E+04</rscale>
<asrwt>0</asrwt>
<pdfrwt beam="1">  1        2 0.45905421E-01 0.26171186E+04</pdfrwt>
<pdfrwt beam="2">  1       -2 0.88286872E+00 0.26171186E+04</pdfrwt>
<totfact> 0.14832916E-03</totfact>
</mgrwt>
</event>
<event>
 4    1  0.2069825E-008  0.2725791E+04  0.7816531E-02  0.8326685E-01
         -2   -1    0    0    0  501 -0.00000000000E+00  0.00000000000E+00  0.70640232602E+03  0.70640232602E+03  0.00000000000E+00 0. -1.
          2   -1    0    0  501    0  0.00000000000E+00 -0.00000000000E+00 -0.26294989178E+04  0.26294989178E+04  0.00000000000E+00 0.  1.
    2000013    1    1    2    0    0  0.80725406200E+03 -0.24514260108E+03 -0.15651206271E+04  0.20159009382E+04  0.95000000000E+03 0.  0.
   -2000013    1    1    2    0    0 -0.80725406200E+03  0.24514260108E+03 -0.35797596472E+03  0.13200003056E+04  0.95000000000E+03 0.  0.
<mgrwt>
<rscale>  0 0.27257910E+04</rscale>
<asrwt>0</asrwt>
<pdfrwt beam="2">  1        2 0.40453829E+00 0.27257910E+04</pdfrwt>
<pdfrwt beam="1">  1       -2 0.10867728E+00 0.27257910E+04</pdfrwt>
<totfact> 0.17312708E+00</totfact>
</mgrwt>
</event>
<event>
 4    1  0.2069825E-008  0.2335139E+04  0.7816531E-02  0.8464194E-01
          2   -1    0    0  501    0  0.00000000000E+00  0.00000000000E+00  0.12729271170E+04  0.12729271170E+04  0.00000000000E+00 0.  1.
         -2   -1    0    0    0  501 -0.00000000000E+00 -0.00000000000E+00 -0.10709324664E+04  0.10709324664E+04  0.00000000000E+00 0. -1.
    2000013    1    1    2    0    0  0.30022818886E+03 -0.43786817750E+03  0.52548733059E+03  0.12085124910E+04  0.95000000000E+03 0.  0.
   -2000013    1    1    2    0    0 -0.30022818886E+03  0.43786817750E+03 -0.32349268003E+03  0.11353470924E+04  0.95000000000E+03 0.  0.
<mgrwt>
<rscale>  0 0.23351394E+04</rscale>
<asrwt>0</asrwt>
<pdfrwt beam="1">  1        2 0.19583494E+00 0.23351394E+04</pdfrwt>
<pdfrwt beam="2">  1       -2 0.16475884E+00 0.23351394E+04</pdfrwt>
<totfact> 0.36034111E+00</totfact>
</mgrwt>
</event>
<event>
 4    1  0.2069825E-008  0.2330204E+04  0.7816531E-02  0.8466107E-01
         -2   -1    0    0    0  501 -0.00000000000E+00  0.00000000000E+00  0.93305585415E+03  0.93305585415E+03  0.00000000000E+00 0. -1.
          2   -1    0    0  501    0  0.00000000000E+00 -0.00000000000E+00 -0.14548562580E+04  0.14548562580E+04  0.00000000000E+00 0.  1.
    2000013    1    1    2    0    0  0.24147912655E+03 -0.31499215322E+03  0.29797753288E+03  0.10718315331E+04  0.95000000000E+03 0.  0.
   -2000013    1    1    2    0    0 -0.24147912655E+03  0.31499215322E+03 -0.81977793677E+03  0.13160805791E+04  0.95000000000E+03 0.  0.
<mgrwt>
<rscale>  0 0.23302036E+04</rscale>
<asrwt>0</asrwt>
<pdfrwt beam="2">  1        2 0.22382404E+00 0.23302036E+04</pdfrwt>
<pdfrwt beam="1">  1       -2 0.14354705E+00 0.23302036E+04</pdfrwt>
<totfact> 0.40975995E+00</totfact>
</mgrwt>
</event>
<event>
 4    1  0.2069825E-008  0.3054288E+04  0.7816531E-02  0.8228396E-01
         -2   -1    0    0    0  501 -0.00000000000E+00  0.00000000000E+00  0.12008319161E+04  0.12008319161E+04  0.00000000000E+00 0. -1.
          2   -1    0    0  501    0  0.00000000000E+00 -0.00000000000E+00 -0.19421276870E+04  0.19421276870E+04  0.00000000000E+00 0.  1.
    2000013    1    1    2    0    0  0.31581125153E+03 -0.85349825395E+03  0.42741448375E+03  0.13832494920E+04  0.95000000000E+03 0.  0.
   -2000013    1    1    2    0    0 -0.31581125153E+03  0.85349825395E+03 -0.11687102547E+04  0.17597101112E+04  0.95000000000E+03 0.  0.
<mgrwt>
<rscale>  0 0.30542881E+04</rscale>
<asrwt>0</asrwt>
<pdfrwt beam="2">  1        2 0.29878887E+00 0.30542881E+04</pdfrwt>
<pdfrwt beam="1">  1       -2 0.18474338E+00 0.30542881E+04</pdfrwt>
<totfact> 0.10316378E+00</totfact>
</mgrwt>
</event>
<event>
 4    1  0.2069825E-008  0.2273624E+04  0.7816531E-02  0.8488394E-01
         -2   -1    0    0    0  501 -0.00000000000E+00  0.00000000000E+00  0.13151712049E+04  0.13151712049E+04  0.00000000000E+00 0.  1.
          2   -1    0    0  501    0  0.00000000000E+00 -0.00000000000E+00 -0.98264138484E+03  0.98264138484E+03  0.00000000000E+00 0. -1.
    2000013    1    1    2    0    0  0.34995776541E+02 -0.58946366030E+03 -0.38746694741E+02  0.11192378735E+04  0.95000000000E+03 0.  0.
   -2000013    1    1    2    0    0 -0.34995776541E+02  0.58946366030E+03  0.37127651477E+03  0.11785747162E+04  0.95000000000E+03 0.  0.
<mgrwt>
<rscale>  0 0.22736241E+04</rscale>
<asrwt>0</asrwt>
<pdfrwt beam="2">  1        2 0.15117560E+00 0.22736241E+04</pdfrwt>
<pdfrwt beam="1">  1       -2 0.20233403E+00 0.22736241E+04</pdfrwt>
<totfact> 0.30145325E+00</totfact>
</mgrwt>
</event>
<event>
 4    1  0.2069825E-008  0.2847679E+04  0.7816531E-02  0.8288617E-01
         -1   -1    0    0    0  501 -0.00000000000E+00  0.00000000000E+00  0.85098176853E+03  0.85098176853E+03  0.00000000000E+00 0. -1.
          1   -1    0    0  501    0  0.00000000000E+00 -0.00000000000E+00 -0.23823292755E+04  0.23823292755E+04  0.00000000000E+00 0.  1.
    2000013    1    1    2    0    0 -0.46661946635E+03  0.88232783648E+03 -0.35853012585E+03  0.14238258280E+04  0.95000000000E+03 0.  0.
   -2000013    1    1    2    0    0  0.46661946635E+03 -0.88232783648E+03 -0.11728173811E+04  0.18094852160E+04  0.95000000000E+03 0.  0.
<mgrwt>
<rscale>  0 0.28476789E+04</rscale>
<asrwt>0</asrwt>
<pdfrwt beam="2">  1        1 0.36651219E+00 0.28476789E+04</pdfrwt>
<pdfrwt beam="1">  1       -1 0.13092028E+00 0.28476789E+04</pdfrwt>
<totfact> 0.70153402E-01</totfact>
</mgrwt>
</event>
<event>
 4    1  0.2069825E-008  0.2511025E+04  0.7816531E-02  0.8399068E-01
         -2   -1    0    0    0  501 -0.00000000000E+00  0.00000000000E+00  0.47986855143E+03  0.47986855143E+03  0.00000000000E+00 0. -1.
          2   -1    0    0  501    0  0.00000000000E+00 -0.00000000000E+00 -0.32848819905E+04  0.32848819905E+04  0.00000000000E+00 0.  1.
    2000013    1    1    2    0    0 -0.67811964615E+03  0.34607687244E+03 -0.94235435954E+03  0.15395282378E+04  0.95000000000E+03 0.  0.
   -2000013    1    1    2    0    0  0.67811964615E+03 -0.34607687244E+03 -0.18626590796E+04  0.22252223041E+04  0.95000000000E+03 0.  0.
<mgrwt>
<rscale>  0 0.25110249E+04</rscale>
<asrwt>0</asrwt>
<pdfrwt beam="2">  1        2 0.50536647E+00 0.25110249E+04</pdfrwt>
<pdfrwt beam="1">  1       -2 0.73825929E-01 0.25110249E+04</pdfrwt>
<totfact> 0.16808779E+00</totfact>
</mgrwt>
</event>
<event>
 4    1  0.2069825E-008  0.3057887E+04  0.7816531E-02  0.8227391E-01
          2   -1    0    0  501    0  0.00000000000E+00  0.00000000000E+00  0.19601334666E+04  0.19601334666E+04  0.00000000000E+00 0.  1.
         -2   -1    0    0    0  501 -0.00000000000E+00 -0.00000000000E+00 -0.11926063951E+04  0.11926063951E+04  0.00000000000E+00 0. -1.
    2000013    1    1    2    0    0  0.99051177140E+03 -0.31024688384E+03 -0.23295575621E+03  0.14262310761E+04  0.95000000000E+03 0.  0.
   -2000013    1    1    2    0    0 -0.99051177140E+03  0.31024688384E+03  0.10004828277E+04  0.17265087856E+04  0.95000000000E+03 0.  0.
<mgrwt>
<rscale>  0 0.30578867E+04</rscale>
<asrwt>0</asrwt>
<pdfrwt beam="1">  1        2 0.30155900E+00 0.30578867E+04</pdfrwt>
<pdfrwt beam="2">  1       -2 0.18347791E+00 0.30578867E+04</pdfrwt>
<totfact> 0.10280909E+00</totfact>
</mgrwt>
</event>
<event>
 4    1  0.2069825E-008  0.2113530E+04  0.7816531E-02  0.8555307E-01
          2   -1    0    0  501    0  0.00000000000E+00  0.00000000000E+00  0.13858802103E+04  0.13858802103E+04  0.00000000000E+00 0.  1.
         -2   -1    0    0    0  501 -0.00000000000E+00 -0.00000000000E+00 -0.80580692466E+03  0.80580692466E+03  0.00000000000E+00 0. -1.
    2000013    1    1    2    0    0  0.39292986781E+03  0.18531466659E+03  0.45568245484E+03  0.11396850031E+04  0.95000000000E+03 0.  0.
   -2000013    1    1    2    0    0 -0.39292986781E+03 -0.18531466659E+03  0.12439083082E+03  0.10520021319E+04  0.95000000000E+03 0.  0.
<mgrwt>
<rscale>  0 0.21135296E+04</rscale>
<asrwt>0</asrwt>
<pdfrwt beam="1">  1        2 0.21321234E+00 0.21135296E+04</pdfrwt>
<pdfrwt beam="2">  1       -2 0.12397030E+00 0.21135296E+04</pdfrwt>
<totfact> 0.66449823E+00</totfact>
</mgrwt>
</event>
<event>
 4    1  0.2069825E-008  0.4274837E+04  0.7816531E-02  0.7951287E-01
         -2   -1    0    0    0  501 -0.00000000000E+00  0.00000000000E+00  0.23272175867E+04  0.23272175867E+04  0.00000000000E+00 0. -1.
          2   -1    0    0  501    0  0.00000000000E+00 -0.00000000000E+00 -0.19630990890E+04  0.19630990890E+04  0.00000000000E+00 0.  1.
    2000013    1    1    2    0    0 -0.11593497880E+04  0.15057812535E+04 -0.52430976460E+02  0.21252571895E+04  0.95000000000E+03 0.  0.
   -2000013    1    1    2    0    0  0.11593497880E+04 -0.15057812535E+04  0.41654947418E+03  0.21650594862E+04  0.95000000000E+03 0.  0.
<mgrwt>
<rscale>  0 0.42748374E+04</rscale>
<asrwt>0</asrwt>
<pdfrwt beam="2">  1        2 0.30201525E+00 0.42748374E+04</pdfrwt>
<pdfrwt beam="1">  1       -2 0.35803347E+00 0.42748374E+04</pdfrwt>
<totfact> 0.74790287E-02</totfact>
</mgrwt>
</event>
<event>
 4    1  0.2069825E-008  0.2617671E+04  0.7816531E-02  0.8362223E-01
          2   -1    0    0  501    0  0.00000000000E+00  0.00000000000E+00  0.12727223562E+04  0.12727223562E+04  0.00000000000E+00 0.  1.
         -2   -1    0    0    0  501 -0.00000000000E+00 -0.00000000000E+00 -0.13459733751E+04  0.13459733751E+04  0.00000000000E+00 0. -1.
    2000013    1    1    2    0    0  0.47767359514E+03 -0.62703129485E+02 -0.79748004230E+03  0.13306307391E+04  0.95000000000E+03 0.  0.
   -2000013    1    1    2    0    0 -0.47767359514E+03  0.62703129485E+02  0.72422902336E+03  0.12880649922E+04  0.95000000000E+03 0.  0.
<mgrwt>
<rscale>  0 0.26176710E+04</rscale>
<asrwt>0</asrwt>
<pdfrwt beam="1">  1        2 0.19580344E+00 0.26176710E+04</pdfrwt>
<pdfrwt beam="2">  1       -2 0.20707283E+00 0.26176710E+04</pdfrwt>
<totfact> 0.18118345E+00</totfact>
</mgrwt>
</event>
<event>
 4    1  0.2069825E-008  0.2549604E+04  0.7816531E-02  0.8385524E-01
         -2   -1    0    0    0  501 -0.00000000000E+00  0.00000000000E+00  0.44221371937E+03  0.44221371937E+03  0.00000000000E+00 0. -1.
          2   -1    0    0  501    0  0.00000000000E+00 -0.00000000000E+00 -0.36749658853E+04  0.36749658853E+04  0.00000000000E+00 0.  1.
    2000013    1    1    2    0    0 -0.30949060703E+03 -0.58284818570E+03 -0.24816661516E+04  0.27380035302E+04  0.95000000000E+03 0.  0.
   -2000013    1    1    2    0    0  0.30949060703E+03  0.58284818570E+03 -0.75108601428E+03  0.13791760744E+04  0.95000000000E+03 0.  0.
<mgrwt>
<rscale>  0 0.25496042E+04</rscale>
<asrwt>0</asrwt>
<pdfrwt beam="2">  1        2 0.56537936E+00 0.25496042E+04</pdfrwt>
<pdfrwt beam="1">  1       -2 0.68032881E-01 0.25496042E+04</pdfrwt>
<totfact> 0.10717401E+00</totfact>
</mgrwt>
</event>
<event>
 4    1  0.2069825E-008  0.2977707E+04  0.7816531E-02  0.8250126E-01
          1   -1    0    0  501    0  0.00000000000E+00  0.00000000000E+00  0.19417156623E+04  0.19417156623E+04  0.00000000000E+00 0. -1.
         -1   -1    0    0    0  501 -0.00000000000E+00 -0.00000000000E+00 -0.11416110957E+04  0.11416110957E+04  0.00000000000E+00 0.  1.
    2000013    1    1    2    0    0 -0.96665317737E+03  0.78316053583E+02  0.10329884305E+04  0.17059064649E+04  0.95000000000E+03 0.  0.
   -2000013    1    1    2    0    0  0.96665317737E+03 -0.78316053583E+02 -0.23288386384E+03  0.13774202930E+04  0.95000000000E+03 0.  0.
<mgrwt>
<rscale>  0 0.29777066E+04</rscale>
<asrwt>0</asrwt>
<pdfrwt beam="1">  1        1 0.29872549E+00 0.29777066E+04</pdfrwt>
<pdfrwt beam="2">  1       -1 0.17563248E+00 0.29777066E+04</pdfrwt>
<totfact> 0.62291883E-01</totfact>
</mgrwt>
</event>
<event>
 4    1  0.2069825E-008  0.1994258E+04  0.7816531E-02  0.8609310E-01
         -2   -1    0    0    0  501 -0.00000000000E+00  0.00000000000E+00  0.59365349895E+03  0.59365349895E+03  0.00000000000E+00 0. -1.
          2   -1    0    0  501    0  0.00000000000E+00 -0.00000000000E+00 -0.16748257696E+04  0.16748257696E+04  0.00000000000E+00 0.  1.
    2000013    1    1    2    0    0 -0.17397536879E+03 -0.24447656370E+03 -0.49327412468E+03  0.11116904161E+04  0.95000000000E+03 0.  0.
   -2000013    1    1    2    0    0  0.17397536879E+03  0.24447656370E+03 -0.58789814596E+03  0.11567888525E+04  0.95000000000E+03 0.  0.
<mgrwt>
<rscale>  0 0.19942579E+04</rscale>
<asrwt>0</asrwt>
<pdfrwt beam="2">  1        2 0.25766550E+00 0.19942579E+04</pdfrwt>
<pdfrwt beam="1">  1       -2 0.91331309E-01 0.19942579E+04</pdfrwt>
<totfact> 0.96171531E+00</totfact>
</mgrwt>
</event>
<event>
 4    1  0.2069825E-008  0.2288933E+04  0.7816531E-02  0.8482298E-01
         -2   -1    0    0    0  501 -0.00000000000E+00  0.00000000000E+00  0.49845271567E+03  0.49845271567E+03  0.00000000000E+00 0. -1.
          2   -1    0    0  501    0  0.00000000000E+00 -0.00000000000E+00 -0.26277387288E+04  0.26277387288E+04  0.00000000000E+00 0.  1.
    2000013    1    1    2    0    0  0.53692118495E+03  0.27794605631E+03 -0.78552397326E+03  0.13729844433E+04  0.95000000000E+03 0.  0.
   -2000013    1    1    2    0    0 -0.53692118495E+03 -0.27794605631E+03 -0.13437620399E+04  0.17532070012E+04  0.95000000000E+03 0.  0.
<mgrwt>
<rscale>  0 0.22889329E+04</rscale>
<asrwt>0</asrwt>
<pdfrwt beam="2">  1        2 0.40426749E+00 0.22889329E+04</pdfrwt>
<pdfrwt beam="1">  1       -2 0.76685034E-01 0.22889329E+04</pdfrwt>
<totfact> 0.40425224E+00</totfact>
</mgrwt>
</event>
<event>
 4    1  0.2069825E-008  0.2106529E+04  0.7816531E-02  0.8558373E-01
         -2   -1    0    0    0  501 -0.00000000000E+00  0.00000000000E+00  0.64703588522E+03  0.64703588522E+03  0.00000000000E+00 0. -1.
          2   -1    0    0  501    0  0.00000000000E+00 -0.00000000000E+00 -0.17145363745E+04  0.17145363745E+04  0.00000000000E+00 0.  1.
    2000013    1    1    2    0    0  0.41707667850E+03 -0.48341802692E+02 -0.33771740214E+03  0.10921734887E+04  0.95000000000E+03 0.  0.
   -2000013    1    1    2    0    0 -0.41707667850E+03  0.48341802692E+02 -0.72978308709E+03  0.12693987710E+04  0.95000000000E+03 0.  0.
<mgrwt>
<rscale>  0 0.21065294E+04</rscale>
<asrwt>0</asrwt>
<pdfrwt beam="2">  1        2 0.26377483E+00 0.21065294E+04</pdfrwt>
<pdfrwt beam="1">  1       -2 0.99543982E-01 0.21065294E+04</pdfrwt>
<totfact> 0.74034297E+00</totfact>
</mgrwt>
</event>
<event>
 4    1  0.2069825E-008  0.2975538E+04  0.7816531E-02  0.8250751E-01
         -2   -1    0    0    0  501 -0.00000000000E+00  0.00000000000E+00  0.11032447403E+04  0.11032447403E+04  0.00000000000E+00 0. -1.
          2   -1    0    0  501    0  0.00000000000E+00 -0.00000000000E+00 -0.20063147479E+04  0.20063147479E+04  0.00000000000E+00 0.  1.
    2000013    1    1    2    0    0 -0.10386657769E+04  0.36208915139E+03 -0.78368888650E+03  0.16512429925E+04  0.95000000000E+03 0.  0.
   -2000013    1    1    2    0    0  0.10386657769E+04 -0.36208915139E+03 -0.11938112112E+03  0.14583164957E+04  0.95000000000E+03 0.  0.
<mgrwt>
<rscale>  0 0.29755377E+04</rscale>
<asrwt>0</asrwt>
<pdfrwt beam="2">  1        2 0.30866380E+00 0.29755377E+04</pdfrwt>
<pdfrwt beam="1">  1       -2 0.16972996E+00 0.29755377E+04</pdfrwt>
<totfact> 0.12170381E+00</totfact>
</mgrwt>
</event>
<event>
 4    1  0.2069825E-008  0.2603584E+04  0.7816531E-02  0.8366985E-01
         -2   -1    0    0    0  501 -0.00000000000E+00  0.00000000000E+00  0.83552770277E+03  0.83552770277E+03  0.00000000000E+00 0. -1.
          2   -1    0    0  501    0  0.00000000000E+00 -0.00000000000E+00 -0.20282544417E+04  0.20282544417E+04  0.00000000000E+00 0.  1.
    2000013    1    1    2    0    0 -0.73333639956E+03 -0.28736033675E+03 -0.10522802262E+04  0.16217743099E+04  0.95000000000E+03 0.  0.
   -2000013    1    1    2    0    0  0.73333639956E+03  0.28736033675E+03 -0.14044651277E+03  0.12420078345E+04  0.95000000000E+03 0.  0.
<mgrwt>
<rscale>  0 0.26035843E+04</rscale>
<asrwt>0</asrwt>
<pdfrwt beam="2">  1        2 0.31203914E+00 0.26035843E+04</pdfrwt>
<pdfrwt beam="1">  1       -2 0.12854272E+00 0.26035843E+04</pdfrwt>
<totfact> 0.25462978E+00</totfact>
</mgrwt>
</event>
<event>
 4    1  0.2069825E-008  0.2597834E+04  0.7816531E-02  0.8368937E-01
         -2   -1    0    0    0  501 -0.00000000000E+00  0.00000000000E+00  0.57669943344E+03  0.57669943344E+03  0.00000000000E+00 0. -1.
          2   -1    0    0  501    0  0.00000000000E+00 -0.00000000000E+00 -0.29255888389E+04  0.29255888389E+04  0.00000000000E+00 0.  1.
    2000013    1    1    2    0    0  0.38001125888E+03 -0.72356374445E+03 -0.16350576599E+04  0.20600647078E+04  0.95000000000E+03 0.  0.
   -2000013    1    1    2    0    0 -0.38001125888E+03  0.72356374445E+03 -0.71383174558E+03  0.14422235646E+04  0.95000000000E+03 0.  0.
<mgrwt>
<rscale>  0 0.25978340E+04</rscale>
<asrwt>0</asrwt>
<pdfrwt beam="2">  1        2 0.45009058E+00 0.25978340E+04</pdfrwt>
<pdfrwt beam="1">  1       -2 0.88722992E-01 0.25978340E+04</pdfrwt>
<totfact> 0.18717593E+00</totfact>
</mgrwt>
</event>
<event>
 4    1  0.2069825E-008  0.2963893E+04  0.7816531E-02  0.8254117E-01
          1   -1    0    0  501    0  0.00000000000E+00  0.00000000000E+00  0.28494607930E+04  0.28494607930E+04  0.00000000000E+00 0.  1.
         -1   -1    0    0    0  501 -0.00000000000E+00 -0.00000000000E+00 -0.77073037875E+03  0.77073037875E+03  0.00000000000E+00 0. -1.
    2000013    1    1    2    0    0  0.11269461887E+04 -0.60842379922E+02  0.12119136301E+04  0.19091736836E+04  0.95000000000E+03 0.  0.
   -2000013    1    1    2    0    0 -0.11269461887E+04  0.60842379922E+02  0.86681678416E+03  0.17110174881E+04  0.95000000000E+03 0.  0.
<mgrwt>
<rscale>  0 0.29638934E+04</rscale>
<asrwt>0</asrwt>
<pdfrwt beam="1">  1        1 0.43837858E+00 0.29638934E+04</pdfrwt>
<pdfrwt beam="2">  1       -1 0.11857391E+00 0.29638934E+04</pdfrwt>
<totfact> 0.41777489E-01</totfact>
</mgrwt>
</event>
<event>
 4    1  0.2069825E-008  0.2114696E+04  0.7816531E-02  0.8554797E-01
         -1   -1    0    0    0  501 -0.00000000000E+00  0.00000000000E+00  0.14495183208E+04  0.14495183208E+04  0.00000000000E+00 0. -1.
          1   -1    0    0  501    0  0.00000000000E+00 -0.00000000000E+00 -0.77128026314E+03  0.77128026314E+03  0.00000000000E+00 0.  1.
    2000013    1    1    2    0    0  0.32255928310E+03 -0.33382352171E+03  0.33754827168E+03  0.11099195784E+04  0.95000000000E+03 0.  0.
   -2000013    1    1    2    0    0 -0.32255928310E+03  0.33382352171E+03  0.34068978600E+03  0.11108790056E+04  0.95000000000E+03 0.  0.
<mgrwt>
<rscale>  0 0.21146961E+04</rscale>
<asrwt>0</asrwt>
<pdfrwt beam="2">  1        1 0.11865850E+00 0.21146961E+04</pdfrwt>
<pdfrwt beam="1">  1       -1 0.22300282E+00 0.21146961E+04</pdfrwt>
<totfact> 0.22617989E+00</totfact>
</mgrwt>
</event>
<event>
 4    1  0.2069825E-008  0.2524830E+04  0.7816531E-02  0.8394193E-01
         -2   -1    0    0    0  501 -0.00000000000E+00  0.00000000000E+00  0.71173941891E+03  0.71173941891E+03  0.00000000000E+00 0. -1.
          2   -1    0    0  501    0  0.00000000000E+00 -0.00000000000E+00 -0.22391500484E+04  0.22391500484E+04  0.00000000000E+00 0.  1.
    2000013    1    1    2    0    0  0.35273989869E+03 -0.61215433126E+03 -0.12758689786E+04  0.17405458948E+04  0.95000000000E+03 0.  0.
   -2000013    1    1    2    0    0 -0.35273989869E+03  0.61215433126E+03 -0.25154165092E+03  0.12103435725E+04  0.95000000000E+03 0.  0.
<mgrwt>
<rscale>  0 0.25248298E+04</rscale>
<asrwt>0</asrwt>
<pdfrwt beam="2">  1        2 0.34448462E+00 0.25248298E+04</pdfrwt>
<pdfrwt beam="1">  1       -2 0.10949837E+00 0.25248298E+04</pdfrwt>
<totfact> 0.29016461E+00</totfact>
</mgrwt>
</event>
<event>
 4    1  0.2069825E-008  0.2599372E+04  0.7816531E-02  0.8368415E-01
          2   -1    0    0  501    0  0.00000000000E+00  0.00000000000E+00  0.17052264098E+04  0.17052264098E+04  0.00000000000E+00 0.  1.
         -2   -1    0    0    0  501 -0.00000000000E+00 -0.00000000000E+00 -0.99059181758E+03  0.99059181758E+03  0.00000000000E+00 0. -1.
    2000013    1    1    2    0    0  0.66150635275E+03  0.53349783549E+03  0.62065331044E+03  0.14177168712E+04  0.95000000000E+03 0.  0.
   -2000013    1    1    2    0    0 -0.66150635275E+03 -0.53349783549E+03  0.93981281745E+02  0.12781013561E+04  0.95000000000E+03 0.  0.
<mgrwt>
<rscale>  0 0.25993717E+04</rscale>
<asrwt>0</asrwt>
<pdfrwt beam="1">  1        2 0.26234252E+00 0.25993717E+04</pdfrwt>
<pdfrwt beam="2">  1       -2 0.15239874E+00 0.25993717E+04</pdfrwt>
<totfact> 0.24755995E+00</totfact>
</mgrwt>
</event>
<event>
 4    1  0.2069825E-008  0.2775398E+04  0.7816531E-02  0.8310947E-01
         -2   -1    0    0    0  501 -0.00000000000E+00  0.00000000000E+00  0.83672885849E+03  0.83672885849E+03  0.00000000000E+00 0. -1.
          2   -1    0    0  501    0  0.00000000000E+00 -0.00000000000E+00 -0.23014725965E+04  0.23014725965E+04  0.00000000000E+00 0.  1.
    2000013    1    1    2    0    0 -0.14474010542E+03 -0.50564952480E+03  0.24462453406E+03  0.11130913272E+04  0.95000000000E+03 0.  0.
   -2000013    1    1    2    0    0  0.14474010542E+03  0.50564952480E+03 -0.17093682720E+04  0.20251101278E+04  0.95000000000E+03 0.  0.
<mgrwt>
<rscale>  0 0.27753980E+04</rscale>
<asrwt>0</asrwt>
<pdfrwt beam="2">  1        2 0.35407270E+00 0.27753980E+04</pdfrwt>
<pdfrwt beam="1">  1       -2 0.12872752E+00 0.27753980E+04</pdfrwt>
<totfact> 0.17564402E+00</totfact>
</mgrwt>
</event>
<event>
 4    1  0.2069825E-008  0.3346669E+04  0.7816531E-02  0.8151121E-01
          2   -1    0    0  501    0  0.00000000000E+00  0.00000000000E+00  0.37292178187E+04  0.37292178187E+04  0.00000000000E+00 0.  1.
         -2   -1    0    0    0  501 -0.00000000000E+00 -0.00000000000E+00 -0.75084049540E+03  0.75084049540E+03  0.00000000000E+00 0. -1.
    2000013    1    1    2    0    0 -0.79775511624E+03  0.73425418137E+03  0.35171551457E+03  0.14838282352E+04  0.95000000000E+03 0.  0.
   -2000013    1    1    2    0    0  0.79775511624E+03 -0.73425418137E+03  0.26266618088E+04  0.29962300789E+04  0.95000000000E+03 0.  0.
<mgrwt>
<rscale>  0 0.33466686E+04</rscale>
<asrwt>0</asrwt>
<pdfrwt beam="1">  1        2 0.57372581E+00 0.33466686E+04</pdfrwt>
<pdfrwt beam="2">  1       -2 0.11551392E+00 0.33466686E+04</pdfrwt>
<totfact> 0.26897753E-01</totfact>
</mgrwt>
</event>
<event>
 4    1  0.2069825E-008  0.2522038E+04  0.7816531E-02  0.8395176E-01
         -2   -1    0    0    0  501 -0.00000000000E+00  0.00000000000E+00  0.76589324363E+03  0.76589324363E+03  0.00000000000E+00 0. -1.
          2   -1    0    0  501    0  0.00000000000E+00 -0.00000000000E+00 -0.20762271931E+04  0.20762271931E+04  0.00000000000E+00 0.  1.
    2000013    1    1    2    0    0 -0.43828890899E+03 -0.36094873254E+03  0.25928769721E+02  0.11070471789E+04  0.95000000000E+03 0.  0.
   -2000013    1    1    2    0    0  0.43828890899E+03  0.36094873254E+03 -0.13362627192E+04  0.17350732578E+04  0.95000000000E+03 0.  0.
<mgrwt>
<rscale>  0 0.25220376E+04</rscale>
<asrwt>0</asrwt>
<pdfrwt beam="2">  1        2 0.31941957E+00 0.25220376E+04</pdfrwt>
<pdfrwt beam="1">  1       -2 0.11782973E+00 0.25220376E+04</pdfrwt>
<totfact> 0.29963367E+00</totfact>
</mgrwt>
</event>
<event>
 4    1  0.2069825E-008  0.2766111E+04  0.7816531E-02  0.8313868E-01
         -2   -1    0    0    0  501 -0.00000000000E+00  0.00000000000E+00  0.88777080336E+03  0.88777080336E+03  0.00000000000E+00 0. -1.
          2   -1    0    0  501    0  0.00000000000E+00 -0.00000000000E+00 -0.21546575634E+04  0.21546575634E+04  0.00000000000E+00 0.  1.
    2000013    1    1    2    0    0  0.32338966733E+03  0.73411858135E+03  0.32724803009E+02  0.12438174630E+04  0.95000000000E+03 0.  0.
   -2000013    1    1    2    0    0 -0.32338966733E+03 -0.73411858135E+03 -0.12996115630E+04  0.17986109038E+04  0.95000000000E+03 0.  0.
<mgrwt>
<rscale>  0 0.27661107E+04</rscale>
<asrwt>0</asrwt>
<pdfrwt beam="2">  1        2 0.33148578E+00 0.27661107E+04</pdfrwt>
<pdfrwt beam="1">  1       -2 0.13658012E+00 0.27661107E+04</pdfrwt>
<totfact> 0.18296246E+00</totfact>
</mgrwt>
</event>
<event>
 4    1  0.2069825E-008  0.2751803E+04  0.7816531E-02  0.8318390E-01
         -2   -1    0    0    0  501 -0.00000000000E+00  0.00000000000E+00  0.52870728081E+03  0.52870728081E+03  0.00000000000E+00 0. -1.
          2   -1    0    0  501    0  0.00000000000E+00 -0.00000000000E+00 -0.35806296449E+04  0.35806296449E+04  0.00000000000E+00 0.  1.
    2000013    1    1    2    0    0  0.91575827542E+03 -0.38209373932E+03 -0.14103261268E+04  0.19687886195E+04  0.95000000000E+03 0.  0.
   -2000013    1    1    2    0    0 -0.91575827542E+03  0.38209373932E+03 -0.16415962373E+04  0.21405483062E+04  0.95000000000E+03 0.  0.
<mgrwt>
<rscale>  0 0.27518030E+04</rscale>
<asrwt>0</asrwt>
<pdfrwt beam="2">  1        2 0.55086610E+00 0.27518030E+04</pdfrwt>
<pdfrwt beam="1">  1       -2 0.81339581E-01 0.27518030E+04</pdfrwt>
<totfact> 0.82926982E-01</totfact>
</mgrwt>
</event>
<event>
 4    1  0.2069825E-008  0.2313129E+04  0.7816531E-02  0.8472762E-01
         -2   -1    0    0    0  501 -0.00000000000E+00  0.00000000000E+00  0.18922865761E+04  0.18922865761E+04  0.00000000000E+00 0. -1.
          2   -1    0    0  501    0  0.00000000000E+00 -0.00000000000E+00 -0.70689162053E+03  0.70689162053E+03  0.00000000000E+00 0.  1.
    2000013    1    1    2    0    0  0.37509407256E+03 -0.51991130321E+03  0.41811984127E+03  0.12199702981E+04  0.95000000000E+03 0.  0.
   -2000013    1    1    2    0    0 -0.37509407256E+03  0.51991130321E+03  0.76727511430E+03  0.13792078986E+04  0.95000000000E+03 0.  0.
<mgrwt>
<rscale>  0 0.23131291E+04</rscale>
<asrwt>0</asrwt>
<pdfrwt beam="2">  1        2 0.10875256E+00 0.23131291E+04</pdfrwt>
<pdfrwt beam="1">  1       -2 0.29112101E+00 0.23131291E+04</pdfrwt>
<totfact> 0.13202935E+00</totfact>
</mgrwt>
</event>
<event>
 4    1  0.2069825E-008  0.3928633E+04  0.7816531E-02  0.8019100E-01
          2   -1    0    0  501    0  0.00000000000E+00  0.00000000000E+00  0.19401731061E+04  0.19401731061E+04  0.00000000000E+00 0.  1.
         -2   -1    0    0    0  501 -0.00000000000E+00 -0.00000000000E+00 -0.19887606697E+04  0.19887606697E+04  0.00000000000E+00 0. -1.
    2000013    1    1    2    0    0 -0.23280696696E+03 -0.12867017218E+04 -0.11407301576E+04  0.19782734131E+04  0.95000000000E+03 0.  0.
   -2000013    1    1    2    0    0  0.23280696696E+03  0.12867017218E+04  0.10921425940E+04  0.19506603626E+04  0.95000000000E+03 0.  0.
<mgrwt>
<rscale>  0 0.39286333E+04</rscale>
<asrwt>0</asrwt>
<pdfrwt beam="1">  1        2 0.29848817E+00 0.39286333E+04</pdfrwt>
<pdfrwt beam="2">  1       -2 0.30596318E+00 0.39286333E+04</pdfrwt>
<totfact> 0.16721312E-01</totfact>
</mgrwt>
</event>
<event>
 4    1  0.2069825E-008  0.2505030E+04  0.7816531E-02  0.8401196E-01
          2   -1    0    0  501    0  0.00000000000E+00  0.00000000000E+00  0.16091526313E+04  0.16091526313E+04  0.00000000000E+00 0.  1.
         -2   -1    0    0    0  501 -0.00000000000E+00 -0.00000000000E+00 -0.97491932524E+03  0.97491932524E+03  0.00000000000E+00 0. -1.
    2000013    1    1    2    0    0 -0.41708737370E+03  0.69978718752E+03  0.26421484078E+03  0.12790517844E+04  0.95000000000E+03 0.  0.
   -2000013    1    1    2    0    0  0.41708737370E+03 -0.69978718752E+03  0.37001846532E+03  0.13050201722E+04  0.95000000000E+03 0.  0.
<mgrwt>
<rscale>  0 0.25050301E+04</rscale>
<asrwt>0</asrwt>
<pdfrwt beam="1">  1        2 0.24756194E+00 0.25050301E+04</pdfrwt>
<pdfrwt beam="2">  1       -2 0.14998759E+00 0.25050301E+04</pdfrwt>
<totfact> 0.29450201E+00</totfact>
</mgrwt>
</event>
<event>
 4    1  0.2069825E-008  0.3030014E+04  0.7816531E-02  0.8235212E-01
         -2   -1    0    0    0  501 -0.00000000000E+00  0.00000000000E+00  0.20981906095E+04  0.20981906095E+04  0.00000000000E+00 0. -1.
          2   -1    0    0  501    0  0.00000000000E+00 -0.00000000000E+00 -0.10939168461E+04  0.10939168461E+04  0.00000000000E+00 0.  1.
    2000013    1    1    2    0    0 -0.43753707564E+03  0.10795990948E+04  0.70139292863E+03  0.16587419746E+04  0.95000000000E+03 0.  0.
   -2000013    1    1    2    0    0  0.43753707564E+03 -0.10795990948E+04  0.30288083476E+03  0.15333654809E+04  0.95000000000E+03 0.  0.
<mgrwt>
<rscale>  0 0.30300139E+04</rscale>
<asrwt>0</asrwt>
<pdfrwt beam="2">  1        2 0.16829490E+00 0.30300139E+04</pdfrwt>
<pdfrwt beam="1">  1       -2 0.32279856E+00 0.30300139E+04</pdfrwt>
<totfact> 0.43169576E-01</totfact>
</mgrwt>
</event>
<event>
 4    1  0.2069825E-008  0.2262688E+04  0.7816531E-02  0.8492780E-01
         -2   -1    0    0    0  501 -0.00000000000E+00  0.00000000000E+00  0.46877476135E+03  0.46877476135E+03  0.00000000000E+00 0. -1.
          2   -1    0    0  501    0  0.00000000000E+00 -0.00000000000E+00 -0.27303935342E+04  0.27303935342E+04  0.00000000000E+00 0.  1.
    2000013    1    1    2    0    0  0.73923545600E+02 -0.58348578373E+03 -0.87979411953E+03  0.14221315140E+04  0.95000000000E+03 0.  0.
   -2000013    1    1    2    0    0 -0.73923545600E+02  0.58348578373E+03 -0.13818246533E+04  0.17770367815E+04  0.95000000000E+03 0.  0.
<mgrwt>
<rscale>  0 0.22626883E+04</rscale>
<asrwt>0</asrwt>
<pdfrwt beam="2">  1        2 0.42006053E+00 0.22626883E+04</pdfrwt>
<pdfrwt beam="1">  1       -2 0.72119197E-01 0.22626883E+04</pdfrwt>
<totfact> 0.40338331E+00</totfact>
</mgrwt>
</event>
<event>
 4    1  0.2069825E-008  0.2406313E+04  0.7816531E-02  0.8437144E-01
         -2   -1    0    0    0  501 -0.00000000000E+00  0.00000000000E+00  0.53090761747E+03  0.53090761747E+03  0.00000000000E+00 0. -1.
          2   -1    0    0  501    0  0.00000000000E+00 -0.00000000000E+00 -0.27266244555E+04  0.27266244555E+04  0.00000000000E+00 0.  1.
    2000013    1    1    2    0    0 -0.61892493314E+03 -0.40232960418E+03 -0.11143557865E+04  0.16398859723E+04  0.95000000000E+03 0.  0.
   -2000013    1    1    2    0    0  0.61892493314E+03  0.40232960418E+03 -0.10813610516E+04  0.16176461007E+04  0.95000000000E+03 0.  0.
<mgrwt>
<rscale>  0 0.24063131E+04</rscale>
<asrwt>0</asrwt>
<pdfrwt beam="2">  1        2 0.41948069E+00 0.24063131E+04</pdfrwt>
<pdfrwt beam="1">  1       -2 0.81678093E-01 0.24063131E+04</pdfrwt>
<totfact> 0.30350641E+00</totfact>
</mgrwt>
</event>
<event>
 4    1  0.2069825E-008  0.2514702E+04  0.7816531E-02  0.8397766E-01
         -2   -1    0    0    0  501 -0.00000000000E+00  0.00000000000E+00  0.71357142755E+03  0.71357142755E+03  0.00000000000E+00 0. -1.
          2   -1    0    0  501    0  0.00000000000E+00 -0.00000000000E+00 -0.22155199617E+04  0.22155199617E+04  0.00000000000E+00 0.  1.
    2000013    1    1    2    0    0  0.23824219227E+03  0.74712930484E+03 -0.45752616477E+03  0.13140744773E+04  0.95000000000E+03 0.  0.
   -2000013    1    1    2    0    0 -0.23824219227E+03 -0.74712930484E+03 -0.10444223693E+04  0.16150169120E+04  0.95000000000E+03 0.  0.
<mgrwt>
<rscale>  0 0.25147022E+04</rscale>
<asrwt>0</asrwt>
<pdfrwt beam="2">  1        2 0.34084921E+00 0.25147022E+04</pdfrwt>
<pdfrwt beam="1">  1       -2 0.10978022E+00 0.25147022E+04</pdfrwt>
<totfact> 0.29760302E+00</totfact>
</mgrwt>
</event>
<event>
 4    1  0.2069825E-008  0.1987219E+04  0.7816531E-02  0.8612620E-01
         -1   -1    0    0    0  501 -0.00000000000E+00  0.00000000000E+00  0.80992995234E+03  0.80992995234E+03  0.00000000000E+00 0. -1.
          1   -1    0    0  501    0  0.00000000000E+00 -0.00000000000E+00 -0.12189447922E+04  0.12189447922E+04  0.00000000000E+00 0.  1.
    2000013    1    1    2    0    0  0.17327824472E+03  0.22235689308E+03 -0.13023668045E+03  0.99946462215E+03  0.95000000000E+03 0.  0.
   -2000013    1    1    2    0    0 -0.17327824472E+03 -0.22235689308E+03 -0.27877815945E+03  0.10294101224E+04  0.95000000000E+03 0.  0.
<mgrwt>
<rscale>  0 0.19872191E+04</rscale>
<asrwt>0</asrwt>
<pdfrwt beam="2">  1        1 0.18752997E+00 0.19872191E+04</pdfrwt>
<pdfrwt beam="1">  1       -1 0.12460461E+00 0.19872191E+04</pdfrwt>
<totfact> 0.54223595E+00</totfact>
</mgrwt>
</event>
<event>
 4    1  0.2069825E-008  0.2135556E+04  0.7816531E-02  0.8545740E-01
         -2   -1    0    0    0  501 -0.00000000000E+00  0.00000000000E+00  0.53423332731E+03  0.53423332731E+03  0.00000000000E+00 0. -1.
          2   -1    0    0  501    0  0.00000000000E+00 -0.00000000000E+00 -0.21341796528E+04  0.21341796528E+04  0.00000000000E+00 0.  1.
    2000013    1    1    2    0    0 -0.20227910530E+03  0.32204811045E+03 -0.41888474756E+03  0.11057107459E+04  0.95000000000E+03 0.  0.
   -2000013    1    1    2    0    0  0.20227910530E+03 -0.32204811045E+03 -0.11810615779E+04  0.15627022342E+04  0.95000000000E+03 0.  0.
<mgrwt>
<rscale>  0 0.21355560E+04</rscale>
<asrwt>0</asrwt>
<pdfrwt beam="2">  1        2 0.32833533E+00 0.21355560E+04</pdfrwt>
<pdfrwt beam="1">  1       -2 0.82189743E-01 0.21355560E+04</pdfrwt>
<totfact> 0.67185659E+00</totfact>
</mgrwt>
</event>
<event>
 4    1  0.2069825E-008  0.2576344E+04  0.7816531E-02  0.8376281E-01
          2   -1    0    0  501    0  0.00000000000E+00  0.00000000000E+00  0.10083623721E+04  0.10083623721E+04  0.00000000000E+00 0.  1.
         -2   -1    0    0    0  501 -0.00000000000E+00 -0.00000000000E+00 -0.16456255210E+04  0.16456255210E+04  0.00000000000E+00 0. -1.
    2000013    1    1    2    0    0 -0.81396648659E+03 -0.71425774296E+02 -0.10891484445E+02  0.12531008367E+04  0.95000000000E+03 0.  0.
   -2000013    1    1    2    0    0  0.81396648659E+03  0.71425774296E+02 -0.62637166446E+03  0.14008870563E+04  0.95000000000E+03 0.  0.
<mgrwt>
<rscale>  0 0.25763438E+04</rscale>
<asrwt>0</asrwt>
<pdfrwt beam="1">  1        2 0.15513267E+00 0.25763438E+04</pdfrwt>
<pdfrwt beam="2">  1       -2 0.25317315E+00 0.25763438E+04</pdfrwt>
<totfact> 0.13545795E+00</totfact>
</mgrwt>
</event>
<event>
 4    1  0.2069825E-008  0.3040401E+04  0.7816531E-02  0.8232287E-01
          2   -1    0    0  501    0  0.00000000000E+00  0.00000000000E+00  0.13414390844E+04  0.13414390844E+04  0.00000000000E+00 0. -1.
         -2   -1    0    0    0  501 -0.00000000000E+00 -0.00000000000E+00 -0.17227842794E+04  0.17227842794E+04  0.00000000000E+00 0.  1.
    2000013    1    1    2    0    0 -0.22992352366E+03  0.11619471367E+04 -0.26557984560E+03  0.15414339524E+04  0.95000000000E+03 0.  0.
   -2000013    1    1    2    0    0  0.22992352366E+03 -0.11619471367E+04 -0.11576534933E+03  0.15227894114E+04  0.95000000000E+03 0.  0.
<mgrwt>
<rscale>  0 0.30404014E+04</rscale>
<asrwt>0</asrwt>
<pdfrwt beam="1">  1        2 0.20637525E+00 0.30404014E+04</pdfrwt>
<pdfrwt beam="2">  1       -2 0.26504373E+00 0.30404014E+04</pdfrwt>
<totfact> 0.69341291E-01</totfact>
</mgrwt>
</event>
<event>
 4    1  0.2069825E-008  0.2392999E+04  0.7816531E-02  0.8442129E-01
         -3   -1    0    0    0  501 -0.00000000000E+00  0.00000000000E+00  0.11730453045E+04  0.11730453045E+04  0.00000000000E+00 0. -1.
          3   -1    0    0  501    0  0.00000000000E+00 -0.00000000000E+00 -0.12204228353E+04  0.12204228353E+04  0.00000000000E+00 0.  1.
    2000013    1    1    2    0    0 -0.30511963060E+03  0.13377975030E+03 -0.67043458675E+03  0.12095360870E+04  0.95000000000E+03 0.  0.
   -2000013    1    1    2    0    0  0.30511963060E+03 -0.13377975030E+03  0.62305705598E+03  0.11839320528E+04  0.95000000000E+03 0.  0.
<mgrwt>
<rscale>  0 0.23929992E+04</rscale>
<asrwt>0</asrwt>
<pdfrwt beam="2">  1        3 0.18775736E+00 0.23929992E+04</pdfrwt>
<pdfrwt beam="1">  1       -3 0.18046851E+00 0.23929992E+04</pdfrwt>
<totfact> 0.81209826E-02</totfact>
</mgrwt>
</event>
<event>
 4    1  0.2069825E-008  0.2292597E+04  0.7816531E-02  0.8480846E-01
         -1   -1    0    0    0  501 -0.00000000000E+00  0.00000000000E+00  0.96734599016E+03  0.96734599016E+03  0.00000000000E+00 0.  1.
          1   -1    0    0  501    0  0.00000000000E+00 -0.00000000000E+00 -0.13583559604E+04  0.13583559604E+04  0.00000000000E+00 0. -1.
    2000013    1    1    2    0    0  0.54203999885E+02  0.58533522066E+03 -0.45601031679E+03  0.12066485831E+04  0.95000000000E+03 0.  0.
   -2000013    1    1    2    0    0 -0.54203999885E+02 -0.58533522066E+03  0.65000346539E+02  0.11190533674E+04  0.95000000000E+03 0.  0.
<mgrwt>
<rscale>  0 0.22925969E+04</rscale>
<asrwt>0</asrwt>
<pdfrwt beam="2">  1        1 0.20897784E+00 0.22925969E+04</pdfrwt>
<pdfrwt beam="1">  1       -1 0.14882246E+00 0.22925969E+04</pdfrwt>
<totfact> 0.26500267E+00</totfact>
</mgrwt>
</event>
<event>
 4    1  0.2069825E-008  0.3243833E+04  0.7816531E-02  0.8177336E-01
          2   -1    0    0  501    0  0.00000000000E+00  0.00000000000E+00  0.92503440804E+03  0.92503440804E+03  0.00000000000E+00 0.  1.
         -2   -1    0    0    0  501 -0.00000000000E+00 -0.00000000000E+00 -0.28438000706E+04  0.28438000706E+04  0.00000000000E+00 0. -1.
    2000013    1    1    2    0    0  0.12846320964E+04 -0.19335625632E+03 -0.11930457909E+04  0.20033782778E+04  0.95000000000E+03 0.  0.
   -2000013    1    1    2    0    0 -0.12846320964E+04  0.19335625632E+03 -0.72571987172E+03  0.17654562009E+04  0.95000000000E+03 0.  0.
<mgrwt>
<rscale>  0 0.32438329E+04</rscale>
<asrwt>0</asrwt>
<pdfrwt beam="1">  1        2 0.14231298E+00 0.32438329E+04</pdfrwt>
<pdfrwt beam="2">  1       -2 0.43750771E+00 0.32438329E+04</pdfrwt>
<totfact> 0.99241382E-02</totfact>
</mgrwt>
</event>
<event>
 4    1  0.2069825E-008  0.2522197E+04  0.7816531E-02  0.8395120E-01
         -1   -1    0    0    0  501 -0.00000000000E+00  0.00000000000E+00  0.17751378298E+04  0.17751378298E+04  0.00000000000E+00 0. -1.
          1   -1    0    0  501    0  0.00000000000E+00 -0.00000000000E+00 -0.89591324171E+03  0.89591324171E+03  0.00000000000E+00 0.  1.
    2000013    1    1    2    0    0  0.60614087424E+03  0.71613092903E+02 -0.15507516579E+03  0.11397734431E+04  0.95000000000E+03 0.  0.
   -2000013    1    1    2    0    0 -0.60614087424E+03 -0.71613092903E+02  0.10342997539E+04  0.15312776285E+04  0.95000000000E+03 0.  0.
<mgrwt>
<rscale>  0 0.25221970E+04</rscale>
<asrwt>0</asrwt>
<pdfrwt beam="2">  1        1 0.13783281E+00 0.25221970E+04</pdfrwt>
<pdfrwt beam="1">  1       -1 0.27309813E+00 0.25221970E+04</pdfrwt>
<totfact> 0.80215540E-01</totfact>
</mgrwt>
</event>
<event>
 4    1  0.2069825E-008  0.2263971E+04  0.7816531E-02  0.8492264E-01
         -2   -1    0    0    0  501 -0.00000000000E+00  0.00000000000E+00  0.67441787368E+03  0.67441787368E+03  0.00000000000E+00 0. -1.
          2   -1    0    0  501    0  0.00000000000E+00 -0.00000000000E+00 -0.18999952682E+04  0.18999952682E+04  0.00000000000E+00 0.  1.
    2000013    1    1    2    0    0  0.47107372055E+03 -0.37893844040E+03 -0.74435130983E+03  0.13498383845E+04  0.95000000000E+03 0.  0.
   -2000013    1    1    2    0    0 -0.47107372055E+03  0.37893844040E+03 -0.48122608466E+03  0.12245747574E+04  0.95000000000E+03 0.  0.
<mgrwt>
<rscale>  0 0.22639706E+04</rscale>
<asrwt>0</asrwt>
<pdfrwt beam="2">  1        2 0.29230696E+00 0.22639706E+04</pdfrwt>
<pdfrwt beam="1">  1       -2 0.10375660E+00 0.22639706E+04</pdfrwt>
<totfact> 0.52225597E+00</totfact>
</mgrwt>
</event>
<event>
 4    1  0.2069825E-008  0.4214450E+04  0.7816531E-02  0.7962629E-01
         -2   -1    0    0    0  501 -0.00000000000E+00  0.00000000000E+00  0.15597203306E+04  0.15597203306E+04  0.00000000000E+00 0. -1.
          2   -1    0    0  501    0  0.00000000000E+00 -0.00000000000E+00 -0.28469193543E+04  0.28469193543E+04  0.00000000000E+00 0.  1.
    2000013    1    1    2    0    0 -0.23606352225E+03 -0.16515777094E+04  0.26460905198E+03  0.19380280873E+04  0.95000000000E+03 0.  0.
   -2000013    1    1    2    0    0  0.23606352225E+03  0.16515777094E+04 -0.15518080757E+04  0.24686115977E+04  0.95000000000E+03 0.  0.
<mgrwt>
<rscale>  0 0.42144504E+04</rscale>
<asrwt>0</asrwt>
<pdfrwt beam="2">  1        2 0.43798759E+00 0.42144504E+04</pdfrwt>
<pdfrwt beam="1">  1       -2 0.23995698E+00 0.42144504E+04</pdfrwt>
<totfact> 0.12440829E-01</totfact>
</mgrwt>
</event>
<event>
 4    1  0.2069825E-008  0.2149775E+04  0.7816531E-02  0.8539629E-01
          1   -1    0    0  501    0  0.00000000000E+00  0.00000000000E+00  0.22891505803E+04  0.22891505803E+04  0.00000000000E+00 0.  1.
         -1   -1    0    0    0  501 -0.00000000000E+00 -0.00000000000E+00 -0.50472123988E+03  0.50472123988E+03  0.00000000000E+00 0. -1.
    2000013    1    1    2    0    0 -0.13864067869E+02 -0.45245389024E+03  0.60755472536E+03  0.12151252937E+04  0.95000000000E+03 0.  0.
   -2000013    1    1    2    0    0  0.13864067869E+02  0.45245389024E+03  0.11768746151E+04  0.15787465264E+04  0.95000000000E+03 0.  0.
<mgrwt>
<rscale>  0 0.21497748E+04</rscale>
<asrwt>0</asrwt>
<pdfrwt beam="1">  1        1 0.35217701E+00 0.21497748E+04</pdfrwt>
<pdfrwt beam="2">  1       -1 0.77649423E-01 0.21497748E+04</pdfrwt>
<totfact> 0.28811062E+00</totfact>
</mgrwt>
</event>
<event>
 4    1  0.2069825E-008  0.2295445E+04  0.7816531E-02  0.8479719E-01
          2   -1    0    0  501    0  0.00000000000E+00  0.00000000000E+00  0.99966777998E+03  0.99966777998E+03  0.00000000000E+00 0.  1.
         -2   -1    0    0    0  501 -0.00000000000E+00 -0.00000000000E+00 -0.13177049968E+04  0.13177049968E+04  0.00000000000E+00 0. -1.
    2000013    1    1    2    0    0 -0.34087396613E+03  0.40419399036E+03  0.21218853184E+03  0.11077417640E+04  0.95000000000E+03 0.  0.
   -2000013    1    1    2    0    0  0.34087396613E+03 -0.40419399036E+03 -0.53022574868E+03  0.12096310128E+04  0.95000000000E+03 0.  0.
<mgrwt>
<rscale>  0 0.22954453E+04</rscale>
<asrwt>0</asrwt>
<pdfrwt beam="1">  1        2 0.15379504E+00 0.22954453E+04</pdfrwt>
<pdfrwt beam="2">  1       -2 0.20272385E+00 0.22954453E+04</pdfrwt>
<totfact> 0.29167895E+00</totfact>
</mgrwt>
</event>
<event>
 4    1  0.2069825E-008  0.2306366E+04  0.7816531E-02  0.8475415E-01
         -2   -1    0    0    0  501 -0.00000000000E+00  0.00000000000E+00  0.85151047357E+03  0.85151047357E+03  0.00000000000E+00 0. -1.
          2   -1    0    0  501    0  0.00000000000E+00 -0.00000000000E+00 -0.15617317301E+04  0.15617317301E+04  0.00000000000E+00 0.  1.
    2000013    1    1    2    0    0 -0.21601411301E+03  0.60443295221E+03 -0.22556027564E+03  0.11684942142E+04  0.95000000000E+03 0.  0.
   -2000013    1    1    2    0    0  0.21601411301E+03 -0.60443295221E+03 -0.48466098085E+03  0.12447479894E+04  0.95000000000E+03 0.  0.
<mgrwt>
<rscale>  0 0.23063659E+04</rscale>
<asrwt>0</asrwt>
<pdfrwt beam="2">  1        2 0.24026642E+00 0.23063659E+04</pdfrwt>
<pdfrwt beam="1">  1       -2 0.13100161E+00 0.23063659E+04</pdfrwt>
<totfact> 0.45228885E+00</totfact>
</mgrwt>
</event>
<event>
 4    1  0.2069825E-008  0.3620624E+04  0.7816531E-02  0.8085784E-01
          2   -1    0    0  501    0  0.00000000000E+00  0.00000000000E+00  0.16653930346E+04  0.16653930346E+04  0.00000000000E+00 0.  1.
         -2   -1    0    0    0  501 -0.00000000000E+00 -0.00000000000E+00 -0.19678419047E+04  0.19678419047E+04  0.00000000000E+00 0. -1.
    2000013    1    1    2    0    0 -0.15566694061E+03  0.79876000946E+03  0.11619512221E+04  0.17073020798E+04  0.95000000000E+03 0.  0.
   -2000013    1    1    2    0    0  0.15566694061E+03 -0.79876000946E+03 -0.14644000923E+04  0.19259328595E+04  0.95000000000E+03 0.  0.
<mgrwt>
<rscale>  0 0.36206244E+04</rscale>
<asrwt>0</asrwt>
<pdfrwt beam="1">  1        2 0.25621431E+00 0.36206244E+04</pdfrwt>
<pdfrwt beam="2">  1       -2 0.30274491E+00 0.36206244E+04</pdfrwt>
<totfact> 0.25503992E-01</totfact>
</mgrwt>
</event>
<event>
 4    1  0.2069825E-008  0.2129917E+04  0.7816531E-02  0.8548178E-01
          2   -1    0    0  501    0  0.00000000000E+00  0.00000000000E+00  0.12686136288E+04  0.12686136288E+04  0.00000000000E+00 0.  1.
         -2   -1    0    0    0  501 -0.00000000000E+00 -0.00000000000E+00 -0.89399671331E+03  0.89399671331E+03  0.00000000000E+00 0. -1.
    2000013    1    1    2    0    0 -0.33167958213E+03  0.30060448776E+03  0.36683310867E+03  0.11124032241E+04  0.95000000000E+03 0.  0.
   -2000013    1    1    2    0    0  0.33167958213E+03 -0.30060448776E+03  0.77838068546E+01  0.10502071181E+04  0.95000000000E+03 0.  0.
<mgrwt>
<rscale>  0 0.21299168E+04</rscale>
<asrwt>0</asrwt>
<pdfrwt beam="1">  1        2 0.19517133E+00 0.21299168E+04</pdfrwt>
<pdfrwt beam="2">  1       -2 0.13753796E+00 0.21299168E+04</pdfrwt>
<totfact> 0.59635270E+00</totfact>
</mgrwt>
</event>
<event>
 4    1  0.2069825E-008  0.2813268E+04  0.7816531E-02  0.8299161E-01
          2   -1    0    0  501    0  0.00000000000E+00  0.00000000000E+00  0.34008206127E+04  0.34008206127E+04  0.00000000000E+00 0.  1.
         -2   -1    0    0    0  501 -0.00000000000E+00 -0.00000000000E+00 -0.58180636979E+03  0.58180636979E+03  0.00000000000E+00 0. -1.
    2000013    1    1    2    0    0  0.53578075110E+03  0.58416968619E+03  0.46217458341E+03  0.13207651499E+04  0.95000000000E+03 0.  0.
   -2000013    1    1    2    0    0 -0.53578075110E+03 -0.58416968619E+03  0.23568396595E+04  0.26618618326E+04  0.95000000000E+03 0.  0.
<mgrwt>
<rscale>  0 0.28132679E+04</rscale>
<asrwt>0</asrwt>
<pdfrwt beam="1">  1        2 0.52320316E+00 0.28132679E+04</pdfrwt>
<pdfrwt beam="2">  1       -2 0.89508674E-01 0.28132679E+04</pdfrwt>
<totfact> 0.88551292E-01</totfact>
</mgrwt>
</event>
<event>
 4    1  0.2069825E-008  0.2301047E+04  0.7816531E-02  0.8477508E-01
         -2   -1    0    0    0  501 -0.00000000000E+00  0.00000000000E+00  0.70164680448E+03  0.70164680448E+03  0.00000000000E+00 0. -1.
          2   -1    0    0  501    0  0.00000000000E+00 -0.00000000000E+00 -0.18865682221E+04  0.18865682221E+04  0.00000000000E+00 0.  1.
    2000013    1    1    2    0    0  0.46216548746E+03 -0.43057448415E+03 -0.42481950036E+03  0.12173589989E+04  0.95000000000E+03 0.  0.
   -2000013    1    1    2    0    0 -0.46216548746E+03  0.43057448415E+03 -0.76010191729E+03  0.13708560278E+04  0.95000000000E+03 0.  0.
<mgrwt>
<rscale>  0 0.23010472E+04</rscale>
<asrwt>0</asrwt>
<pdfrwt beam="2">  1        2 0.29024126E+00 0.23010472E+04</pdfrwt>
<pdfrwt beam="1">  1       -2 0.10794566E+00 0.23010472E+04</pdfrwt>
<totfact> 0.48158262E+00</totfact>
</mgrwt>
</event>
<event>
 4    1  0.2069825E-008  0.2101312E+04  0.7816531E-02  0.8560666E-01
         -2   -1    0    0    0  501 -0.00000000000E+00  0.00000000000E+00  0.55209784229E+03  0.55209784229E+03  0.00000000000E+00 0. -1.
          2   -1    0    0  501    0  0.00000000000E+00 -0.00000000000E+00 -0.19994237699E+04  0.19994237699E+04  0.00000000000E+00 0.  1.
    2000013    1    1    2    0    0 -0.36237687408E+03 -0.18147597253E+03 -0.48969636517E+03  0.11430455186E+04  0.95000000000E+03 0.  0.
   -2000013    1    1    2    0    0  0.36237687408E+03  0.18147597253E+03 -0.95762956248E+03  0.14084760937E+04  0.95000000000E+03 0.  0.
<mgrwt>
<rscale>  0 0.21013115E+04</rscale>
<asrwt>0</asrwt>
<pdfrwt beam="2">  1        2 0.30760365E+00 0.21013115E+04</pdfrwt>
<pdfrwt beam="1">  1       -2 0.84938132E-01 0.21013115E+04</pdfrwt>
<totfact> 0.74350557E+00</totfact>
</mgrwt>
</event>
<event>
 4    1  0.2069825E-008  0.3097906E+04  0.7816531E-02  0.8216313E-01
         -2   -1    0    0    0  501 -0.00000000000E+00  0.00000000000E+00  0.13748494968E+04  0.13748494968E+04  0.00000000000E+00 0. -1.
          2   -1    0    0  501    0  0.00000000000E+00 -0.00000000000E+00 -0.17451044725E+04  0.17451044725E+04  0.00000000000E+00 0.  1.
    2000013    1    1    2    0    0 -0.92280284405E+03  0.67849293927E+03 -0.61811544522E+03  0.16113610586E+04  0.95000000000E+03 0.  0.
   -2000013    1    1    2    0    0  0.92280284405E+03 -0.67849293927E+03  0.24786046950E+03  0.15085929106E+04  0.95000000000E+03 0.  0.
<mgrwt>
<rscale>  0 0.30979064E+04</rscale>
<asrwt>0</asrwt>
<pdfrwt beam="2">  1        2 0.26847761E+00 0.30979064E+04</pdfrwt>
<pdfrwt beam="1">  1       -2 0.21151531E+00 0.30979064E+04</pdfrwt>
<totfact> 0.88016004E-01</totfact>
</mgrwt>
</event>
<event>
 4    1  0.2069825E-008  0.2153355E+04  0.7816531E-02  0.8538097E-01
          2   -1    0    0  501    0  0.00000000000E+00  0.00000000000E+00  0.19808322852E+04  0.19808322852E+04  0.00000000000E+00 0.  1.
         -2   -1    0    0    0  501 -0.00000000000E+00 -0.00000000000E+00 -0.58522600800E+03  0.58522600800E+03  0.00000000000E+00 0. -1.
    2000013    1    1    2    0    0  0.44947739231E+02  0.45598242388E+03  0.95558202338E+03  0.14232277659E+04  0.95000000000E+03 0.  0.
   -2000013    1    1    2    0    0 -0.44947739231E+02 -0.45598242388E+03  0.44002425378E+03  0.11428305273E+04  0.95000000000E+03 0.  0.
<mgrwt>
<rscale>  0 0.21533551E+04</rscale>
<asrwt>0</asrwt>
<pdfrwt beam="1">  1        2 0.30474342E+00 0.21533551E+04</pdfrwt>
<pdfrwt beam="2">  1       -2 0.90034772E-01 0.21533551E+04</pdfrwt>
<totfact> 0.66331548E+00</totfact>
</mgrwt>
</event>
<event>
 4    1  0.2069825E-008  0.4238245E+04  0.7816531E-02  0.7958137E-01
         -2   -1    0    0    0  501 -0.00000000000E+00  0.00000000000E+00  0.36680674409E+04  0.36680674409E+04  0.00000000000E+00 0. -1.
          2   -1    0    0  501    0  0.00000000000E+00 -0.00000000000E+00 -0.12242629724E+04  0.12242629724E+04  0.00000000000E+00 0.  1.
    2000013    1    1    2    0    0 -0.15876023173E+04  0.25763918389E+03  0.23769933255E+04  0.30231533762E+04  0.95000000000E+03 0.  0.
   -2000013    1    1    2    0    0  0.15876023173E+04 -0.25763918389E+03  0.66811143043E+02  0.18691770370E+04  0.95000000000E+03 0.  0.
<mgrwt>
<rscale>  0 0.42382445E+04</rscale>
<asrwt>0</asrwt>
<pdfrwt beam="2">  1        2 0.18834815E+00 0.42382445E+04</pdfrwt>
<pdfrwt beam="1">  1       -2 0.56431806E+00 0.42382445E+04</pdfrwt>
<totfact> 0.10305293E-02</totfact>
</mgrwt>
</event>
<event>
 4    1  0.2069825E-008  0.2080728E+04  0.7816531E-02  0.8569781E-01
          2   -1    0    0  501    0  0.00000000000E+00  0.00000000000E+00  0.28655264829E+04  0.28655264829E+04  0.00000000000E+00 0.  1.
         -2   -1    0    0    0  501 -0.00000000000E+00 -0.00000000000E+00 -0.37771679568E+03  0.37771679568E+03  0.00000000000E+00 0. -1.
    2000013    1    1    2    0    0  0.28782550463E+03  0.15645256350E+03  0.16637050359E+04  0.19436397228E+04  0.95000000000E+03 0.  0.
   -2000013    1    1    2    0    0 -0.28782550463E+03 -0.15645256350E+03  0.82410465134E+03  0.12996035557E+04  0.95000000000E+03 0.  0.
<mgrwt>
<rscale>  0 0.20807282E+04</rscale>
<asrwt>0</asrwt>
<pdfrwt beam="1">  1        2 0.44085021E+00 0.20807282E+04</pdfrwt>
<pdfrwt beam="2">  1       -2 0.58110278E-01 0.20807282E+04</pdfrwt>
<totfact> 0.54023033E+00</totfact>
</mgrwt>
</event>
<event>
 4    1  0.2069825E-008  0.2777108E+04  0.7816531E-02  0.8310411E-01
         -2   -1    0    0    0  501 -0.00000000000E+00  0.00000000000E+00  0.91746147088E+03  0.91746147088E+03  0.00000000000E+00 0. -1.
          2   -1    0    0  501    0  0.00000000000E+00 -0.00000000000E+00 -0.21015404755E+04  0.21015404755E+04  0.00000000000E+00 0.  1.
    2000013    1    1    2    0    0 -0.58160882098E+02  0.49886824462E+03 -0.15480289230E+04  0.18844483968E+04  0.95000000000E+03 0.  0.
   -2000013    1    1    2    0    0  0.58160882098E+02 -0.49886824462E+03  0.36394991842E+03  0.11345535496E+04  0.95000000000E+03 0.  0.
<mgrwt>
<rscale>  0 0.27771081E+04</rscale>
<asrwt>0</asrwt>
<pdfrwt beam="2">  1        2 0.32331392E+00 0.27771081E+04</pdfrwt>
<pdfrwt beam="1">  1       -2 0.14114792E+00 0.27771081E+04</pdfrwt>
<totfact> 0.17975379E+00</totfact>
</mgrwt>
</event>
<event>
 4    1  0.2069825E-008  0.2775631E+04  0.7816531E-02  0.8310874E-01
          2   -1    0    0  501    0  0.00000000000E+00  0.00000000000E+00  0.14136810486E+04  0.14136810486E+04  0.00000000000E+00 0.  1.
         -2   -1    0    0    0  501 -0.00000000000E+00 -0.00000000000E+00 -0.13624231263E+04  0.13624231263E+04  0.00000000000E+00 0. -1.
    2000013    1    1    2    0    0 -0.89585945305E+03 -0.27311982567E+03  0.40828164087E+03  0.13951173775E+04  0.95000000000E+03 0.  0.
   -2000013    1    1    2    0    0  0.89585945305E+03  0.27311982567E+03 -0.35702371860E+03  0.13809867973E+04  0.95000000000E+03 0.  0.
<mgrwt>
<rscale>  0 0.27756309E+04</rscale>
<asrwt>0</asrwt>
<pdfrwt beam="1">  1        2 0.21748939E+00 0.27756309E+04</pdfrwt>
<pdfrwt beam="2">  1       -2 0.20960356E+00 0.27756309E+04</pdfrwt>
<totfact> 0.14273930E+00</totfact>
</mgrwt>
</event>
<event>
 4    1  0.2069825E-008  0.3732869E+04  0.7816531E-02  0.8060717E-01
         -2   -1    0    0    0  501 -0.00000000000E+00  0.00000000000E+00  0.14868627274E+04  0.14868627274E+04  0.00000000000E+00 0. -1.
          2   -1    0    0  501    0  0.00000000000E+00 -0.00000000000E+00 -0.23429043773E+04  0.23429043773E+04  0.00000000000E+00 0.  1.
    2000013    1    1    2    0    0  0.60547537653E+03 -0.13341182679E+04  0.24833792514E+03  0.17637017064E+04  0.95000000000E+03 0.  0.
   -2000013    1    1    2    0    0 -0.60547537653E+03  0.13341182679E+04 -0.11043795750E+04  0.20660653983E+04  0.95000000000E+03 0.  0.
<mgrwt>
<rscale>  0 0.37328687E+04</rscale>
<asrwt>0</asrwt>
<pdfrwt beam="2">  1        2 0.36044683E+00 0.37328687E+04</pdfrwt>
<pdfrwt beam="1">  1       -2 0.22874811E+00 0.37328687E+04</pdfrwt>
<totfact> 0.30082447E-01</totfact>
</mgrwt>
</event>
<event>
 4    1  0.2069825E-008  0.2491307E+04  0.7816531E-02  0.8406089E-01
         -2   -1    0    0    0  501 -0.00000000000E+00  0.00000000000E+00  0.48967112057E+03  0.48967112057E+03  0.00000000000E+00 0. -1.
          2   -1    0    0  501    0  0.00000000000E+00 -0.00000000000E+00 -0.31687643596E+04  0.31687643596E+04  0.00000000000E+00 0.  1.
    2000013    1    1    2    0    0 -0.48819940108E+03 -0.34920108954E+03 -0.21288085680E+04  0.24071987818E+04  0.95000000000E+03 0.  0.
   -2000013    1    1    2    0    0  0.48819940108E+03  0.34920108954E+03 -0.55028467111E+03  0.12512366984E+04  0.95000000000E+03 0.  0.
<mgrwt>
<rscale>  0 0.24913068E+04</rscale>
<asrwt>0</asrwt>
<pdfrwt beam="2">  1        2 0.48750221E+00 0.24913068E+04</pdfrwt>
<pdfrwt beam="1">  1       -2 0.75334019E-01 0.24913068E+04</pdfrwt>
<totfact> 0.19186152E+00</totfact>
</mgrwt>
</event>
<event>
 4    1  0.2069825E-008  0.2304974E+04  0.7816531E-02  0.8475963E-01
          2   -1    0    0  501    0  0.00000000000E+00  0.00000000000E+00  0.12654388861E+04  0.12654388861E+04  0.00000000000E+00 0.  1.
         -2   -1    0    0    0  501 -0.00000000000E+00 -0.00000000000E+00 -0.10496170645E+04  0.10496170645E+04  0.00000000000E+00 0. -1.
    2000013    1    1    2    0    0 -0.43496392416E+02 -0.65000633722E+03  0.14448549652E+03  0.11609376526E+04  0.95000000000E+03 0.  0.
   -2000013    1    1    2    0    0  0.43496392416E+02  0.65000633722E+03  0.71336325114E+02  0.11541182980E+04  0.95000000000E+03 0.  0.
<mgrwt>
<rscale>  0 0.23049740E+04</rscale>
<asrwt>0</asrwt>
<pdfrwt beam="1">  1        2 0.19468290E+00 0.23049740E+04</pdfrwt>
<pdfrwt beam="2">  1       -2 0.16147955E+00 0.23049740E+04</pdfrwt>
<totfact> 0.38561428E+00</totfact>
</mgrwt>
</event>
<event>
 4    1  0.2069825E-008  0.2642177E+04  0.7816531E-02  0.8354014E-01
          2   -1    0    0  501    0  0.00000000000E+00  0.00000000000E+00  0.12359910494E+04  0.12359910494E+04  0.00000000000E+00 0.  1.
         -2   -1    0    0    0  501 -0.00000000000E+00 -0.00000000000E+00 -0.14120451397E+04  0.14120451397E+04  0.00000000000E+00 0. -1.
    2000013    1    1    2    0    0  0.84595825490E+03  0.19507231214E+03  0.21109176850E+03  0.13041312475E+04  0.95000000000E+03 0.  0.
   -2000013    1    1    2    0    0 -0.84595825490E+03 -0.19507231214E+03 -0.38714585883E+03  0.13439049416E+04  0.95000000000E+03 0.  0.
<mgrwt>
<rscale>  0 0.26421772E+04</rscale>
<asrwt>0</asrwt>
<pdfrwt beam="1">  1        2 0.19015247E+00 0.26421772E+04</pdfrwt>
<pdfrwt beam="2">  1       -2 0.21723771E+00 0.26421772E+04</pdfrwt>
<totfact> 0.16354461E+00</totfact>
</mgrwt>
</event>
<event>
 4    1  0.2069825E-008  0.4804043E+04  0.7816531E-02  0.7859467E-01
          2   -1    0    0  501    0  0.00000000000E+00  0.00000000000E+00  0.29685053338E+04  0.29685053338E+04  0.00000000000E+00 0.  1.
         -2   -1    0    0    0  501 -0.00000000000E+00 -0.00000000000E+00 -0.19436404417E+04  0.19436404417E+04  0.00000000000E+00 0. -1.
    2000013    1    1    2    0    0  0.20443628009E+04 -0.23768789622E+03  0.13248505440E+04  0.26255749393E+04  0.95000000000E+03 0.  0.
   -2000013    1    1    2    0    0 -0.20443628009E+04  0.23768789622E+03 -0.29998565193E+03  0.22865708362E+04  0.95000000000E+03 0.  0.
<mgrwt>
<rscale>  0 0.48040429E+04</rscale>
<asrwt>0</asrwt>
<pdfrwt beam="1">  1        2 0.45669313E+00 0.48040429E+04</pdfrwt>
<pdfrwt beam="2">  1       -2 0.29902161E+00 0.48040429E+04</pdfrwt>
<totfact> 0.43394041E-02</totfact>
</mgrwt>
</event>
<event>
 4    1  0.2069825E-008  0.3682382E+04  0.7816531E-02  0.8071877E-01
          2   -1    0    0  501    0  0.00000000000E+00  0.00000000000E+00  0.22301401068E+04  0.22301401068E+04  0.00000000000E+00 0.  1.
         -2   -1    0    0    0  501 -0.00000000000E+00 -0.00000000000E+00 -0.15200770664E+04  0.15200770664E+04  0.00000000000E+00 0. -1.
    2000013    1    1    2    0    0  0.36512563600E+03 -0.15263137033E+04  0.19551088772E+03  0.18449050810E+04  0.95000000000E+03 0.  0.
   -2000013    1    1    2    0    0 -0.36512563600E+03  0.15263137033E+04  0.51455215265E+03  0.19053120922E+04  0.95000000000E+03 0.  0.
<mgrwt>
<rscale>  0 0.36823823E+04</rscale>
<asrwt>0</asrwt>
<pdfrwt beam="1">  1        2 0.34309848E+00 0.36823823E+04</pdfrwt>
<pdfrwt beam="2">  1       -2 0.23385801E+00 0.36823823E+04</pdfrwt>
<totfact> 0.32516603E-01</totfact>
</mgrwt>
</event>
<event>
 4    1  0.2069825E-008  0.2707915E+04  0.7816531E-02  0.8332441E-01
         -2   -1    0    0    0  501 -0.00000000000E+00  0.00000000000E+00  0.87541421365E+03  0.87541421365E+03  0.00000000000E+00 0. -1.
          2   -1    0    0  501    0  0.00000000000E+00 -0.00000000000E+00 -0.20940951440E+04  0.20940951440E+04  0.00000000000E+00 0.  1.
    2000013    1    1    2    0    0 -0.68140943341E+03  0.66750401637E+03 -0.45110915642E+03  0.14198168540E+04  0.95000000000E+03 0.  0.
   -2000013    1    1    2    0    0  0.68140943341E+03 -0.66750401637E+03 -0.76757177391E+03  0.15496925037E+04  0.95000000000E+03 0.  0.
<mgrwt>
<rscale>  0 0.27079148E+04</rscale>
<asrwt>0</asrwt>
<pdfrwt beam="2">  1        2 0.32216848E+00 0.27079148E+04</pdfrwt>
<pdfrwt beam="1">  1       -2 0.13467911E+00 0.27079148E+04</pdfrwt>
<totfact> 0.20603655E+00</totfact>
</mgrwt>
</event>
<event>
 4    1  0.2069825E-008  0.3927126E+04  0.7816531E-02  0.8019411E-01
          2   -1    0    0  501    0  0.00000000000E+00  0.00000000000E+00  0.24833297189E+04  0.24833297189E+04  0.00000000000E+00 0.  1.
         -2   -1    0    0    0  501 -0.00000000000E+00 -0.00000000000E+00 -0.15525849090E+04  0.15525849090E+04  0.00000000000E+00 0. -1.
    2000013    1    1    2    0    0  0.14339573837E+04 -0.91363938224E+03  0.20925076067E+03  0.19588916713E+04  0.95000000000E+03 0.  0.
   -2000013    1    1    2    0    0 -0.14339573837E+04  0.91363938224E+03  0.72149404922E+03  0.20770229566E+04  0.95000000000E+03 0.  0.
<mgrwt>
<rscale>  0 0.39271263E+04</rscale>
<asrwt>0</asrwt>
<pdfrwt beam="1">  1        2 0.38205072E+00 0.39271263E+04</pdfrwt>
<pdfrwt beam="2">  1       -2 0.23885922E+00 0.39271263E+04</pdfrwt>
<totfact> 0.21266255E-01</totfact>
</mgrwt>
</event>
<event>
 4    1  0.2069825E-008  0.2380123E+04  0.7816531E-02  0.8446983E-01
         -2   -1    0    0    0  501 -0.00000000000E+00  0.00000000000E+00  0.89563003698E+03  0.89563003698E+03  0.00000000000E+00 0. -1.
          2   -1    0    0  501    0  0.00000000000E+00 -0.00000000000E+00 -0.15812854390E+04  0.15812854390E+04  0.00000000000E+00 0.  1.
    2000013    1    1    2    0    0 -0.44817360101E+03 -0.55380165549E+03 -0.42470964246E+03  0.12611241535E+04  0.95000000000E+03 0.  0.
   -2000013    1    1    2    0    0  0.44817360101E+03  0.55380165549E+03 -0.26094575956E+03  0.12157913224E+04  0.95000000000E+03 0.  0.
<mgrwt>
<rscale>  0 0.23801233E+04</rscale>
<asrwt>0</asrwt>
<pdfrwt beam="2">  1        2 0.24327468E+00 0.23801233E+04</pdfrwt>
<pdfrwt beam="1">  1       -2 0.13778924E+00 0.23801233E+04</pdfrwt>
<totfact> 0.38522632E+00</totfact>
</mgrwt>
</event>
<event>
 4    1  0.2069825E-008  0.2335233E+04  0.7816531E-02  0.8464157E-01
          1   -1    0    0  501    0  0.00000000000E+00  0.00000000000E+00  0.28464220927E+04  0.28464220927E+04  0.00000000000E+00 0.  1.
         -1   -1    0    0    0  501 -0.00000000000E+00 -0.00000000000E+00 -0.47896215332E+03  0.47896215332E+03  0.00000000000E+00 0. -1.
    2000013    1    1    2    0    0  0.62287298364E+03  0.49493502727E+01  0.15680352046E+04  0.19362927600E+04  0.95000000000E+03 0.  0.
   -2000013    1    1    2    0    0 -0.62287298364E+03 -0.49493502727E+01  0.79942473484E+03  0.13890914860E+04  0.95000000000E+03 0.  0.
<mgrwt>
<rscale>  0 0.23352331E+04</rscale>
<asrwt>0</asrwt>
<pdfrwt beam="1">  1        1 0.43791108E+00 0.23352331E+04</pdfrwt>
<pdfrwt beam="2">  1       -1 0.73686487E-01 0.23352331E+04</pdfrwt>
<totfact> 0.12909241E+00</totfact>
</mgrwt>
</event>
<event>
 4    1  0.2069825E-008  0.2067534E+04  0.7816531E-02  0.8575681E-01
         -2   -1    0    0    0  501 -0.00000000000E+00  0.00000000000E+00  0.53954302766E+03  0.53954302766E+03  0.00000000000E+00 0. -1.
          2   -1    0    0  501    0  0.00000000000E+00 -0.00000000000E+00 -0.19807028998E+04  0.19807028998E+04  0.00000000000E+00 0.  1.
    2000013    1    1    2    0    0  0.27289293068E+03  0.26937099323E+01 -0.10896993662E+04  0.14711976469E+04  0.95000000000E+03 0.  0.
   -2000013    1    1    2    0    0 -0.27289293068E+03 -0.26937099323E+01 -0.35146050600E+03  0.10490482806E+04  0.95000000000E+03 0.  0.
<mgrwt>
<rscale>  0 0.20675342E+04</rscale>
<asrwt>0</asrwt>
<pdfrwt beam="2">  1        2 0.30472353E+00 0.20675342E+04</pdfrwt>
<pdfrwt beam="1">  1       -2 0.83006619E-01 0.20675342E+04</pdfrwt>
<totfact> 0.80464891E+00</totfact>
</mgrwt>
</event>
<event>
 4    1  0.2069825E-008  0.2175436E+04  0.7816531E-02  0.8528722E-01
          2   -1    0    0  501    0  0.00000000000E+00  0.00000000000E+00  0.22316095042E+04  0.22316095042E+04  0.00000000000E+00 0.  1.
         -2   -1    0    0    0  501 -0.00000000000E+00 -0.00000000000E+00 -0.53016927288E+03  0.53016927288E+03  0.00000000000E+00 0. -1.
    2000013    1    1    2    0    0 -0.42648336687E+03  0.22032427541E+03  0.11351623699E+04  0.15561248197E+04  0.95000000000E+03 0.  0.
   -2000013    1    1    2    0    0  0.42648336687E+03 -0.22032427541E+03  0.56627786144E+03  0.12056539574E+04  0.95000000000E+03 0.  0.
<mgrwt>
<rscale>  0 0.21754363E+04</rscale>
<asrwt>0</asrwt>
<pdfrwt beam="1">  1        2 0.34332453E+00 0.21754363E+04</pdfrwt>
<pdfrwt beam="2">  1       -2 0.81564505E-01 0.21754363E+04</pdfrwt>
<totfact> 0.60059355E+00</totfact>
</mgrwt>
</event>
<event>
 4    1  0.2069825E-008  0.2783054E+04  0.7816531E-02  0.8308549E-01
          2   -1    0    0  501    0  0.00000000000E+00  0.00000000000E+00  0.22429641620E+04  0.22429641620E+04  0.00000000000E+00 0. -1.
         -2   -1    0    0    0  501 -0.00000000000E+00 -0.00000000000E+00 -0.86329859960E+03  0.86329859960E+03  0.00000000000E+00 0.  1.
    2000013    1    1    2    0    0 -0.36682120899E+03 -0.89255933168E+03  0.10473929602E+04  0.17119439164E+04  0.95000000000E+03 0.  0.
   -2000013    1    1    2    0    0  0.36682120899E+03  0.89255933168E+03  0.33227260227E+03  0.13943188452E+04  0.95000000000E+03 0.  0.
<mgrwt>
<rscale>  0 0.27830543E+04</rscale>
<asrwt>0</asrwt>
<pdfrwt beam="1">  1        2 0.34507141E+00 0.27830543E+04</pdfrwt>
<pdfrwt beam="2">  1       -2 0.13281517E+00 0.27830543E+04</pdfrwt>
<totfact> 0.17500762E+00</totfact>
</mgrwt>
</event>
<event>
 4    1  0.2069825E-008  0.2430373E+04  0.7816531E-02  0.8428219E-01
          2   -1    0    0  501    0  0.00000000000E+00  0.00000000000E+00  0.57415891843E+03  0.57415891843E+03  0.00000000000E+00 0.  1.
         -2   -1    0    0    0  501 -0.00000000000E+00 -0.00000000000E+00 -0.25718980999E+04  0.25718980999E+04  0.00000000000E+00 0. -1.
    2000013    1    1    2    0    0  0.21789257024E+03 -0.38366515566E+03 -0.20142456495E+03  0.10666526985E+04  0.95000000000E+03 0.  0.
   -2000013    1    1    2    0    0 -0.21789257024E+03  0.38366515566E+03 -0.17963146165E+04  0.20794043198E+04  0.95000000000E+03 0.  0.
<mgrwt>
<rscale>  0 0.24303730E+04</rscale>
<asrwt>0</asrwt>
<pdfrwt beam="1">  1        2 0.88332140E-01 0.24303730E+04</pdfrwt>
<pdfrwt beam="2">  1       -2 0.39567664E+00 0.24303730E+04</pdfrwt>
<totfact> 0.37183465E-01</totfact>
</mgrwt>
</event>
<event>
 4    1  0.2069825E-008  0.2530775E+04  0.7816531E-02  0.8392103E-01
          2   -1    0    0  501    0  0.00000000000E+00  0.00000000000E+00  0.32541504733E+04  0.32541504733E+04  0.00000000000E+00 0.  1.
         -2   -1    0    0    0  501 -0.00000000000E+00 -0.00000000000E+00 -0.49205030332E+03  0.49205030332E+03  0.00000000000E+00 0. -1.
    2000013    1    1    2    0    0  0.35731562041E+03  0.67689823460E+03  0.18782936034E+04  0.22397215302E+04  0.95000000000E+03 0.  0.
   -2000013    1    1    2    0    0 -0.35731562041E+03 -0.67689823460E+03  0.88380656663E+03  0.15064792464E+04  0.95000000000E+03 0.  0.
<mgrwt>
<rscale>  0 0.25307752E+04</rscale>
<asrwt>0</asrwt>
<pdfrwt beam="1">  1        2 0.50063852E+00 0.25307752E+04</pdfrwt>
<pdfrwt beam="2">  1       -2 0.75700049E-01 0.25307752E+04</pdfrwt>
<totfact> 0.16634002E+00</totfact>
</mgrwt>
</event>
<event>
 4    1  0.2069825E-008  0.2919425E+04  0.7816531E-02  0.8267121E-01
         -2   -1    0    0    0  501 -0.00000000000E+00  0.00000000000E+00  0.13145269254E+04  0.13145269254E+04  0.00000000000E+00 0. -1.
          2   -1    0    0  501    0  0.00000000000E+00 -0.00000000000E+00 -0.16209333549E+04  0.16209333549E+04  0.00000000000E+00 0.  1.
    2000013    1    1    2    0    0  0.34011442197E+03 -0.53260488025E+03  0.76224509405E+03  0.13721746834E+04  0.95000000000E+03 0.  0.
   -2000013    1    1    2    0    0 -0.34011442197E+03  0.53260488025E+03 -0.10686515235E+04  0.15632855968E+04  0.95000000000E+03 0.  0.
<mgrwt>
<rscale>  0 0.29194250E+04</rscale>
<asrwt>0</asrwt>
<pdfrwt beam="2">  1        2 0.24937436E+00 0.29194250E+04</pdfrwt>
<pdfrwt beam="1">  1       -2 0.20223491E+00 0.29194250E+04</pdfrwt>
<totfact> 0.12029200E+00</totfact>
</mgrwt>
</event>
<event>
 4    1  0.2069825E-008  0.3117755E+04  0.7816531E-02  0.8210882E-01
         -2   -1    0    0    0  501 -0.00000000000E+00  0.00000000000E+00  0.22755329567E+04  0.22755329567E+04  0.00000000000E+00 0.  1.
          2   -1    0    0  501    0  0.00000000000E+00 -0.00000000000E+00 -0.10679254996E+04  0.10679254996E+04  0.00000000000E+00 0. -1.
    2000013    1    1    2    0    0  0.89996366753E+03  0.84173028005E+03  0.50119415822E+03  0.16346681778E+04  0.95000000000E+03 0.  0.
   -2000013    1    1    2    0    0 -0.89996366753E+03 -0.84173028005E+03  0.70641329885E+03  0.17087902785E+04  0.95000000000E+03 0.  0.
<mgrwt>
<rscale>  0 0.31177554E+04</rscale>
<asrwt>0</asrwt>
<pdfrwt beam="2">  1        2 0.16429623E+00 0.31177554E+04</pdfrwt>
<pdfrwt beam="1">  1       -2 0.35008199E+00 0.31177554E+04</pdfrwt>
<totfact> 0.30039426E-01</totfact>
</mgrwt>
</event>
<event>
 4    1  0.2069825E-008  0.3704622E+04  0.7816531E-02  0.8066938E-01
         -2   -1    0    0    0  501 -0.00000000000E+00  0.00000000000E+00  0.26209498283E+04  0.26209498283E+04  0.00000000000E+00 0. -1.
          2   -1    0    0  501    0  0.00000000000E+00 -0.00000000000E+00 -0.13090886533E+04  0.13090886533E+04  0.00000000000E+00 0.  1.
    2000013    1    1    2    0    0 -0.43733586527E+03  0.12954638575E+04 -0.20529617133E+03  0.16775386085E+04  0.95000000000E+03 0.  0.
   -2000013    1    1    2    0    0  0.43733586527E+03 -0.12954638575E+04  0.15171573463E+04  0.22524998732E+04  0.95000000000E+03 0.  0.
<mgrwt>
<rscale>  0 0.37046218E+04</rscale>
<asrwt>0</asrwt>
<pdfrwt beam="2">  1        2 0.20139825E+00 0.37046218E+04</pdfrwt>
<pdfrwt beam="1">  1       -2 0.40322305E+00 0.37046218E+04</pdfrwt>
<totfact> 0.93234598E-02</totfact>
</mgrwt>
</event>
<event>
 4    1  0.2069825E-008  0.2360174E+04  0.7816531E-02  0.8454566E-01
          2   -1    0    0  501    0  0.00000000000E+00  0.00000000000E+00  0.21426617989E+04  0.21426617989E+04  0.00000000000E+00 0.  1.
         -2   -1    0    0    0  501 -0.00000000000E+00 -0.00000000000E+00 -0.64994160425E+03  0.64994160425E+03  0.00000000000E+00 0. -1.
    2000013    1    1    2    0    0  0.64974427437E+02  0.60488354397E+03  0.11562380753E+04  0.16153922944E+04  0.95000000000E+03 0.  0.
   -2000013    1    1    2    0    0 -0.64974427437E+02 -0.60488354397E+03  0.33648211937E+03  0.11772111088E+04  0.95000000000E+03 0.  0.
<mgrwt>
<rscale>  0 0.23601738E+04</rscale>
<asrwt>0</asrwt>
<pdfrwt beam="1">  1        2 0.32964027E+00 0.23601738E+04</pdfrwt>
<pdfrwt beam="2">  1       -2 0.99991017E-01 0.23601738E+04</pdfrwt>
<totfact> 0.41448225E+00</totfact>
</mgrwt>
</event>
<event>
 4    1  0.2069825E-008  0.2336737E+04  0.7816531E-02  0.8463576E-01
         -1   -1    0    0    0  501 -0.00000000000E+00  0.00000000000E+00  0.80447947680E+03  0.80447947680E+03  0.00000000000E+00 0. -1.
          1   -1    0    0  501    0  0.00000000000E+00 -0.00000000000E+00 -0.16968544770E+04  0.16968544770E+04  0.00000000000E+00 0.  1.
    2000013    1    1    2    0    0 -0.66617867855E+03 -0.84012643343E+02 -0.56213360883E+03  0.12920318689E+04  0.95000000000E+03 0.  0.
   -2000013    1    1    2    0    0  0.66617867855E+03  0.84012643343E+02 -0.33024139135E+03  0.12093020849E+04  0.95000000000E+03 0.  0.
<mgrwt>
<rscale>  0 0.23367367E+04</rscale>
<asrwt>0</asrwt>
<pdfrwt beam="2">  1        1 0.26105453E+00 0.23367367E+04</pdfrwt>
<pdfrwt beam="1">  1       -1 0.12376607E+00 0.23367367E+04</pdfrwt>
<totfact> 0.24753194E+00</totfact>
</mgrwt>
</event>
<event>
 4    1  0.2069825E-008  0.2295257E+04  0.7816531E-02  0.8479793E-01
          2   -1    0    0  501    0  0.00000000000E+00  0.00000000000E+00  0.17610836795E+04  0.17610836795E+04  0.00000000000E+00 0. -1.
         -2   -1    0    0    0  501 -0.00000000000E+00 -0.00000000000E+00 -0.74786425955E+03  0.74786425955E+03  0.00000000000E+00 0.  1.
    2000013    1    1    2    0    0  0.36330750651E+03  0.31429911066E+03  0.97521134482E+03  0.14437151528E+04  0.95000000000E+03 0.  0.
   -2000013    1    1    2    0    0 -0.36330750651E+03 -0.31429911066E+03  0.38008075156E+02  0.10652327863E+04  0.95000000000E+03 0.  0.
<mgrwt>
<rscale>  0 0.22952573E+04</rscale>
<asrwt>0</asrwt>
<pdfrwt beam="1">  1        2 0.27093595E+00 0.22952573E+04</pdfrwt>
<pdfrwt beam="2">  1       -2 0.11505604E+00 0.22952573E+04</pdfrwt>
<totfact> 0.48446639E+00</totfact>
</mgrwt>
</event>
<event>
 4    1  0.2069825E-008  0.2372076E+04  0.7816531E-02  0.8450032E-01
         -2   -1    0    0    0  501 -0.00000000000E+00  0.00000000000E+00  0.69909616831E+03  0.69909616831E+03  0.00000000000E+00 0.  1.
          2   -1    0    0  501    0  0.00000000000E+00 -0.00000000000E+00 -0.20121504193E+04  0.20121504193E+04  0.00000000000E+00 0. -1.
    2000013    1    1    2    0    0 -0.48847589010E+03  0.50101553145E+03 -0.79445173419E+03  0.14224200561E+04  0.95000000000E+03 0.  0.
   -2000013    1    1    2    0    0  0.48847589010E+03 -0.50101553145E+03 -0.51860251682E+03  0.12888265315E+04  0.95000000000E+03 0.  0.
<mgrwt>
<rscale>  0 0.23720764E+04</rscale>
<asrwt>0</asrwt>
<pdfrwt beam="2">  1        2 0.30956159E+00 0.23720764E+04</pdfrwt>
<pdfrwt beam="1">  1       -2 0.10755326E+00 0.23720764E+04</pdfrwt>
<totfact> 0.41128431E+00</totfact>
</mgrwt>
</event>
<event>
 4    1  0.2069825E-008  0.2276015E+04  0.7816531E-02  0.8487438E-01
          2   -1    0    0  501    0  0.00000000000E+00  0.00000000000E+00  0.18766753219E+04  0.18766753219E+04  0.00000000000E+00 0.  1.
         -2   -1    0    0    0  501 -0.00000000000E+00 -0.00000000000E+00 -0.69008293405E+03  0.69008293405E+03  0.00000000000E+00 0. -1.
    2000013    1    1    2    0    0  0.40049600115E+03 -0.46996145017E+03  0.71318106126E+03  0.13388009702E+04  0.95000000000E+03 0.  0.
   -2000013    1    1    2    0    0 -0.40049600115E+03  0.46996145017E+03  0.47341132662E+03  0.12279572858E+04  0.95000000000E+03 0.  0.
<mgrwt>
<rscale>  0 0.22760155E+04</rscale>
<asrwt>0</asrwt>
<pdfrwt beam="1">  1        2 0.28871928E+00 0.22760155E+04</pdfrwt>
<pdfrwt beam="2">  1       -2 0.10616661E+00 0.22760155E+04</pdfrwt>
<totfact> 0.50869035E+00</totfact>
</mgrwt>
</event>
<event>
 4    1  0.2069825E-008  0.3661208E+04  0.7816531E-02  0.8076613E-01
         -1   -1    0    0    0  501 -0.00000000000E+00  0.00000000000E+00  0.14159692538E+04  0.14159692538E+04  0.00000000000E+00 0. -1.
          1   -1    0    0  501    0  0.00000000000E+00 -0.00000000000E+00 -0.23666547527E+04  0.23666547527E+04  0.00000000000E+00 0.  1.
    2000013    1    1    2    0    0 -0.98476866941E+03  0.11271736708E+04 -0.37850201240E+01  0.17727955728E+04  0.95000000000E+03 0.  0.
   -2000013    1    1    2    0    0  0.98476866941E+03 -0.11271736708E+04 -0.94690047875E+03  0.20098284337E+04  0.95000000000E+03 0.  0.
<mgrwt>
<rscale>  0 0.36612077E+04</rscale>
<asrwt>0</asrwt>
<pdfrwt beam="2">  1        1 0.36410073E+00 0.36612077E+04</pdfrwt>
<pdfrwt beam="1">  1       -1 0.21784142E+00 0.36612077E+04</pdfrwt>
<totfact> 0.15340994E-01</totfact>
</mgrwt>
</event>
<event>
 4    1  0.2069825E-008  0.2271320E+04  0.7816531E-02  0.8489316E-01
         -2   -1    0    0    0  501 -0.00000000000E+00  0.00000000000E+00  0.86145240666E+03  0.86145240666E+03  0.00000000000E+00 0. -1.
          2   -1    0    0  501    0  0.00000000000E+00 -0.00000000000E+00 -0.14971505829E+04  0.14971505829E+04  0.00000000000E+00 0.  1.
    2000013    1    1    2    0    0  0.50682654447E+03 -0.31267022092E+03 -0.50530812421E+03  0.12298260501E+04  0.95000000000E+03 0.  0.
   -2000013    1    1    2    0    0 -0.50682654447E+03  0.31267022092E+03 -0.13039005201E+03  0.11287769394E+04  0.95000000000E+03 0.  0.
<mgrwt>
<rscale>  0 0.22713203E+04</rscale>
<asrwt>0</asrwt>
<pdfrwt beam="2">  1        2 0.23033086E+00 0.22713203E+04</pdfrwt>
<pdfrwt beam="1">  1       -2 0.13253114E+00 0.22713203E+04</pdfrwt>
<totfact> 0.47888948E+00</totfact>
</mgrwt>
</event>
<event>
 4    1  0.2069825E-008  0.3092067E+04  0.7816531E-02  0.8217918E-01
         -2   -1    0    0    0  501 -0.00000000000E+00  0.00000000000E+00  0.12579651775E+04  0.12579651775E+04  0.00000000000E+00 0. -1.
          2   -1    0    0  501    0  0.00000000000E+00 -0.00000000000E+00 -0.19000684369E+04  0.19000684369E+04  0.00000000000E+00 0.  1.
    2000013    1    1    2    0    0  0.11854679119E+04  0.20146106160E+03 -0.52986187392E+03  0.16214728906E+04  0.95000000000E+03 0.  0.
   -2000013    1    1    2    0    0 -0.11854679119E+04 -0.20146106160E+03 -0.11224138552E+03  0.15365607238E+04  0.95000000000E+03 0.  0.
<mgrwt>
<rscale>  0 0.30920672E+04</rscale>
<asrwt>0</asrwt>
<pdfrwt beam="2">  1        2 0.29231822E+00 0.30920672E+04</pdfrwt>
<pdfrwt beam="1">  1       -2 0.19353310E+00 0.30920672E+04</pdfrwt>
<totfact> 0.94694639E-01</totfact>
</mgrwt>
</event>
<event>
 4    1  0.2069825E-008  0.2495777E+04  0.7816531E-02  0.8404492E-01
          2   -1    0    0  501    0  0.00000000000E+00  0.00000000000E+00  0.59064387553E+03  0.59064387553E+03  0.00000000000E+00 0. -1.
         -2   -1    0    0    0  501 -0.00000000000E+00 -0.00000000000E+00 -0.26364879522E+04  0.26364879522E+04  0.00000000000E+00 0.  1.
    2000013    1    1    2    0    0 -0.68965443360E+03 -0.36570057424E+03 -0.74751633862E+03  0.14389721416E+04  0.95000000000E+03 0.  0.
   -2000013    1    1    2    0    0  0.68965443360E+03  0.36570057424E+03 -0.12983277381E+04  0.17881596862E+04  0.95000000000E+03 0.  0.
<mgrwt>
<rscale>  0 0.24957768E+04</rscale>
<asrwt>0</asrwt>
<pdfrwt beam="1">  1        2 0.90868289E-01 0.24957768E+04</pdfrwt>
<pdfrwt beam="2">  1       -2 0.40561353E+00 0.24957768E+04</pdfrwt>
<totfact> 0.30763878E-01</totfact>
</mgrwt>
</event>
<event>
 4    1  0.2069825E-008  0.2157663E+04  0.7816531E-02  0.8536259E-01
          2   -1    0    0  501    0  0.00000000000E+00  0.00000000000E+00  0.10818430405E+04  0.10818430405E+04  0.00000000000E+00 0.  1.
         -2   -1    0    0    0  501 -0.00000000000E+00 -0.00000000000E+00 -0.10758283489E+04  0.10758283489E+04  0.00000000000E+00 0. -1.
    2000013    1    1    2    0    0  0.41710665422E+03 -0.29491172200E+03 -0.17645269903E+02  0.10787781238E+04  0.95000000000E+03 0.  0.
   -2000013    1    1    2    0    0 -0.41710665422E+03  0.29491172200E+03  0.23659961516E+02  0.10788932656E+04  0.95000000000E+03 0.  0.
<mgrwt>
<rscale>  0 0.21576630E+04</rscale>
<asrwt>0</asrwt>
<pdfrwt beam="1">  1        2 0.16643739E+00 0.21576630E+04</pdfrwt>
<pdfrwt beam="2">  1       -2 0.16551205E+00 0.21576630E+04</pdfrwt>
<totfact> 0.47071148E+00</totfact>
</mgrwt>
</event>
<event>
 4    1  0.2069825E-008  0.2453118E+04  0.7816531E-02  0.8419880E-01
          2   -1    0    0  501    0  0.00000000000E+00  0.00000000000E+00  0.10872498449E+04  0.10872498449E+04  0.00000000000E+00 0.  1.
         -2   -1    0    0    0  501 -0.00000000000E+00 -0.00000000000E+00 -0.13837180598E+04  0.13837180598E+04  0.00000000000E+00 0. -1.
    2000013    1    1    2    0    0 -0.48354072809E+03 -0.18683057103E+03 -0.72969517267E+03  0.13052480006E+04  0.95000000000E+03 0.  0.
   -2000013    1    1    2    0    0  0.48354072809E+03  0.18683057103E+03  0.43322695779E+03  0.11657199042E+04  0.95000000000E+03 0.  0.
<mgrwt>
<rscale>  0 0.24531182E+04</rscale>
<asrwt>0</asrwt>
<pdfrwt beam="1">  1        2 0.16726921E+00 0.24531182E+04</pdfrwt>
<pdfrwt beam="2">  1       -2 0.21287970E+00 0.24531182E+04</pdfrwt>
<totfact> 0.21793246E+00</totfact>
</mgrwt>
</event>
<event>
 4    1  0.2069825E-008  0.2228155E+04  0.7816531E-02  0.8506800E-01
          2   -1    0    0  501    0  0.00000000000E+00  0.00000000000E+00  0.14118622839E+04  0.14118622839E+04  0.00000000000E+00 0.  1.
         -2   -1    0    0    0  501 -0.00000000000E+00 -0.00000000000E+00 -0.87910043686E+03  0.87910043686E+03  0.00000000000E+00 0. -1.
    2000013    1    1    2    0    0  0.31889504182E+03  0.48354526618E+03  0.32416728050E+03  0.11589195390E+04  0.95000000000E+03 0.  0.
   -2000013    1    1    2    0    0 -0.31889504182E+03 -0.48354526618E+03  0.20859456653E+03  0.11320431817E+04  0.95000000000E+03 0.  0.
<mgrwt>
<rscale>  0 0.22281551E+04</rscale>
<asrwt>0</asrwt>
<pdfrwt beam="1">  1        2 0.21720958E+00 0.22281551E+04</pdfrwt>
<pdfrwt beam="2">  1       -2 0.13524622E+00 0.22281551E+04</pdfrwt>
<totfact> 0.51024140E+00</totfact>
</mgrwt>
</event>
<event>
 4    1  0.2069825E-008  0.2089116E+04  0.7816531E-02  0.8566053E-01
         -1   -1    0    0    0  501 -0.00000000000E+00  0.00000000000E+00  0.87117234700E+03  0.87117234700E+03  0.00000000000E+00 0. -1.
          1   -1    0    0  501    0  0.00000000000E+00 -0.00000000000E+00 -0.12524524158E+04  0.12524524158E+04  0.00000000000E+00 0.  1.
    2000013    1    1    2    0    0  0.28480074551E+03 -0.19818574684E+03  0.74850011629E+02  0.10141457386E+04  0.95000000000E+03 0.  0.
   -2000013    1    1    2    0    0 -0.28480074551E+03  0.19818574684E+03 -0.45613008046E+03  0.11094790242E+04  0.95000000000E+03 0.  0.
<mgrwt>
<rscale>  0 0.20891165E+04</rscale>
<asrwt>0</asrwt>
<pdfrwt beam="2">  1        1 0.19268499E+00 0.20891165E+04</pdfrwt>
<pdfrwt beam="1">  1       -1 0.13402652E+00 0.20891165E+04</pdfrwt>
<totfact> 0.42280555E+00</totfact>
</mgrwt>
</event>
<event>
 4    1  0.2069825E-008  0.3041371E+04  0.7816531E-02  0.8232015E-01
          2   -1    0    0  501    0  0.00000000000E+00  0.00000000000E+00  0.23609279842E+04  0.23609279842E+04  0.00000000000E+00 0.  1.
         -2   -1    0    0    0  501 -0.00000000000E+00 -0.00000000000E+00 -0.97948086976E+03  0.97948086976E+03  0.00000000000E+00 0. -1.
    2000013    1    1    2    0    0 -0.10447075930E+04  0.30520492922E+03  0.16925718972E+03  0.14545487273E+04  0.95000000000E+03 0.  0.
   -2000013    1    1    2    0    0  0.10447075930E+04 -0.30520492922E+03  0.12121899247E+04  0.18858601267E+04  0.95000000000E+03 0.  0.
<mgrwt>
<rscale>  0 0.30413706E+04</rscale>
<asrwt>0</asrwt>
<pdfrwt beam="1">  1        2 0.36321969E+00 0.30413706E+04</pdfrwt>
<pdfrwt beam="2">  1       -2 0.15068937E+00 0.30413706E+04</pdfrwt>
<totfact> 0.10567933E+00</totfact>
</mgrwt>
</event>
<event>
 4    1  0.2069825E-008  0.2370310E+04  0.7816531E-02  0.8450703E-01
         -2   -1    0    0    0  501 -0.00000000000E+00  0.00000000000E+00  0.63404953980E+03  0.63404953980E+03  0.00000000000E+00 0. -1.
          2   -1    0    0  501    0  0.00000000000E+00 -0.00000000000E+00 -0.22152722150E+04  0.22152722150E+04  0.00000000000E+00 0.  1.
    2000013    1    1    2    0    0 -0.45137460557E+03  0.54326314836E+03 -0.72241525403E+03  0.13868156626E+04  0.95000000000E+03 0.  0.
   -2000013    1    1    2    0    0  0.45137460557E+03 -0.54326314836E+03 -0.85880742117E+03  0.14625060921E+04  0.95000000000E+03 0.  0.
<mgrwt>
<rscale>  0 0.23703100E+04</rscale>
<asrwt>0</asrwt>
<pdfrwt beam="2">  1        2 0.34081111E+00 0.23703100E+04</pdfrwt>
<pdfrwt beam="1">  1       -2 0.97546083E-01 0.23703100E+04</pdfrwt>
<totfact> 0.39967264E+00</totfact>
</mgrwt>
</event>
<event>
 4    1  0.2069825E-008  0.3332376E+04  0.7816531E-02  0.8154706E-01
         -2   -1    0    0    0  501 -0.00000000000E+00  0.00000000000E+00  0.29956828289E+04  0.29956828289E+04  0.00000000000E+00 0. -1.
          2   -1    0    0  501    0  0.00000000000E+00 -0.00000000000E+00 -0.92672771168E+03  0.92672771168E+03  0.00000000000E+00 0.  1.
    2000013    1    1    2    0    0  0.13343837117E+04 -0.14724623365E+02  0.67574298890E+03  0.17719834344E+04  0.95000000000E+03 0.  0.
   -2000013    1    1    2    0    0 -0.13343837117E+04  0.14724623365E+02  0.13932121283E+04  0.21504271062E+04  0.95000000000E+03 0.  0.
<mgrwt>
<rscale>  0 0.33323759E+04</rscale>
<asrwt>0</asrwt>
<pdfrwt beam="2">  1        2 0.14257350E+00 0.33323759E+04</pdfrwt>
<pdfrwt beam="1">  1       -2 0.46087428E+00 0.33323759E+04</pdfrwt>
<totfact> 0.68856022E-02</totfact>
</mgrwt>
</event>
<event>
 4    1  0.2069825E-008  0.3288446E+04  0.7816531E-02  0.8165841E-01
         -2   -1    0    0    0  501 -0.00000000000E+00  0.00000000000E+00  0.18450789166E+04  0.18450789166E+04  0.00000000000E+00 0. -1.
          2   -1    0    0  501    0  0.00000000000E+00 -0.00000000000E+00 -0.14652327601E+04  0.14652327601E+04  0.00000000000E+00 0.  1.
    2000013    1    1    2    0    0 -0.30048622055E+03  0.11193177186E+04  0.87103553542E+03  0.17333110015E+04  0.95000000000E+03 0.  0.
   -2000013    1    1    2    0    0  0.30048622055E+03 -0.11193177186E+04 -0.49118937887E+03  0.15770006752E+04  0.95000000000E+03 0.  0.
<mgrwt>
<rscale>  0 0.32884465E+04</rscale>
<asrwt>0</asrwt>
<pdfrwt beam="2">  1        2 0.22542042E+00 0.32884465E+04</pdfrwt>
<pdfrwt beam="1">  1       -2 0.28385829E+00 0.32884465E+04</pdfrwt>
<totfact> 0.44293530E-01</totfact>
</mgrwt>
</event>
<event>
 4    1  0.2069825E-008  0.2252885E+04  0.7816531E-02  0.8496733E-01
         -2   -1    0    0    0  501 -0.00000000000E+00  0.00000000000E+00  0.14509379708E+04  0.14509379708E+04  0.00000000000E+00 0. -1.
          2   -1    0    0  501    0  0.00000000000E+00 -0.00000000000E+00 -0.87451930528E+03  0.87451930528E+03  0.00000000000E+00 0.  1.
    2000013    1    1    2    0    0 -0.25967976522E+03  0.50329972576E+03  0.50869992442E+03  0.12173823588E+04  0.95000000000E+03 0.  0.
   -2000013    1    1    2    0    0  0.25967976522E+03 -0.50329972576E+03  0.67718741099E+02  0.11080749173E+04  0.95000000000E+03 0.  0.
<mgrwt>
<rscale>  0 0.22528855E+04</rscale>
<asrwt>0</asrwt>
<pdfrwt beam="2">  1        2 0.13454143E+00 0.22528855E+04</pdfrwt>
<pdfrwt beam="1">  1       -2 0.22322123E+00 0.22528855E+04</pdfrwt>
<totfact> 0.26186695E+00</totfact>
</mgrwt>
</event>
<event>
 4    1  0.2069825E-008  0.2700024E+04  0.7816531E-02  0.8334997E-01
          2   -1    0    0  501    0  0.00000000000E+00  0.00000000000E+00  0.42025448026E+04  0.42025448026E+04  0.00000000000E+00 0.  1.
         -2   -1    0    0    0  501 -0.00000000000E+00 -0.00000000000E+00 -0.43367360383E+03  0.43367360383E+03  0.00000000000E+00 0. -1.
    2000013    1    1    2    0    0  0.60851171142E+02  0.86634961071E+03  0.11853234014E+04  0.17497874382E+04  0.95000000000E+03 0.  0.
   -2000013    1    1    2    0    0 -0.60851171142E+02 -0.86634961071E+03  0.25835477974E+04  0.28864309683E+04  0.95000000000E+03 0.  0.
<mgrwt>
<rscale>  0 0.27000243E+04</rscale>
<asrwt>0</asrwt>
<pdfrwt beam="1">  1        2 0.64654533E+00 0.27000243E+04</pdfrwt>
<pdfrwt beam="2">  1       -2 0.66719019E-01 0.27000243E+04</pdfrwt>
<totfact> 0.41966221E-01</totfact>
</mgrwt>
</event>
<event>
 4    1  0.2069825E-008  0.3288737E+04  0.7816531E-02  0.8165767E-01
          2   -1    0    0  501    0  0.00000000000E+00  0.00000000000E+00  0.20365670741E+04  0.20365670741E+04  0.00000000000E+00 0.  1.
         -2   -1    0    0    0  501 -0.00000000000E+00 -0.00000000000E+00 -0.13276984540E+04  0.13276984540E+04  0.00000000000E+00 0. -1.
    2000013    1    1    2    0    0 -0.11606428051E+04 -0.32784911659E+03 -0.24804852212E+03  0.15551864305E+04  0.95000000000E+03 0.  0.
   -2000013    1    1    2    0    0  0.11606428051E+04  0.32784911659E+03  0.95691714224E+03  0.18090790976E+04  0.95000000000E+03 0.  0.
<mgrwt>
<rscale>  0 0.32887365E+04</rscale>
<asrwt>0</asrwt>
<pdfrwt beam="1">  1        2 0.31331801E+00 0.32887365E+04</pdfrwt>
<pdfrwt beam="2">  1       -2 0.20426130E+00 0.32887365E+04</pdfrwt>
<totfact> 0.66479474E-01</totfact>
</mgrwt>
</event>
<event>
 4    1  0.2069825E-008  0.3555528E+04  0.7816531E-02  0.8100755E-01
         -2   -1    0    0    0  501 -0.00000000000E+00  0.00000000000E+00  0.14269231315E+04  0.14269231315E+04  0.00000000000E+00 0. -1.
          2   -1    0    0  501    0  0.00000000000E+00 -0.00000000000E+00 -0.22148666927E+04  0.22148666927E+04  0.00000000000E+00 0.  1.
    2000013    1    1    2    0    0  0.29081243019E+02  0.10739356651E+04  0.68211752847E+03  0.15880704815E+04  0.95000000000E+03 0.  0.
   -2000013    1    1    2    0    0 -0.29081243019E+02 -0.10739356651E+04 -0.14700610896E+04  0.20537193428E+04  0.95000000000E+03 0.  0.
<mgrwt>
<rscale>  0 0.35555278E+04</rscale>
<asrwt>0</asrwt>
<pdfrwt beam="2">  1        2 0.34074872E+00 0.35555278E+04</pdfrwt>
<pdfrwt beam="1">  1       -2 0.21952664E+00 0.35555278E+04</pdfrwt>
<totfact> 0.41236078E-01</totfact>
</mgrwt>
</event>
<event>
 4    1  0.2069825E-008  0.3526466E+04  0.7816531E-02  0.8107546E-01
          1   -1    0    0  501    0  0.00000000000E+00  0.00000000000E+00  0.81291826938E+03  0.81291826938E+03  0.00000000000E+00 0.  1.
         -1   -1    0    0    0  501 -0.00000000000E+00 -0.00000000000E+00 -0.38244803805E+04  0.38244803805E+04  0.00000000000E+00 0. -1.
    2000013    1    1    2    0    0  0.99939865793E+03  0.13929636064E+03 -0.29392747279E+04  0.32496210670E+04  0.95000000000E+03 0.  0.
   -2000013    1    1    2    0    0 -0.99939865793E+03 -0.13929636064E+03 -0.72287383233E+02  0.13877775828E+04  0.95000000000E+03 0.  0.
<mgrwt>
<rscale>  0 0.35264656E+04</rscale>
<asrwt>0</asrwt>
<pdfrwt beam="1">  1        1 0.12506435E+00 0.35264656E+04</pdfrwt>
<pdfrwt beam="2">  1       -1 0.58838162E+00 0.35264656E+04</pdfrwt>
<totfact> 0.85887251E-03</totfact>
</mgrwt>
</event>
<event>
 4    1  0.2069825E-008  0.2634807E+04  0.7816531E-02  0.8356473E-01
         -2   -1    0    0    0  501 -0.00000000000E+00  0.00000000000E+00  0.96338505604E+03  0.96338505604E+03  0.00000000000E+00 0. -1.
          2   -1    0    0  501    0  0.00000000000E+00 -0.00000000000E+00 -0.18015147343E+04  0.18015147343E+04  0.00000000000E+00 0.  1.
    2000013    1    1    2    0    0 -0.27110039685E+03 -0.21216931648E+03  0.46797710072E+03  0.11135590738E+04  0.95000000000E+03 0.  0.
   -2000013    1    1    2    0    0  0.27110039685E+03  0.21216931648E+03 -0.13061067790E+04  0.16513407166E+04  0.95000000000E+03 0.  0.
<mgrwt>
<rscale>  0 0.26348073E+04</rscale>
<asrwt>0</asrwt>
<pdfrwt beam="2">  1        2 0.27715611E+00 0.26348073E+04</pdfrwt>
<pdfrwt beam="1">  1       -2 0.14821309E+00 0.26348073E+04</pdfrwt>
<totfact> 0.23496557E+00</totfact>
</mgrwt>
</event>
<event>
 4    1  0.2069825E-008  0.2004676E+04  0.7816531E-02  0.8604438E-01
         -2   -1    0    0    0  501 -0.00000000000E+00  0.00000000000E+00  0.47032735896E+03  0.47032735896E+03  0.00000000000E+00 0. -1.
          2   -1    0    0  501    0  0.00000000000E+00 -0.00000000000E+00 -0.21361317119E+04  0.21361317119E+04  0.00000000000E+00 0.  1.
    2000013    1    1    2    0    0  0.25581417877E+03  0.14383580184E+03 -0.99762938084E+03  0.14085077257E+04  0.95000000000E+03 0.  0.
   -2000013    1    1    2    0    0 -0.25581417877E+03 -0.14383580184E+03 -0.66817497213E+03  0.11979513451E+04  0.95000000000E+03 0.  0.
<mgrwt>
<rscale>  0 0.20046757E+04</rscale>
<asrwt>0</asrwt>
<pdfrwt beam="2">  1        2 0.32863564E+00 0.20046757E+04</pdfrwt>
<pdfrwt beam="1">  1       -2 0.72358056E-01 0.20046757E+04</pdfrwt>
<totfact> 0.90032048E+00</totfact>
</mgrwt>
</event>
<event>
 4    1  0.2069825E-008  0.2540208E+04  0.7816531E-02  0.8388799E-01
         -1   -1    0    0    0  501 -0.00000000000E+00  0.00000000000E+00  0.65712530800E+03  0.65712530800E+03  0.00000000000E+00 0.  1.
          1   -1    0    0  501    0  0.00000000000E+00 -0.00000000000E+00 -0.24548815078E+04  0.24548815078E+04  0.00000000000E+00 0. -1.
    2000013    1    1    2    0    0  0.10586535521E+03  0.66976845327E+03 -0.15124894603E+04  0.19104768049E+04  0.95000000000E+03 0.  0.
   -2000013    1    1    2    0    0 -0.10586535521E+03 -0.66976845327E+03 -0.28526673947E+03  0.12015300109E+04  0.95000000000E+03 0.  0.
<mgrwt>
<rscale>  0 0.25402085E+04</rscale>
<asrwt>0</asrwt>
<pdfrwt beam="2">  1        1 0.37767408E+00 0.25402085E+04</pdfrwt>
<pdfrwt beam="1">  1       -1 0.10109620E+00 0.25402085E+04</pdfrwt>
<totfact> 0.11976858E+00</totfact>
</mgrwt>
</event>
<event>
 4    1  0.2069825E-008  0.2198865E+04  0.7816531E-02  0.8518901E-01
         -2   -1    0    0    0  501 -0.00000000000E+00  0.00000000000E+00  0.78607139921E+03  0.78607139921E+03  0.00000000000E+00 0. -1.
          2   -1    0    0  501    0  0.00000000000E+00 -0.00000000000E+00 -0.15377127276E+04  0.15377127276E+04  0.00000000000E+00 0.  1.
    2000013    1    1    2    0    0  0.53396020049E+03 -0.13515720306E+03 -0.31919464119E+03  0.11435760509E+04  0.95000000000E+03 0.  0.
   -2000013    1    1    2    0    0 -0.53396020049E+03  0.13515720306E+03 -0.43244668724E+03  0.11802080760E+04  0.95000000000E+03 0.  0.
<mgrwt>
<rscale>  0 0.21988652E+04</rscale>
<asrwt>0</asrwt>
<pdfrwt beam="2">  1        2 0.23657119E+00 0.21988652E+04</pdfrwt>
<pdfrwt beam="1">  1       -2 0.12093406E+00 0.21988652E+04</pdfrwt>
<totfact> 0.57557878E+00</totfact>
</mgrwt>
</event>
<event>
 4    1  0.2069825E-008  0.2674418E+04  0.7816531E-02  0.8343353E-01
         -2   -1    0    0    0  501 -0.00000000000E+00  0.00000000000E+00  0.13993877916E+04  0.13993877916E+04  0.00000000000E+00 0. -1.
          2   -1    0    0  501    0  0.00000000000E+00 -0.00000000000E+00 -0.12777934316E+04  0.12777934316E+04  0.00000000000E+00 0.  1.
    2000013    1    1    2    0    0  0.74137912039E+03 -0.42865803286E+03 -0.32978253628E+03  0.13208509494E+04  0.95000000000E+03 0.  0.
   -2000013    1    1    2    0    0 -0.74137912039E+03  0.42865803286E+03  0.45137689630E+03  0.13563302739E+04  0.95000000000E+03 0.  0.
<mgrwt>
<rscale>  0 0.26744185E+04</rscale>
<asrwt>0</asrwt>
<pdfrwt beam="2">  1        2 0.19658361E+00 0.26744185E+04</pdfrwt>
<pdfrwt beam="1">  1       -2 0.21529043E+00 0.26744185E+04</pdfrwt>
<totfact> 0.15858370E+00</totfact>
</mgrwt>
</event>
<event>
 4    1  0.2069825E-008  0.3154384E+04  0.7816531E-02  0.8200969E-01
         -2   -1    0    0    0  501 -0.00000000000E+00  0.00000000000E+00  0.13078039612E+04  0.13078039612E+04  0.00000000000E+00 0. -1.
          2   -1    0    0  501    0  0.00000000000E+00 -0.00000000000E+00 -0.19020696390E+04  0.19020696390E+04  0.00000000000E+00 0.  1.
    2000013    1    1    2    0    0 -0.89369936181E+03 -0.73701480228E+03 -0.79890427306E+03  0.16978331501E+04  0.95000000000E+03 0.  0.
   -2000013    1    1    2    0    0  0.89369936181E+03  0.73701480228E+03  0.20463859526E+03  0.15120404501E+04  0.95000000000E+03 0.  0.
<mgrwt>
<rscale>  0 0.31543837E+04</rscale>
<asrwt>0</asrwt>
<pdfrwt beam="2">  1        2 0.29262610E+00 0.31543837E+04</pdfrwt>
<pdfrwt beam="1">  1       -2 0.20120061E+00 0.31543837E+04</pdfrwt>
<totfact> 0.83613508E-01</totfact>
</mgrwt>
</event>
<event>
 4    1  0.2069825E-008  0.2171296E+04  0.7816531E-02  0.8530471E-01
          1   -1    0    0  501    0  0.00000000000E+00  0.00000000000E+00  0.13031802401E+04  0.13031802401E+04  0.00000000000E+00 0.  1.
         -1   -1    0    0    0  501 -0.00000000000E+00 -0.00000000000E+00 -0.90442745448E+03  0.90442745448E+03  0.00000000000E+00 0. -1.
    2000013    1    1    2    0    0  0.45422686272E+03  0.13804436328E+03 -0.29676952097E+02  0.10624307086E+04  0.95000000000E+03 0.  0.
   -2000013    1    1    2    0    0 -0.45422686272E+03 -0.13804436328E+03  0.42842973768E+03  0.11451769860E+04  0.95000000000E+03 0.  0.
<mgrwt>
<rscale>  0 0.21712964E+04</rscale>
<asrwt>0</asrwt>
<pdfrwt beam="1">  1        1 0.20048927E+00 0.21712964E+04</pdfrwt>
<pdfrwt beam="2">  1       -1 0.13914269E+00 0.21712964E+04</pdfrwt>
<totfact> 0.35034908E+00</totfact>
</mgrwt>
</event>
<event>
 4    1  0.2069825E-008  0.2197038E+04  0.7816531E-02  0.8519662E-01
          2   -1    0    0  501    0  0.00000000000E+00  0.00000000000E+00  0.48230720703E+03  0.48230720703E+03  0.00000000000E+00 0.  1.
         -2   -1    0    0    0  501 -0.00000000000E+00 -0.00000000000E+00 -0.25020232714E+04  0.25020232714E+04  0.00000000000E+00 0. -1.
    2000013    1    1    2    0    0 -0.34821389380E+03  0.19085786826E+03 -0.15298819783E+04  0.18441037143E+04  0.95000000000E+03 0.  0.
   -2000013    1    1    2    0    0  0.34821389380E+03 -0.19085786826E+03 -0.48983408611E+03  0.11402267641E+04  0.95000000000E+03 0.  0.
<mgrwt>
<rscale>  0 0.21970379E+04</rscale>
<asrwt>0</asrwt>
<pdfrwt beam="1">  1        2 0.74201108E-01 0.21970379E+04</pdfrwt>
<pdfrwt beam="2">  1       -2 0.38492666E+00 0.21970379E+04</pdfrwt>
<totfact> 0.54711555E-01</totfact>
</mgrwt>
</event>
<event>
 4    1  0.2069825E-008  0.2618600E+04  0.7816531E-02  0.8361910E-01
          2   -1    0    0  501    0  0.00000000000E+00  0.00000000000E+00  0.24162933587E+04  0.24162933587E+04  0.00000000000E+00 0.  1.
         -2   -1    0    0    0  501 -0.00000000000E+00 -0.00000000000E+00 -0.70946143044E+03  0.70946143044E+03  0.00000000000E+00 0. -1.
    2000013    1    1    2    0    0 -0.49278932940E+03  0.74145195399E+03  0.68812501997E+03  0.14726195593E+04  0.95000000000E+03 0.  0.
   -2000013    1    1    2    0    0  0.49278932940E+03 -0.74145195399E+03  0.10187069083E+04  0.16531352299E+04  0.95000000000E+03 0.  0.
<mgrwt>
<rscale>  0 0.26186003E+04</rscale>
<asrwt>0</asrwt>
<pdfrwt beam="1">  1        2 0.37173744E+00 0.26186003E+04</pdfrwt>
<pdfrwt beam="2">  1       -2 0.10914791E+00 0.26186003E+04</pdfrwt>
<totfact> 0.23002235E+00</totfact>
</mgrwt>
</event>
<event>
 4    1  0.2069825E-008  0.2108892E+04  0.7816531E-02  0.8557337E-01
          2   -1    0    0  501    0  0.00000000000E+00  0.00000000000E+00  0.15081293940E+04  0.15081293940E+04  0.00000000000E+00 0. -1.
         -2   -1    0    0    0  501 -0.00000000000E+00 -0.00000000000E+00 -0.73724180403E+03  0.73724180403E+03  0.00000000000E+00 0.  1.
    2000013    1    1    2    0    0  0.13809816649E+03 -0.43596419660E+03  0.36964608919E+03  0.11172618832E+04  0.95000000000E+03 0.  0.
   -2000013    1    1    2    0    0 -0.13809816649E+03  0.43596419660E+03  0.40124150075E+03  0.11281093148E+04  0.95000000000E+03 0.  0.
<mgrwt>
<rscale>  0 0.21088917E+04</rscale>
<asrwt>0</asrwt>
<pdfrwt beam="1">  1        2 0.23201991E+00 0.21088917E+04</pdfrwt>
<pdfrwt beam="2">  1       -2 0.11342182E+00 0.21088917E+04</pdfrwt>
<totfact> 0.70551882E+00</totfact>
</mgrwt>
</event>
<event>
 4    1  0.2069825E-008  0.3986096E+04  0.7816531E-02  0.8007357E-01
         -2   -1    0    0    0  501 -0.00000000000E+00  0.00000000000E+00  0.15723951901E+04  0.15723951901E+04  0.00000000000E+00 0. -1.
          2   -1    0    0  501    0  0.00000000000E+00 -0.00000000000E+00 -0.25262353319E+04  0.25262353319E+04  0.00000000000E+00 0.  1.
    2000013    1    1    2    0    0  0.33966546487E+03  0.15224563082E+04  0.34340942584E+03  0.18584068102E+04  0.95000000000E+03 0.  0.
   -2000013    1    1    2    0    0 -0.33966546487E+03 -0.15224563082E+04 -0.12972495676E+04  0.22402237118E+04  0.95000000000E+03 0.  0.
<mgrwt>
<rscale>  0 0.39860960E+04</rscale>
<asrwt>0</asrwt>
<pdfrwt beam="2">  1        2 0.38865159E+00 0.39860960E+04</pdfrwt>
<pdfrwt beam="1">  1       -2 0.24190695E+00 0.39860960E+04</pdfrwt>
<totfact> 0.19135336E-01</totfact>
</mgrwt>
</event>
<event>
 4    1  0.2069825E-008  0.2621315E+04  0.7816531E-02  0.8360997E-01
         -2   -1    0    0    0  501 -0.00000000000E+00  0.00000000000E+00  0.20538525667E+04  0.20538525667E+04  0.00000000000E+00 0. -1.
          2   -1    0    0  501    0  0.00000000000E+00 -0.00000000000E+00 -0.83639071566E+03  0.83639071566E+03  0.00000000000E+00 0.  1.
    2000013    1    1    2    0    0 -0.26491959219E+03 -0.72538005325E+03  0.92787442989E+02  0.12277899338E+04  0.95000000000E+03 0.  0.
   -2000013    1    1    2    0    0  0.26491959219E+03  0.72538005325E+03  0.11246744081E+04  0.16624533485E+04  0.95000000000E+03 0.  0.
<mgrwt>
<rscale>  0 0.26213151E+04</rscale>
<asrwt>0</asrwt>
<pdfrwt beam="2">  1        2 0.12867550E+00 0.26213151E+04</pdfrwt>
<pdfrwt beam="1">  1       -2 0.31597732E+00 0.26213151E+04</pdfrwt>
<totfact> 0.72644158E-01</totfact>
</mgrwt>
</event>
<event>
 4    1  0.2069825E-008  0.2472220E+04  0.7816531E-02  0.8412950E-01
          2   -1    0    0  501    0  0.00000000000E+00  0.00000000000E+00  0.12774149035E+04  0.12774149035E+04  0.00000000000E+00 0.  1.
         -2   -1    0    0    0  501 -0.00000000000E+00 -0.00000000000E+00 -0.11961404398E+04  0.11961404398E+04  0.00000000000E+00 0. -1.
    2000013    1    1    2    0    0  0.75160703331E+03 -0.56779006758E+02  0.28020475408E+03  0.12446492246E+04  0.95000000000E+03 0.  0.
   -2000013    1    1    2    0    0 -0.75160703331E+03  0.56779006758E+02 -0.19893029045E+03  0.12289061187E+04  0.95000000000E+03 0.  0.
<mgrwt>
<rscale>  0 0.24722198E+04</rscale>
<asrwt>0</asrwt>
<pdfrwt beam="1">  1        2 0.19652537E+00 0.24722198E+04</pdfrwt>
<pdfrwt beam="2">  1       -2 0.18402161E+00 0.24722198E+04</pdfrwt>
<totfact> 0.25922226E+00</totfact>
</mgrwt>
</event>
<event>
 4    1  0.2069825E-008  0.3150590E+04  0.7816531E-02  0.8201989E-01
          2   -1    0    0  501    0  0.00000000000E+00  0.00000000000E+00  0.25845039323E+04  0.25845039323E+04  0.00000000000E+00 0. -1.
         -2   -1    0    0    0  501 -0.00000000000E+00 -0.00000000000E+00 -0.96016678368E+03  0.96016678368E+03  0.00000000000E+00 0.  1.
    2000013    1    1    2    0    0 -0.10575959777E+04 -0.39221465504E+03  0.14352577781E+04  0.20578645430E+04  0.95000000000E+03 0.  0.
   -2000013    1    1    2    0    0  0.10575959777E+04  0.39221465504E+03  0.18907937046E+03  0.14868061730E+04  0.95000000000E+03 0.  0.
<mgrwt>
<rscale>  0 0.31505903E+04</rscale>
<asrwt>0</asrwt>
<pdfrwt beam="1">  1        2 0.39761599E+00 0.31505903E+04</pdfrwt>
<pdfrwt beam="2">  1       -2 0.14771797E+00 0.31505903E+04</pdfrwt>
<totfact> 0.81963611E-01</totfact>
</mgrwt>
</event>
<event>
 4    1  0.2069825E-008  0.2805692E+04  0.7816531E-02  0.8301504E-01
          1   -1    0    0  501    0  0.00000000000E+00  0.00000000000E+00  0.38128495336E+04  0.38128495336E+04  0.00000000000E+00 0.  1.
         -1   -1    0    0    0  501 -0.00000000000E+00 -0.00000000000E+00 -0.51614318748E+03  0.51614318748E+03  0.00000000000E+00 0. -1.
    2000013    1    1    2    0    0  0.55019832206E+03  0.73943140376E+02  0.29910507019E+04  0.31870158586E+04  0.95000000000E+03 0.  0.
   -2000013    1    1    2    0    0 -0.55019832206E+03 -0.73943140376E+02  0.30565564423E+03  0.11419768625E+04  0.95000000000E+03 0.  0.
<mgrwt>
<rscale>  0 0.28056916E+04</rscale>
<asrwt>0</asrwt>
<pdfrwt beam="1">  1        1 0.58659222E+00 0.28056916E+04</pdfrwt>
<pdfrwt beam="2">  1       -1 0.79406646E-01 0.28056916E+04</pdfrwt>
<totfact> 0.19066044E-01</totfact>
</mgrwt>
</event>
<event>
 4    1  0.2069825E-008  0.2862561E+04  0.7816531E-02  0.8284104E-01
         -2   -1    0    0    0  501 -0.00000000000E+00  0.00000000000E+00  0.68395469287E+03  0.68395469287E+03  0.00000000000E+00 0. -1.
          2   -1    0    0  501    0  0.00000000000E+00 -0.00000000000E+00 -0.29951756529E+04  0.29951756529E+04  0.00000000000E+00 0.  1.
    2000013    1    1    2    0    0 -0.76480206481E+03 -0.62599121104E+03 -0.62681265529E+03  0.15073756332E+04  0.95000000000E+03 0.  0.
   -2000013    1    1    2    0    0  0.76480206481E+03  0.62599121104E+03 -0.16844083047E+04  0.21717547126E+04  0.95000000000E+03 0.  0.
<mgrwt>
<rscale>  0 0.28625614E+04</rscale>
<asrwt>0</asrwt>
<pdfrwt beam="2">  1        2 0.46079626E+00 0.28625614E+04</pdfrwt>
<pdfrwt beam="1">  1       -2 0.10522380E+00 0.28625614E+04</pdfrwt>
<totfact> 0.11095330E+00</totfact>
</mgrwt>
</event>
<event>
 4    1  0.2069825E-008  0.5171812E+04  0.7816531E-02  0.7802537E-01
         -2   -1    0    0    0  501 -0.00000000000E+00  0.00000000000E+00  0.20489103405E+04  0.20489103405E+04  0.00000000000E+00 0. -1.
          2   -1    0    0  501    0  0.00000000000E+00 -0.00000000000E+00 -0.32636413957E+04  0.32636413957E+04  0.00000000000E+00 0.  1.
    2000013    1    1    2    0    0  0.23881000687E+04 -0.89427027756E+02 -0.88564256100E+03  0.27199047552E+04  0.95000000000E+03 0.  0.
   -2000013    1    1    2    0    0 -0.23881000687E+04  0.89427027756E+02 -0.32908849424E+03  0.25926469810E+04  0.95000000000E+03 0.  0.
<mgrwt>
<rscale>  0 0.51718115E+04</rscale>
<asrwt>0</asrwt>
<pdfrwt beam="2">  1        2 0.50209867E+00 0.51718115E+04</pdfrwt>
<pdfrwt beam="1">  1       -2 0.31521698E+00 0.51718115E+04</pdfrwt>
<totfact> 0.21650249E-02</totfact>
</mgrwt>
</event>
<event>
 4    1  0.2069825E-008  0.3141232E+04  0.7816531E-02  0.8204512E-01
          2   -1    0    0  501    0  0.00000000000E+00  0.00000000000E+00  0.11241855606E+04  0.11241855606E+04  0.00000000000E+00 0.  1.
         -2   -1    0    0    0  501 -0.00000000000E+00 -0.00000000000E+00 -0.21943310543E+04  0.21943310543E+04  0.00000000000E+00 0. -1.
    2000013    1    1    2    0    0 -0.28067574979E+03 -0.63478429660E+03 -0.16342785194E+04  0.20137269573E+04  0.95000000000E+03 0.  0.
   -2000013    1    1    2    0    0  0.28067574979E+03  0.63478429660E+03  0.56413302572E+03  0.13047896575E+04  0.95000000000E+03 0.  0.
<mgrwt>
<rscale>  0 0.31412324E+04</rscale>
<asrwt>0</asrwt>
<pdfrwt beam="1">  1        2 0.17295163E+00 0.31412324E+04</pdfrwt>
<pdfrwt beam="2">  1       -2 0.33758939E+00 0.31412324E+04</pdfrwt>
<totfact> 0.33152137E-01</totfact>
</mgrwt>
</event>
<event>
 4    1  0.2069825E-008  0.2492770E+04  0.7816531E-02  0.8405566E-01
          2   -1    0    0  501    0  0.00000000000E+00  0.00000000000E+00  0.20358936357E+04  0.20358936357E+04  0.00000000000E+00 0.  1.
         -2   -1    0    0    0  501 -0.00000000000E+00 -0.00000000000E+00 -0.76304365157E+03  0.76304365157E+03  0.00000000000E+00 0. -1.
    2000013    1    1    2    0    0 -0.16970152681E+03 -0.76655252743E+03  0.84520447363E+03  0.14944135933E+04  0.95000000000E+03 0.  0.
   -2000013    1    1    2    0    0  0.16970152681E+03  0.76655252743E+03  0.42764551048E+03  0.13045236940E+04  0.95000000000E+03 0.  0.
<mgrwt>
<rscale>  0 0.24927701E+04</rscale>
<asrwt>0</asrwt>
<pdfrwt beam="1">  1        2 0.31321440E+00 0.24927701E+04</pdfrwt>
<pdfrwt beam="2">  1       -2 0.11739133E+00 0.24927701E+04</pdfrwt>
<totfact> 0.31924384E+00</totfact>
</mgrwt>
</event>
<event>
 4    1  0.2069825E-008  0.2069005E+04  0.7816531E-02  0.8575021E-01
         -2   -1    0    0    0  501 -0.00000000000E+00  0.00000000000E+00  0.69415681667E+03  0.69415681667E+03  0.00000000000E+00 0. -1.
          2   -1    0    0  501    0  0.00000000000E+00 -0.00000000000E+00 -0.15417202216E+04  0.15417202216E+04  0.00000000000E+00 0.  1.
    2000013    1    1    2    0    0  0.25263308102E+03  0.11391804435E+03 -0.97978105422E+02  0.99443476588E+03  0.95000000000E+03 0.  0.
   -2000013    1    1    2    0    0 -0.25263308102E+03 -0.11391804435E+03 -0.74958529952E+03  0.12414422724E+04  0.95000000000E+03 0.  0.
<mgrwt>
<rscale>  0 0.20690052E+04</rscale>
<asrwt>0</asrwt>
<pdfrwt beam="2">  1        2 0.23718772E+00 0.20690052E+04</pdfrwt>
<pdfrwt beam="1">  1       -2 0.10679336E+00 0.20690052E+04</pdfrwt>
<totfact> 0.78408965E+00</totfact>
</mgrwt>
</event>
<event>
 4    1  0.2069825E-008  0.2253142E+04  0.7816531E-02  0.8496629E-01
         -2   -1    0    0    0  501 -0.00000000000E+00  0.00000000000E+00  0.75580243400E+03  0.75580243400E+03  0.00000000000E+00 0. -1.
          2   -1    0    0  501    0  0.00000000000E+00 -0.00000000000E+00 -0.16792253132E+04  0.16792253132E+04  0.00000000000E+00 0.  1.
    2000013    1    1    2    0    0  0.19080655859E+03 -0.43816647476E+03 -0.59853712188E+02  0.10651194624E+04  0.95000000000E+03 0.  0.
   -2000013    1    1    2    0    0 -0.19080655859E+03  0.43816647476E+03 -0.86356916699E+03  0.13699082847E+04  0.95000000000E+03 0.  0.
<mgrwt>
<rscale>  0 0.22531423E+04</rscale>
<asrwt>0</asrwt>
<pdfrwt beam="2">  1        2 0.25834235E+00 0.22531423E+04</pdfrwt>
<pdfrwt beam="1">  1       -2 0.11627730E+00 0.22531423E+04</pdfrwt>
<totfact> 0.52612447E+00</totfact>
</mgrwt>
</event>
<event>
 4    1  0.2069825E-008  0.2361249E+04  0.7816531E-02  0.8454156E-01
          2   -1    0    0  501    0  0.00000000000E+00  0.00000000000E+00  0.14804823886E+04  0.14804823886E+04  0.00000000000E+00 0.  1.
         -2   -1    0    0    0  501 -0.00000000000E+00 -0.00000000000E+00 -0.94149996401E+03  0.94149996401E+03  0.00000000000E+00 0. -1.
    2000013    1    1    2    0    0  0.19098322220E+03 -0.66948654192E+03  0.18561198298E+03  0.11923248841E+04  0.95000000000E+03 0.  0.
   -2000013    1    1    2    0    0 -0.19098322220E+03  0.66948654192E+03  0.35337044166E+03  0.12296574686E+04  0.95000000000E+03 0.  0.
<mgrwt>
<rscale>  0 0.23612489E+04</rscale>
<asrwt>0</asrwt>
<pdfrwt beam="1">  1        2 0.22776652E+00 0.23612489E+04</pdfrwt>
<pdfrwt beam="2">  1       -2 0.14484615E+00 0.23612489E+04</pdfrwt>
<totfact> 0.38602824E+00</totfact>
</mgrwt>
</event>
<event>
 4    1  0.2069825E-008  0.3844684E+04  0.7816531E-02  0.8036633E-01
         -2   -1    0    0    0  501 -0.00000000000E+00  0.00000000000E+00  0.11528357089E+04  0.11528357089E+04  0.00000000000E+00 0. -1.
          2   -1    0    0  501    0  0.00000000000E+00 -0.00000000000E+00 -0.32054860822E+04  0.32054860822E+04  0.00000000000E+00 0.  1.
    2000013    1    1    2    0    0 -0.11118064067E+04  0.12020084741E+04 -0.64701723226E+03  0.20005172223E+04  0.95000000000E+03 0.  0.
   -2000013    1    1    2    0    0  0.11118064067E+04 -0.12020084741E+04 -0.14056331410E+04  0.23578045688E+04  0.95000000000E+03 0.  0.
<mgrwt>
<rscale>  0 0.38446840E+04</rscale>
<asrwt>0</asrwt>
<pdfrwt beam="2">  1        2 0.49315171E+00 0.38446840E+04</pdfrwt>
<pdfrwt beam="1">  1       -2 0.17735934E+00 0.38446840E+04</pdfrwt>
<totfact> 0.19413639E-01</totfact>
</mgrwt>
</event>
<event>
 4    1  0.2069825E-008  0.2238967E+04  0.7816531E-02  0.8502382E-01
          2   -1    0    0  501    0  0.00000000000E+00  0.00000000000E+00  0.59843645394E+03  0.59843645394E+03  0.00000000000E+00 0.  1.
         -2   -1    0    0    0  501 -0.00000000000E+00 -0.00000000000E+00 -0.20941961443E+04  0.20941961443E+04  0.00000000000E+00 0. -1.
    2000013    1    1    2    0    0  0.81141065217E+02  0.55355125620E+03 -0.51424751792E+03  0.12165333433E+04  0.95000000000E+03 0.  0.
   -2000013    1    1    2    0    0 -0.81141065217E+02 -0.55355125620E+03 -0.98151217242E+03  0.14760992549E+04  0.95000000000E+03 0.  0.
<mgrwt>
<rscale>  0 0.22389670E+04</rscale>
<asrwt>0</asrwt>
<pdfrwt beam="1">  1        2 0.92067146E-01 0.22389670E+04</pdfrwt>
<pdfrwt beam="2">  1       -2 0.32218402E+00 0.22389670E+04</pdfrwt>
<totfact> 0.10530937E+00</totfact>
</mgrwt>
</event>
<event>
 4    1  0.2069825E-008  0.2283098E+04  0.7816531E-02  0.8484615E-01
         -2   -1    0    0    0  501 -0.00000000000E+00  0.00000000000E+00  0.85446178657E+03  0.85446178657E+03  0.00000000000E+00 0. -1.
          2   -1    0    0  501    0  0.00000000000E+00 -0.00000000000E+00 -0.15250934947E+04  0.15250934947E+04  0.00000000000E+00 0.  1.
    2000013    1    1    2    0    0 -0.39370335035E+03  0.27236292447E+03  0.96243238763E+02  0.10681510435E+04  0.95000000000E+03 0.  0.
   -2000013    1    1    2    0    0  0.39370335035E+03 -0.27236292447E+03 -0.76687494689E+03  0.13114042378E+04  0.95000000000E+03 0.  0.
<mgrwt>
<rscale>  0 0.22830980E+04</rscale>
<asrwt>0</asrwt>
<pdfrwt beam="2">  1        2 0.23462977E+00 0.22830980E+04</pdfrwt>
<pdfrwt beam="1">  1       -2 0.13145566E+00 0.22830980E+04</pdfrwt>
<totfact> 0.47102305E+00</totfact>
</mgrwt>
</event>
<event>
 4    1  0.2069825E-008  0.2754304E+04  0.7816531E-02  0.8317597E-01
         -2   -1    0    0    0  501 -0.00000000000E+00  0.00000000000E+00  0.94262007406E+03  0.94262007406E+03  0.00000000000E+00 0. -1.
          2   -1    0    0  501    0  0.00000000000E+00 -0.00000000000E+00 -0.20119951856E+04  0.20119951856E+04  0.00000000000E+00 0.  1.
    2000013    1    1    2    0    0  0.24782067704E+03  0.91180847087E+03 -0.87600568302E+03  0.16008421947E+04  0.95000000000E+03 0.  0.
   -2000013    1    1    2    0    0 -0.24782067704E+03 -0.91180847087E+03 -0.19336942847E+03  0.13537730650E+04  0.95000000000E+03 0.  0.
<mgrwt>
<rscale>  0 0.27543036E+04</rscale>
<asrwt>0</asrwt>
<pdfrwt beam="2">  1        2 0.30953772E+00 0.27543036E+04</pdfrwt>
<pdfrwt beam="1">  1       -2 0.14501847E+00 0.27543036E+04</pdfrwt>
<totfact> 0.18824496E+00</totfact>
</mgrwt>
</event>
<event>
 4    1  0.2069825E-008  0.2139564E+04  0.7816531E-02  0.8544013E-01
          2   -1    0    0  501    0  0.00000000000E+00  0.00000000000E+00  0.10029875346E+04  0.10029875346E+04  0.00000000000E+00 0.  1.
         -2   -1    0    0    0  501 -0.00000000000E+00 -0.00000000000E+00 -0.11410242491E+04  0.11410242491E+04  0.00000000000E+00 0. -1.
    2000013    1    1    2    0    0 -0.75411688891E+02 -0.39671735025E+03 -0.35042512543E+03  0.10901235468E+04  0.95000000000E+03 0.  0.
   -2000013    1    1    2    0    0  0.75411688891E+02  0.39671735025E+03  0.21238841090E+03  0.10538882369E+04  0.95000000000E+03 0.  0.
<mgrwt>
<rscale>  0 0.21395636E+04</rscale>
<asrwt>0</asrwt>
<pdfrwt beam="1">  1        2 0.15430577E+00 0.21395636E+04</pdfrwt>
<pdfrwt beam="2">  1       -2 0.17554219E+00 0.21395636E+04</pdfrwt>
<totfact> 0.44855974E+00</totfact>
</mgrwt>
</event>
<event>
 4    1  0.2069825E-008  0.3236242E+04  0.7816531E-02  0.8179311E-01
          2   -1    0    0  501    0  0.00000000000E+00  0.00000000000E+00  0.17764028876E+04  0.17764028876E+04  0.00000000000E+00 0.  1.
         -2   -1    0    0    0  501 -0.00000000000E+00 -0.00000000000E+00 -0.14739427285E+04  0.14739427285E+04  0.00000000000E+00 0. -1.
    2000013    1    1    2    0    0  0.86233071999E+03  0.71762859888E+03 -0.52789045591E+03  0.15619774038E+04  0.95000000000E+03 0.  0.
   -2000013    1    1    2    0    0 -0.86233071999E+03 -0.71762859888E+03  0.83035061504E+03  0.16883682123E+04  0.95000000000E+03 0.  0.
<mgrwt>
<rscale>  0 0.32362423E+04</rscale>
<asrwt>0</asrwt>
<pdfrwt beam="1">  1        2 0.27329275E+00 0.32362423E+04</pdfrwt>
<pdfrwt beam="2">  1       -2 0.22676042E+00 0.32362423E+04</pdfrwt>
<totfact> 0.66896790E-01</totfact>
</mgrwt>
</event>
<event>
 4    1  0.2069825E-008  0.2306278E+04  0.7816531E-02  0.8475450E-01
         -2   -1    0    0    0  501 -0.00000000000E+00  0.00000000000E+00  0.12447506705E+04  0.12447506705E+04  0.00000000000E+00 0. -1.
          2   -1    0    0  501    0  0.00000000000E+00 -0.00000000000E+00 -0.10682694723E+04  0.10682694723E+04  0.00000000000E+00 0.  1.
    2000013    1    1    2    0    0  0.21692015044E+03 -0.57741922563E+03 -0.12863643553E+03  0.11399625636E+04  0.95000000000E+03 0.  0.
   -2000013    1    1    2    0    0 -0.21692015044E+03  0.57741922563E+03  0.30511763378E+03  0.11730575793E+04  0.95000000000E+03 0.  0.
<mgrwt>
<rscale>  0 0.23062776E+04</rscale>
<asrwt>0</asrwt>
<pdfrwt beam="2">  1        2 0.16434915E+00 0.23062776E+04</pdfrwt>
<pdfrwt beam="1">  1       -2 0.19150010E+00 0.23062776E+04</pdfrwt>
<totfact> 0.31283865E+00</totfact>
</mgrwt>
</event>
<event>
 4    1  0.2069825E-008  0.2067125E+04  0.7816531E-02  0.8575865E-01
         -1   -1    0    0    0  501 -0.00000000000E+00  0.00000000000E+00  0.42186227833E+03  0.42186227833E+03  0.00000000000E+00 0. -1.
          1   -1    0    0  501    0  0.00000000000E+00 -0.00000000000E+00 -0.25322289501E+04  0.25322289501E+04  0.00000000000E+00 0.  1.
    2000013    1    1    2    0    0  0.40362647891E+03 -0.26376135054E+02 -0.98904542042E+03  0.14297974957E+04  0.95000000000E+03 0.  0.
   -2000013    1    1    2    0    0 -0.40362647891E+03  0.26376135054E+02 -0.11213212513E+04  0.15242937327E+04  0.95000000000E+03 0.  0.
<mgrwt>
<rscale>  0 0.20671254E+04</rscale>
<asrwt>0</asrwt>
<pdfrwt beam="2">  1        1 0.38957368E+00 0.20671254E+04</pdfrwt>
<pdfrwt beam="1">  1       -1 0.64901890E-01 0.20671254E+04</pdfrwt>
<totfact> 0.28573426E+00</totfact>
</mgrwt>
</event>
<event>
 4    1  0.2069825E-008  0.2392280E+04  0.7816531E-02  0.8442400E-01
         -1   -1    0    0    0  501 -0.00000000000E+00  0.00000000000E+00  0.11017258875E+04  0.11017258875E+04  0.00000000000E+00 0. -1.
          1   -1    0    0  501    0  0.00000000000E+00 -0.00000000000E+00 -0.12986446632E+04  0.12986446632E+04  0.00000000000E+00 0.  1.
    2000013    1    1    2    0    0 -0.47733762064E+03  0.42051008054E+03  0.25425548509E+03  0.11712496675E+04  0.95000000000E+03 0.  0.
   -2000013    1    1    2    0    0  0.47733762064E+03 -0.42051008054E+03 -0.45117426081E+03  0.12291208832E+04  0.95000000000E+03 0.  0.
<mgrwt>
<rscale>  0 0.23922796E+04</rscale>
<asrwt>0</asrwt>
<pdfrwt beam="2">  1        1 0.19979149E+00 0.23922796E+04</pdfrwt>
<pdfrwt beam="1">  1       -1 0.16949629E+00 0.23922796E+04</pdfrwt>
<totfact> 0.20176718E+00</totfact>
</mgrwt>
</event>
<event>
 4    1  0.2069825E-008  0.2550454E+04  0.7816531E-02  0.8385228E-01
         -2   -1    0    0    0  501 -0.00000000000E+00  0.00000000000E+00  0.54750210374E+03  0.54750210374E+03  0.00000000000E+00 0. -1.
          2   -1    0    0  501    0  0.00000000000E+00 -0.00000000000E+00 -0.29702240911E+04  0.29702240911E+04  0.00000000000E+00 0.  1.
    2000013    1    1    2    0    0 -0.64923494426E+03 -0.51487390298E+03 -0.14770342351E+04  0.19418370891E+04  0.95000000000E+03 0.  0.
   -2000013    1    1    2    0    0  0.64923494426E+03  0.51487390298E+03 -0.94568775217E+03  0.15758891057E+04  0.95000000000E+03 0.  0.
<mgrwt>
<rscale>  0 0.25504540E+04</rscale>
<asrwt>0</asrwt>
<pdfrwt beam="2">  1        2 0.45695755E+00 0.25504540E+04</pdfrwt>
<pdfrwt beam="1">  1       -2 0.84231093E-01 0.25504540E+04</pdfrwt>
<totfact> 0.19856810E+00</totfact>
</mgrwt>
</event>
<event>
 4    1  0.2069825E-008  0.3833812E+04  0.7816531E-02  0.8038938E-01
         -1   -1    0    0    0  501 -0.00000000000E+00  0.00000000000E+00  0.21589362747E+04  0.21589362747E+04  0.00000000000E+00 0. -1.
          1   -1    0    0  501    0  0.00000000000E+00 -0.00000000000E+00 -0.17020086598E+04  0.17020086598E+04  0.00000000000E+00 0.  1.
    2000013    1    1    2    0    0 -0.15101071206E+04 -0.67362654500E+03  0.42434487163E+03  0.19536542191E+04  0.95000000000E+03 0.  0.
   -2000013    1    1    2    0    0  0.15101071206E+04  0.67362654500E+03  0.32582743283E+02  0.19072907154E+04  0.95000000000E+03 0.  0.
<mgrwt>
<rscale>  0 0.38338118E+04</rscale>
<asrwt>0</asrwt>
<pdfrwt beam="2">  1        1 0.26184749E+00 0.38338118E+04</pdfrwt>
<pdfrwt beam="1">  1       -1 0.33214404E+00 0.38338118E+04</pdfrwt>
<totfact> 0.76804137E-02</totfact>
</mgrwt>
</event>
<event>
 4    1  0.2069825E-008  0.2210564E+04  0.7816531E-02  0.8514044E-01
         -2   -1    0    0    0  501 -0.00000000000E+00  0.00000000000E+00  0.72959539653E+03  0.72959539653E+03  0.00000000000E+00 0. -1.
          2   -1    0    0  501    0  0.00000000000E+00 -0.00000000000E+00 -0.16744184373E+04  0.16744184373E+04  0.00000000000E+00 0.  1.
    2000013    1    1    2    0    0 -0.47364064059E+03 -0.15453746251E+03 -0.18277651585E+03  0.10881748658E+04  0.95000000000E+03 0.  0.
   -2000013    1    1    2    0    0  0.47364064059E+03  0.15453746251E+03 -0.76204652492E+03  0.13158389681E+04  0.95000000000E+03 0.  0.
<mgrwt>
<rscale>  0 0.22105637E+04</rscale>
<asrwt>0</asrwt>
<pdfrwt beam="2">  1        2 0.25760284E+00 0.22105637E+04</pdfrwt>
<pdfrwt beam="1">  1       -2 0.11224545E+00 0.22105637E+04</pdfrwt>
<totfact> 0.57900122E+00</totfact>
</mgrwt>
</event>
<event>
 4    1  0.2069825E-008  0.3158380E+04  0.7816531E-02  0.8199896E-01
         -2   -1    0    0    0  501 -0.00000000000E+00  0.00000000000E+00  0.11701025420E+04  0.11701025420E+04  0.00000000000E+00 0. -1.
          2   -1    0    0  501    0  0.00000000000E+00 -0.00000000000E+00 -0.21313015406E+04  0.21313015406E+04  0.00000000000E+00 0.  1.
    2000013    1    1    2    0    0 -0.11982106337E+04  0.23315875732E+03 -0.81323903901E+03  0.17475495596E+04  0.95000000000E+03 0.  0.
   -2000013    1    1    2    0    0  0.11982106337E+04 -0.23315875732E+03 -0.14795995950E+03  0.15538545229E+04  0.95000000000E+03 0.  0.
<mgrwt>
<rscale>  0 0.31583802E+04</rscale>
<asrwt>0</asrwt>
<pdfrwt beam="2">  1        2 0.32789254E+00 0.31583802E+04</pdfrwt>
<pdfrwt beam="1">  1       -2 0.18001578E+00 0.31583802E+04</pdfrwt>
<totfact> 0.86447364E-01</totfact>
</mgrwt>
</event>
<event>
 4    1  0.2069825E-008  0.2391840E+04  0.7816531E-02  0.8442565E-01
          2   -1    0    0  501    0  0.00000000000E+00  0.00000000000E+00  0.22101122906E+04  0.22101122906E+04  0.00000000000E+00 0. -1.
         -2   -1    0    0    0  501 -0.00000000000E+00 -0.00000000000E+00 -0.64712779145E+03  0.64712779145E+03  0.00000000000E+00 0.  1.
    2000013    1    1    2    0    0  0.68432332030E+03 -0.52435906387E+02  0.49709947278E+03  0.12730498092E+04  0.95000000000E+03 0.  0.
   -2000013    1    1    2    0    0 -0.68432332030E+03  0.52435906387E+02  0.10658850263E+04  0.15841902728E+04  0.95000000000E+03 0.  0.
<mgrwt>
<rscale>  0 0.23918404E+04</rscale>
<asrwt>0</asrwt>
<pdfrwt beam="1">  1        2 0.34001727E+00 0.23918404E+04</pdfrwt>
<pdfrwt beam="2">  1       -2 0.99558123E-01 0.23918404E+04</pdfrwt>
<totfact> 0.38275728E+00</totfact>
</mgrwt>
</event>
<event>
 4    1  0.2069825E-008  0.2672016E+04  0.7816531E-02  0.8344142E-01
         -2   -1    0    0    0  501 -0.00000000000E+00  0.00000000000E+00  0.74414786750E+03  0.74414786750E+03  0.00000000000E+00 0. -1.
          2   -1    0    0  501    0  0.00000000000E+00 -0.00000000000E+00 -0.23986053441E+04  0.23986053441E+04  0.00000000000E+00 0.  1.
    2000013    1    1    2    0    0  0.83850557357E+03  0.39474540355E+03 -0.64691897174E+03  0.14764551082E+04  0.95000000000E+03 0.  0.
   -2000013    1    1    2    0    0 -0.83850557357E+03 -0.39474540355E+03 -0.10075385048E+04  0.16662981033E+04  0.95000000000E+03 0.  0.
<mgrwt>
<rscale>  0 0.26720158E+04</rscale>
<asrwt>0</asrwt>
<pdfrwt beam="2">  1        2 0.36901621E+00 0.26720158E+04</pdfrwt>
<pdfrwt beam="1">  1       -2 0.11448429E+00 0.26720158E+04</pdfrwt>
<totfact> 0.20874324E+00</totfact>
</mgrwt>
</event>
<event>
 4    1  0.2069825E-008  0.2890133E+04  0.7816531E-02  0.8275819E-01
          2   -1    0    0  501    0  0.00000000000E+00  0.00000000000E+00  0.40334612741E+04  0.40334612741E+04  0.00000000000E+00 0. -1.
         -2   -1    0    0    0  501 -0.00000000000E+00 -0.00000000000E+00 -0.51772324061E+03  0.51772324061E+03  0.00000000000E+00 0.  1.
    2000013    1    1    2    0    0 -0.96135889066E+03 -0.36397807907E+03  0.11922229721E+04  0.18386371513E+04  0.95000000000E+03 0.  0.
   -2000013    1    1    2    0    0  0.96135889066E+03  0.36397807907E+03  0.23235150614E+04  0.27125473635E+04  0.95000000000E+03 0.  0.
<mgrwt>
<rscale>  0 0.28901326E+04</rscale>
<asrwt>0</asrwt>
<pdfrwt beam="1">  1        2 0.62053248E+00 0.28901326E+04</pdfrwt>
<pdfrwt beam="2">  1       -2 0.79649732E-01 0.28901326E+04</pdfrwt>
<totfact> 0.38748777E-01</totfact>
</mgrwt>
</event>
<event>
 4    1  0.2069825E-008  0.2012361E+04  0.7816531E-02  0.8600863E-01
          1   -1    0    0  501    0  0.00000000000E+00  0.00000000000E+00  0.44497808189E+03  0.44497808189E+03  0.00000000000E+00 0. -1.
         -1   -1    0    0    0  501 -0.00000000000E+00 -0.00000000000E+00 -0.22751665702E+04  0.22751665702E+04  0.00000000000E+00 0.  1.
    2000013    1    1    2    0    0 -0.22936350464E+03 -0.19977773955E+03 -0.10932981227E+04  0.14799728199E+04  0.95000000000E+03 0.  0.
   -2000013    1    1    2    0    0  0.22936350464E+03  0.19977773955E+03 -0.73689036557E+03  0.12401718322E+04  0.95000000000E+03 0.  0.
<mgrwt>
<rscale>  0 0.20123611E+04</rscale>
<asrwt>0</asrwt>
<pdfrwt beam="1">  1        1 0.68458165E-01 0.20123611E+04</pdfrwt>
<pdfrwt beam="2">  1       -1 0.35002563E+00 0.20123611E+04</pdfrwt>
<totfact> 0.74939392E-01</totfact>
</mgrwt>
</event>
<event>
 4    1  0.2069825E-008  0.3346070E+04  0.7816531E-02  0.8151271E-01
          2   -1    0    0  501    0  0.00000000000E+00  0.00000000000E+00  0.27844195746E+04  0.27844195746E+04  0.00000000000E+00 0.  1.
         -2   -1    0    0    0  501 -0.00000000000E+00 -0.00000000000E+00 -0.10052528603E+04  0.10052528603E+04  0.00000000000E+00 0. -1.
    2000013    1    1    2    0    0 -0.57353494022E+03 -0.35539934636E+03  0.22492832925E+04  0.25331850215E+04  0.95000000000E+03 0.  0.
   -2000013    1    1    2    0    0  0.57353494022E+03  0.35539934636E+03 -0.47011657823E+03  0.12564874135E+04  0.95000000000E+03 0.  0.
<mgrwt>
<rscale>  0 0.33460698E+04</rscale>
<asrwt>0</asrwt>
<pdfrwt beam="1">  1        2 0.42837224E+00 0.33460698E+04</pdfrwt>
<pdfrwt beam="2">  1       -2 0.15465429E+00 0.33460698E+04</pdfrwt>
<totfact> 0.54280419E-01</totfact>
</mgrwt>
</event>
<event>
 4    1  0.2069825E-008  0.2528563E+04  0.7816531E-02  0.8392880E-01
         -2   -1    0    0    0  501 -0.00000000000E+00  0.00000000000E+00  0.53698153349E+03  0.53698153349E+03  0.00000000000E+00 0. -1.
          2   -1    0    0  501    0  0.00000000000E+00 -0.00000000000E+00 -0.29766522689E+04  0.29766522689E+04  0.00000000000E+00 0.  1.
    2000013    1    1    2    0    0  0.81832160535E+03 -0.12629594434E+03 -0.13609057842E+04  0.18547683059E+04  0.95000000000E+03 0.  0.
   -2000013    1    1    2    0    0 -0.81832160535E+03  0.12629594434E+03 -0.10787649513E+04  0.16588654965E+04  0.95000000000E+03 0.  0.
<mgrwt>
<rscale>  0 0.25285627E+04</rscale>
<asrwt>0</asrwt>
<pdfrwt beam="2">  1        2 0.45794651E+00 0.25285627E+04</pdfrwt>
<pdfrwt beam="1">  1       -2 0.82612543E-01 0.25285627E+04</pdfrwt>
<totfact> 0.20598614E+00</totfact>
</mgrwt>
</event>
<event>
 4    1  0.2069825E-008  0.3181892E+04  0.7816531E-02  0.8193616E-01
         -2   -1    0    0    0  501 -0.00000000000E+00  0.00000000000E+00  0.10027112647E+04  0.10027112647E+04  0.00000000000E+00 0.  1.
          2   -1    0    0  501    0  0.00000000000E+00 -0.00000000000E+00 -0.25242652534E+04  0.25242652534E+04  0.00000000000E+00 0. -1.
    2000013    1    1    2    0    0 -0.82074529543E+03 -0.61480039248E+03 -0.16027683106E+04  0.21267272087E+04  0.95000000000E+03 0.  0.
   -2000013    1    1    2    0    0  0.82074529543E+03  0.61480039248E+03  0.81214321886E+02  0.14002493095E+04  0.95000000000E+03 0.  0.
<mgrwt>
<rscale>  0 0.31818920E+04</rscale>
<asrwt>0</asrwt>
<pdfrwt beam="2">  1        2 0.38834850E+00 0.31818920E+04</pdfrwt>
<pdfrwt beam="1">  1       -2 0.15426327E+00 0.31818920E+04</pdfrwt>
<totfact> 0.79003234E-01</totfact>
</mgrwt>
</event>
<event>
 4    1  0.2069825E-008  0.2433359E+04  0.7816531E-02  0.8427119E-01
         -2   -1    0    0    0  501 -0.00000000000E+00  0.00000000000E+00  0.92214623888E+03  0.92214623888E+03  0.00000000000E+00 0.  1.
          2   -1    0    0  501    0  0.00000000000E+00 -0.00000000000E+00 -0.16052861917E+04  0.16052861917E+04  0.00000000000E+00 0. -1.
    2000013    1    1    2    0    0  0.51030396396E+03 -0.39245158815E+03  0.78259751525E+02  0.11502403981E+04  0.95000000000E+03 0.  0.
   -2000013    1    1    2    0    0 -0.51030396396E+03  0.39245158815E+03 -0.76139970439E+03  0.13771920325E+04  0.95000000000E+03 0.  0.
<mgrwt>
<rscale>  0 0.24333587E+04</rscale>
<asrwt>0</asrwt>
<pdfrwt beam="2">  1        2 0.24696710E+00 0.24333587E+04</pdfrwt>
<pdfrwt beam="1">  1       -2 0.14186865E+00 0.24333587E+04</pdfrwt>
<totfact> 0.34468885E+00</totfact>
</mgrwt>
</event>
<event>
 4    1  0.2069825E-008  0.2913418E+04  0.7816531E-02  0.8268896E-01
         -2   -1    0    0    0  501 -0.00000000000E+00  0.00000000000E+00  0.65685438178E+03  0.65685438178E+03  0.00000000000E+00 0. -1.
          2   -1    0    0  501    0  0.00000000000E+00 -0.00000000000E+00 -0.32305505950E+04  0.32305505950E+04  0.00000000000E+00 0.  1.
    2000013    1    1    2    0    0  0.10656598884E+04  0.27757073884E+03 -0.13970786541E+04  0.20166817495E+04  0.95000000000E+03 0.  0.
   -2000013    1    1    2    0    0 -0.10656598884E+04 -0.27757073884E+03 -0.11766175591E+04  0.18707232273E+04  0.95000000000E+03 0.  0.
<mgrwt>
<rscale>  0 0.29134181E+04</rscale>
<asrwt>0</asrwt>
<pdfrwt beam="2">  1        2 0.49700777E+00 0.29134181E+04</pdfrwt>
<pdfrwt beam="1">  1       -2 0.10105452E+00 0.29134181E+04</pdfrwt>
<totfact> 0.85960116E-01</totfact>
</mgrwt>
</event>
<event>
 4    1  0.2069825E-008  0.3936823E+04  0.7816531E-02  0.8017414E-01
          2   -1    0    0  501    0  0.00000000000E+00  0.00000000000E+00  0.14289622606E+04  0.14289622606E+04  0.00000000000E+00 0.  1.
         -2   -1    0    0    0  501 -0.00000000000E+00 -0.00000000000E+00 -0.27115085706E+04  0.27115085706E+04  0.00000000000E+00 0. -1.
    2000013    1    1    2    0    0  0.73614781297E+03  0.54900843861E+02 -0.22798169393E+04  0.25777883897E+04  0.95000000000E+03 0.  0.
   -2000013    1    1    2    0    0 -0.73614781297E+03 -0.54900843861E+02  0.99727062930E+03  0.15626824416E+04  0.95000000000E+03 0.  0.
<mgrwt>
<rscale>  0 0.39368228E+04</rscale>
<asrwt>0</asrwt>
<pdfrwt beam="1">  1        2 0.21984035E+00 0.39368228E+04</pdfrwt>
<pdfrwt beam="2">  1       -2 0.41715516E+00 0.39368228E+04</pdfrwt>
<totfact> 0.63201280E-02</totfact>
</mgrwt>
</event>
<event>
 4    1  0.2069825E-008  0.1994888E+04  0.7816531E-02  0.8609014E-01
         -2   -1    0    0    0  501 -0.00000000000E+00  0.00000000000E+00  0.82561245467E+03  0.82561245467E+03  0.00000000000E+00 0. -1.
          2   -1    0    0  501    0  0.00000000000E+00 -0.00000000000E+00 -0.12050386717E+04  0.12050386717E+04  0.00000000000E+00 0.  1.
    2000013    1    1    2    0    0 -0.20775837789E+03 -0.18972910553E+03 -0.30681570351E+03  0.10372061285E+04  0.95000000000E+03 0.  0.
   -2000013    1    1    2    0    0  0.20775837789E+03  0.18972910553E+03 -0.72610513491E+02  0.99344499784E+03  0.95000000000E+03 0.  0.
<mgrwt>
<rscale>  0 0.19948884E+04</rscale>
<asrwt>0</asrwt>
<pdfrwt beam="2">  1        2 0.18539057E+00 0.19948884E+04</pdfrwt>
<pdfrwt beam="1">  1       -2 0.12701730E+00 0.19948884E+04</pdfrwt>
<totfact> 0.80527935E+00</totfact>
</mgrwt>
</event>
<event>
 4    1  0.2069825E-008  0.3359518E+04  0.7816531E-02  0.8147914E-01
         -2   -1    0    0    0  501 -0.00000000000E+00  0.00000000000E+00  0.15801403349E+04  0.15801403349E+04  0.00000000000E+00 0. -1.
          2   -1    0    0  501    0  0.00000000000E+00 -0.00000000000E+00 -0.17856583746E+04  0.17856583746E+04  0.00000000000E+00 0.  1.
    2000013    1    1    2    0    0  0.15907182316E+03 -0.13032443845E+04 -0.54555930054E+03  0.17099370518E+04  0.95000000000E+03 0.  0.
   -2000013    1    1    2    0    0 -0.15907182316E+03  0.13032443845E+04  0.34004126076E+03  0.16558616577E+04  0.95000000000E+03 0.  0.
<mgrwt>
<rscale>  0 0.33595183E+04</rscale>
<asrwt>0</asrwt>
<pdfrwt beam="2">  1        2 0.27471667E+00 0.33595183E+04</pdfrwt>
<pdfrwt beam="1">  1       -2 0.24309851E+00 0.33595183E+04</pdfrwt>
<totfact> 0.51776661E-01</totfact>
</mgrwt>
</event>
<event>
 4    1  0.2069825E-008  0.2193398E+04  0.7816531E-02  0.8521181E-01
         -2   -1    0    0    0  501 -0.00000000000E+00  0.00000000000E+00  0.10659179174E+04  0.10659179174E+04  0.00000000000E+00 0. -1.
          2   -1    0    0  501    0  0.00000000000E+00 -0.00000000000E+00 -0.11283694672E+04  0.11283694672E+04  0.00000000000E+00 0.  1.
    2000013    1    1    2    0    0  0.37896574503E+03 -0.39182654471E+03 -0.86981256128E+02  0.10987305475E+04  0.95000000000E+03 0.  0.
   -2000013    1    1    2    0    0 -0.37896574503E+03  0.39182654471E+03  0.24529706353E+02  0.10955568372E+04  0.95000000000E+03 0.  0.
<mgrwt>
<rscale>  0 0.21933985E+04</rscale>
<asrwt>0</asrwt>
<pdfrwt beam="2">  1        2 0.17359530E+00 0.21933985E+04</pdfrwt>
<pdfrwt beam="1">  1       -2 0.16398737E+00 0.21933985E+04</pdfrwt>
<totfact> 0.45068689E+00</totfact>
</mgrwt>
</event>
<event>
 4    1  0.2069825E-008  0.2320390E+04  0.7816531E-02  0.8469925E-01
         -2   -1    0    0    0  501 -0.00000000000E+00  0.00000000000E+00  0.21731053440E+04  0.21731053440E+04  0.00000000000E+00 0. -1.
          2   -1    0    0  501    0  0.00000000000E+00 -0.00000000000E+00 -0.61941439402E+03  0.61941439402E+03  0.00000000000E+00 0.  1.
    2000013    1    1    2    0    0 -0.63285049092E+03 -0.20742759132E+03  0.77061755810E+03  0.13927948055E+04  0.95000000000E+03 0.  0.
   -2000013    1    1    2    0    0  0.63285049092E+03  0.20742759132E+03  0.78307339185E+03  0.13997249325E+04  0.95000000000E+03 0.  0.
<mgrwt>
<rscale>  0 0.23203903E+04</rscale>
<asrwt>0</asrwt>
<pdfrwt beam="2">  1        2 0.95294523E-01 0.23203903E+04</pdfrwt>
<pdfrwt beam="1">  1       -2 0.33432390E+00 0.23203903E+04</pdfrwt>
<totfact> 0.84323221E-01</totfact>
</mgrwt>
</event>
<event>
 4    1  0.2069825E-008  0.2599356E+04  0.7816531E-02  0.8368420E-01
         -2   -1    0    0    0  501 -0.00000000000E+00  0.00000000000E+00  0.84536436955E+03  0.84536436955E+03  0.00000000000E+00 0. -1.
          2   -1    0    0  501    0  0.00000000000E+00 -0.00000000000E+00 -0.19981469712E+04  0.19981469712E+04  0.00000000000E+00 0.  1.
    2000013    1    1    2    0    0  0.49759217138E+02  0.80360002029E+03 -0.16940652049E+03  0.12567607336E+04  0.95000000000E+03 0.  0.
   -2000013    1    1    2    0    0 -0.49759217138E+02 -0.80360002029E+03 -0.98337608116E+03  0.15867506072E+04  0.95000000000E+03 0.  0.
<mgrwt>
<rscale>  0 0.25993555E+04</rscale>
<asrwt>0</asrwt>
<pdfrwt beam="2">  1        2 0.30740722E+00 0.25993555E+04</pdfrwt>
<pdfrwt beam="1">  1       -2 0.13005606E+00 0.25993555E+04</pdfrwt>
<totfact> 0.25702067E+00</totfact>
</mgrwt>
</event>
<event>
 4    1  0.2069825E-008  0.2756971E+04  0.7816531E-02  0.8316753E-01
          1   -1    0    0  501    0  0.00000000000E+00  0.00000000000E+00  0.54546160817E+04  0.54546160817E+04  0.00000000000E+00 0.  1.
         -1   -1    0    0    0  501 -0.00000000000E+00 -0.00000000000E+00 -0.34836960284E+03  0.34836960284E+03  0.00000000000E+00 0. -1.
    2000013    1    1    2    0    0  0.24513805286E+03  0.54281210830E+03  0.86532848899E+03  0.14163442533E+04  0.95000000000E+03 0.  0.
   -2000013    1    1    2    0    0 -0.24513805286E+03 -0.54281210830E+03  0.42409179899E+04  0.43866414313E+04  0.95000000000E+03 0.  0.
<mgrwt>
<rscale>  0 0.27569711E+04</rscale>
<asrwt>0</asrwt>
<pdfrwt beam="1">  1        1 0.83917164E+00 0.27569711E+04</pdfrwt>
<pdfrwt beam="2">  1       -1 0.53595327E-01 0.27569711E+04</pdfrwt>
<totfact> 0.56097547E-03</totfact>
</mgrwt>
</event>
<event>
 4    1  0.2069825E-008  0.3802834E+04  0.7816531E-02  0.8045547E-01
          2   -1    0    0  501    0  0.00000000000E+00  0.00000000000E+00  0.22273640291E+04  0.22273640291E+04  0.00000000000E+00 0. -1.
         -2   -1    0    0    0  501 -0.00000000000E+00 -0.00000000000E+00 -0.16231678626E+04  0.16231678626E+04  0.00000000000E+00 0.  1.
    2000013    1    1    2    0    0  0.38499346960E+02  0.14955274371E+04 -0.39560286377E+03  0.18157880219E+04  0.95000000000E+03 0.  0.
   -2000013    1    1    2    0    0 -0.38499346960E+02 -0.14955274371E+04  0.99979903023E+03  0.20347438698E+04  0.95000000000E+03 0.  0.
<mgrwt>
<rscale>  0 0.38028335E+04</rscale>
<asrwt>0</asrwt>
<pdfrwt beam="1">  1        2 0.34267139E+00 0.38028335E+04</pdfrwt>
<pdfrwt beam="2">  1       -2 0.24971813E+00 0.38028335E+04</pdfrwt>
<totfact> 0.25777349E-01</totfact>
</mgrwt>
</event>
<event>
 4    1  0.2069825E-008  0.2639460E+04  0.7816531E-02  0.8354920E-01
          2   -1    0    0  501    0  0.00000000000E+00  0.00000000000E+00  0.79860852999E+03  0.79860852999E+03  0.00000000000E+00 0.  1.
         -2   -1    0    0    0  501 -0.00000000000E+00 -0.00000000000E+00 -0.21809025040E+04  0.21809025040E+04  0.00000000000E+00 0. -1.
    2000013    1    1    2    0    0 -0.75145300776E+03 -0.20801140649E+03 -0.12339703658E+04  0.17415892833E+04  0.95000000000E+03 0.  0.
   -2000013    1    1    2    0    0  0.75145300776E+03  0.20801140649E+03 -0.14832360825E+03  0.12379217507E+04  0.95000000000E+03 0.  0.
<mgrwt>
<rscale>  0 0.26394601E+04</rscale>
<asrwt>0</asrwt>
<pdfrwt beam="1">  1        2 0.12286285E+00 0.26394601E+04</pdfrwt>
<pdfrwt beam="2">  1       -2 0.33552346E+00 0.26394601E+04</pdfrwt>
<totfact> 0.58389196E-01</totfact>
</mgrwt>
</event>
<event>
 4    1  0.2069825E-008  0.2989070E+04  0.7816531E-02  0.8246859E-01
          2   -1    0    0  501    0  0.00000000000E+00  0.00000000000E+00  0.19471492173E+04  0.19471492173E+04  0.00000000000E+00 0.  1.
         -2   -1    0    0    0  501 -0.00000000000E+00 -0.00000000000E+00 -0.11471311637E+04  0.11471311637E+04  0.00000000000E+00 0. -1.
    2000013    1    1    2    0    0 -0.10185530316E+04  0.41009343010E+03  0.76675076354E+03  0.16419603019E+04  0.95000000000E+03 0.  0.
   -2000013    1    1    2    0    0  0.10185530316E+04 -0.41009343010E+03  0.33267290053E+02  0.14523200791E+04  0.95000000000E+03 0.  0.
<mgrwt>
<rscale>  0 0.29890705E+04</rscale>
<asrwt>0</asrwt>
<pdfrwt beam="1">  1        2 0.29956142E+00 0.29890705E+04</pdfrwt>
<pdfrwt beam="2">  1       -2 0.17648172E+00 0.29890705E+04</pdfrwt>
<totfact> 0.11751517E+00</totfact>
</mgrwt>
</event>
<event>
 4    1  0.2069825E-008  0.3300304E+04  0.7816531E-02  0.8162818E-01
         -1   -1    0    0    0  501 -0.00000000000E+00  0.00000000000E+00  0.20221407379E+04  0.20221407379E+04  0.00000000000E+00 0. -1.
          1   -1    0    0  501    0  0.00000000000E+00 -0.00000000000E+00 -0.13465937822E+04  0.13465937822E+04  0.00000000000E+00 0.  1.
    2000013    1    1    2    0    0 -0.11956027482E+04  0.32977401846E+03 -0.20454816731E+03  0.15756131465E+04  0.95000000000E+03 0.  0.
   -2000013    1    1    2    0    0  0.11956027482E+04 -0.32977401846E+03  0.88009512304E+03  0.17931213735E+04  0.95000000000E+03 0.  0.
<mgrwt>
<rscale>  0 0.33003043E+04</rscale>
<asrwt>0</asrwt>
<pdfrwt beam="2">  1        1 0.20716828E+00 0.33003043E+04</pdfrwt>
<pdfrwt beam="1">  1       -1 0.31109857E+00 0.33003043E+04</pdfrwt>
<totfact> 0.19442497E-01</totfact>
</mgrwt>
</event>
<event>
 4    1  0.2069825E-008  0.2646194E+04  0.7816531E-02  0.8352677E-01
         -2   -1    0    0    0  501 -0.00000000000E+00  0.00000000000E+00  0.61149214070E+03  0.61149214070E+03  0.00000000000E+00 0. -1.
          2   -1    0    0  501    0  0.00000000000E+00 -0.00000000000E+00 -0.28628096178E+04  0.28628096178E+04  0.00000000000E+00 0.  1.
    2000013    1    1    2    0    0 -0.83429224412E+03  0.14559242371E+03 -0.65073461262E+03  0.14294041551E+04  0.95000000000E+03 0.  0.
   -2000013    1    1    2    0    0  0.83429224412E+03 -0.14559242371E+03 -0.16005828644E+04  0.20448976034E+04  0.95000000000E+03 0.  0.
<mgrwt>
<rscale>  0 0.26461939E+04</rscale>
<asrwt>0</asrwt>
<pdfrwt beam="2">  1        2 0.44043225E+00 0.26461939E+04</pdfrwt>
<pdfrwt beam="1">  1       -2 0.94075714E-01 0.26461939E+04</pdfrwt>
<totfact> 0.17788249E+00</totfact>
</mgrwt>
</event>
<event>
 4    1  0.2069825E-008  0.2664990E+04  0.7816531E-02  0.8346455E-01
         -2   -1    0    0    0  501 -0.00000000000E+00  0.00000000000E+00  0.11233532005E+04  0.11233532005E+04  0.00000000000E+00 0. -1.
          2   -1    0    0  501    0  0.00000000000E+00 -0.00000000000E+00 -0.15805741773E+04  0.15805741773E+04  0.00000000000E+00 0.  1.
    2000013    1    1    2    0    0 -0.68210758171E+03  0.61426076149E+03 -0.40567683635E+03  0.13819047477E+04  0.95000000000E+03 0.  0.
   -2000013    1    1    2    0    0  0.68210758171E+03 -0.61426076149E+03 -0.51544140511E+02  0.13220226301E+04  0.95000000000E+03 0.  0.
<mgrwt>
<rscale>  0 0.26649901E+04</rscale>
<asrwt>0</asrwt>
<pdfrwt beam="2">  1        2 0.24316526E+00 0.26649901E+04</pdfrwt>
<pdfrwt beam="1">  1       -2 0.17282357E+00 0.26649901E+04</pdfrwt>
<totfact> 0.20480804E+00</totfact>
</mgrwt>
</event>
<event>
 4    1  0.2069825E-008  0.2397301E+04  0.7816531E-02  0.8440515E-01
          2   -1    0    0  501    0  0.00000000000E+00  0.00000000000E+00  0.18371294327E+04  0.18371294327E+04  0.00000000000E+00 0.  1.
         -2   -1    0    0    0  501 -0.00000000000E+00 -0.00000000000E+00 -0.78206927810E+03  0.78206927810E+03  0.00000000000E+00 0. -1.
    2000013    1    1    2    0    0  0.10474163793E+03  0.72337689138E+03  0.53210730970E+03  0.13114431466E+04  0.95000000000E+03 0.  0.
   -2000013    1    1    2    0    0 -0.10474163793E+03 -0.72337689138E+03  0.52295284488E+03  0.13077555642E+04  0.95000000000E+03 0.  0.
<mgrwt>
<rscale>  0 0.23973006E+04</rscale>
<asrwt>0</asrwt>
<pdfrwt beam="1">  1        2 0.28263530E+00 0.23973006E+04</pdfrwt>
<pdfrwt beam="2">  1       -2 0.12031835E+00 0.23973006E+04</pdfrwt>
<totfact> 0.39045240E+00</totfact>
</mgrwt>
</event>
<event>
 4    1  0.2069825E-008  0.2912518E+04  0.7816531E-02  0.8269163E-01
          2   -1    0    0  501    0  0.00000000000E+00  0.00000000000E+00  0.22429954565E+04  0.22429954565E+04  0.00000000000E+00 0.  1.
         -2   -1    0    0    0  501 -0.00000000000E+00 -0.00000000000E+00 -0.94547270823E+03  0.94547270823E+03  0.00000000000E+00 0. -1.
    2000013    1    1    2    0    0  0.32882460085E+03 -0.10519541973E+04  0.58438753669E+03  0.15680376413E+04  0.95000000000E+03 0.  0.
   -2000013    1    1    2    0    0 -0.32882460085E+03  0.10519541973E+04  0.71313521160E+03  0.16204305235E+04  0.95000000000E+03 0.  0.
<mgrwt>
<rscale>  0 0.29125185E+04</rscale>
<asrwt>0</asrwt>
<pdfrwt beam="1">  1        2 0.34507622E+00 0.29125185E+04</pdfrwt>
<pdfrwt beam="2">  1       -2 0.14545734E+00 0.29125185E+04</pdfrwt>
<totfact> 0.13681977E+00</totfact>
</mgrwt>
</event>
<event>
 4    1  0.2069825E-008  0.2213358E+04  0.7816531E-02  0.8512889E-01
         -2   -1    0    0    0  501 -0.00000000000E+00  0.00000000000E+00  0.46915749328E+03  0.46915749328E+03  0.00000000000E+00 0.  1.
          2   -1    0    0  501    0  0.00000000000E+00 -0.00000000000E+00 -0.26105069851E+04  0.26105069851E+04  0.00000000000E+00 0. -1.
    2000013    1    1    2    0    0 -0.47627097474E+03  0.28858015506E+03 -0.12238952850E+04  0.16463694045E+04  0.95000000000E+03 0.  0.
   -2000013    1    1    2    0    0  0.47627097474E+03 -0.28858015506E+03 -0.91745420674E+03  0.14332950739E+04  0.95000000000E+03 0.  0.
<mgrwt>
<rscale>  0 0.22133585E+04</rscale>
<asrwt>0</asrwt>
<pdfrwt beam="2">  1        2 0.40161646E+00 0.22133585E+04</pdfrwt>
<pdfrwt beam="1">  1       -2 0.72178076E-01 0.22133585E+04</pdfrwt>
<totfact> 0.47622460E+00</totfact>
</mgrwt>
</event>
<event>
 4    1  0.2069825E-008  0.3067661E+04  0.7816531E-02  0.8224669E-01
          2   -1    0    0  501    0  0.00000000000E+00  0.00000000000E+00  0.25801965921E+04  0.25801965921E+04  0.00000000000E+00 0.  1.
         -2   -1    0    0    0  501 -0.00000000000E+00 -0.00000000000E+00 -0.91180494936E+03  0.91180494936E+03  0.00000000000E+00 0. -1.
    2000013    1    1    2    0    0 -0.20825766987E+03  0.75035343608E+03  0.18798063803E+04  0.22455675370E+04  0.95000000000E+03 0.  0.
   -2000013    1    1    2    0    0  0.20825766987E+03 -0.75035343608E+03 -0.21141473755E+03  0.12464340044E+04  0.95000000000E+03 0.  0.
<mgrwt>
<rscale>  0 0.30676610E+04</rscale>
<asrwt>0</asrwt>
<pdfrwt beam="1">  1        2 0.39695332E+00 0.30676610E+04</pdfrwt>
<pdfrwt beam="2">  1       -2 0.14027769E+00 0.30676610E+04</pdfrwt>
<totfact> 0.95051786E-01</totfact>
</mgrwt>
</event>
<event>
 4    1  0.2069825E-008  0.3937772E+04  0.7816531E-02  0.8017219E-01
          2   -1    0    0  501    0  0.00000000000E+00  0.00000000000E+00  0.18017671801E+04  0.18017671801E+04  0.00000000000E+00 0.  1.
         -2   -1    0    0    0  501 -0.00000000000E+00 -0.00000000000E+00 -0.21515053080E+04  0.21515053080E+04  0.00000000000E+00 0. -1.
    2000013    1    1    2    0    0  0.13794648573E+04 -0.99034324453E+03  0.12682780551E+03  0.19499457241E+04  0.95000000000E+03 0.  0.
   -2000013    1    1    2    0    0 -0.13794648573E+04  0.99034324453E+03 -0.47656593339E+03  0.20033267640E+04  0.95000000000E+03 0.  0.
<mgrwt>
<rscale>  0 0.39377718E+04</rscale>
<asrwt>0</asrwt>
<pdfrwt beam="1">  1        2 0.27719495E+00 0.39377718E+04</pdfrwt>
<pdfrwt beam="2">  1       -2 0.33100081E+00 0.39377718E+04</pdfrwt>
<totfact> 0.13965825E-01</totfact>
</mgrwt>
</event>
<event>
 4    1  0.2069825E-008  0.2146535E+04  0.7816531E-02  0.8541017E-01
          2   -1    0    0  501    0  0.00000000000E+00  0.00000000000E+00  0.17700616123E+04  0.17700616123E+04  0.00000000000E+00 0.  1.
         -2   -1    0    0    0  501 -0.00000000000E+00 -0.00000000000E+00 -0.65077011401E+03  0.65077011401E+03  0.00000000000E+00 0. -1.
    2000013    1    1    2    0    0  0.24735496705E+03 -0.39757135640E+03  0.36380116442E+03  0.11198655055E+04  0.95000000000E+03 0.  0.
   -2000013    1    1    2    0    0 -0.24735496705E+03  0.39757135640E+03  0.75549033389E+03  0.13009662208E+04  0.95000000000E+03 0.  0.
<mgrwt>
<rscale>  0 0.21465351E+04</rscale>
<asrwt>0</asrwt>
<pdfrwt beam="1">  1        2 0.27231717E+00 0.21465351E+04</pdfrwt>
<pdfrwt beam="2">  1       -2 0.10011848E+00 0.21465351E+04</pdfrwt>
<totfact> 0.67798415E+00</totfact>
</mgrwt>
</event>
<event>
 4    1  0.2069825E-008  0.2994160E+04  0.7816531E-02  0.8245400E-01
          2   -1    0    0  501    0  0.00000000000E+00  0.00000000000E+00  0.21475091019E+04  0.21475091019E+04  0.00000000000E+00 0. -1.
         -2   -1    0    0    0  501 -0.00000000000E+00 -0.00000000000E+00 -0.10436506064E+04  0.10436506064E+04  0.00000000000E+00 0.  1.
    2000013    1    1    2    0    0  0.84564860256E+03 -0.77103641153E+03  0.73383532785E+03  0.16585032395E+04  0.95000000000E+03 0.  0.
   -2000013    1    1    2    0    0 -0.84564860256E+03  0.77103641153E+03  0.37002316764E+03  0.15326564689E+04  0.95000000000E+03 0.  0.
<mgrwt>
<rscale>  0 0.29941604E+04</rscale>
<asrwt>0</asrwt>
<pdfrwt beam="1">  1        2 0.33038601E+00 0.29941604E+04</pdfrwt>
<pdfrwt beam="2">  1       -2 0.16056163E+00 0.29941604E+04</pdfrwt>
<totfact> 0.11809318E+00</totfact>
</mgrwt>
</event>
<event>
 4    1  0.2069825E-008  0.2083607E+04  0.7816531E-02  0.8568499E-01
         -2   -1    0    0    0  501 -0.00000000000E+00  0.00000000000E+00  0.51600972927E+03  0.51600972927E+03  0.00000000000E+00 0. -1.
          2   -1    0    0  501    0  0.00000000000E+00 -0.00000000000E+00 -0.21033598938E+04  0.21033598938E+04  0.00000000000E+00 0.  1.
    2000013    1    1    2    0    0  0.39738721179E+03  0.15706131202E+03 -0.77304441053E+03  0.12971825286E+04  0.95000000000E+03 0.  0.
   -2000013    1    1    2    0    0 -0.39738721179E+03 -0.15706131202E+03 -0.81430575403E+03  0.13221870945E+04  0.95000000000E+03 0.  0.
<mgrwt>
<rscale>  0 0.20836067E+04</rscale>
<asrwt>0</asrwt>
<pdfrwt beam="2">  1        2 0.32359384E+00 0.20836067E+04</pdfrwt>
<pdfrwt beam="1">  1       -2 0.79386110E-01 0.20836067E+04</pdfrwt>
<totfact> 0.75924289E+00</totfact>
</mgrwt>
</event>
<event>
 4    1  0.2069825E-008  0.2153264E+04  0.7816531E-02  0.8538136E-01
         -2   -1    0    0    0  501 -0.00000000000E+00  0.00000000000E+00  0.68252892341E+03  0.68252892341E+03  0.00000000000E+00 0. -1.
          2   -1    0    0  501    0  0.00000000000E+00 -0.00000000000E+00 -0.16982961080E+04  0.16982961080E+04  0.00000000000E+00 0.  1.
    2000013    1    1    2    0    0 -0.15084717299E+03  0.27959321328E+03 -0.94418546451E+03  0.13765585443E+04  0.95000000000E+03 0.  0.
   -2000013    1    1    2    0    0  0.15084717299E+03 -0.27959321328E+03 -0.71581720114E+02  0.10042664871E+04  0.95000000000E+03 0.  0.
<mgrwt>
<rscale>  0 0.21532638E+04</rscale>
<asrwt>0</asrwt>
<pdfrwt beam="2">  1        2 0.26127632E+00 0.21532638E+04</pdfrwt>
<pdfrwt beam="1">  1       -2 0.10500445E+00 0.21532638E+04</pdfrwt>
<totfact> 0.66287206E+00</totfact>
</mgrwt>
</event>
<event>
 4    1  0.2069825E-008  0.2183072E+04  0.7816531E-02  0.8525507E-01
         -2   -1    0    0    0  501 -0.00000000000E+00  0.00000000000E+00  0.32999236089E+03  0.32999236089E+03  0.00000000000E+00 0. -1.
          2   -1    0    0  501    0  0.00000000000E+00 -0.00000000000E+00 -0.36105414750E+04  0.36105414750E+04  0.00000000000E+00 0.  1.
    2000013    1    1    2    0    0 -0.28622232186E+03  0.42047767373E+03 -0.19540943016E+04  0.22315262112E+04  0.95000000000E+03 0.  0.
   -2000013    1    1    2    0    0  0.28622232186E+03 -0.42047767373E+03 -0.13264548125E+04  0.17090076247E+04  0.95000000000E+03 0.  0.
<mgrwt>
<rscale>  0 0.21830722E+04</rscale>
<asrwt>0</asrwt>
<pdfrwt beam="2">  1        2 0.55546794E+00 0.21830722E+04</pdfrwt>
<pdfrwt beam="1">  1       -2 0.50768053E-01 0.21830722E+04</pdfrwt>
<totfact> 0.22877827E+00</totfact>
</mgrwt>
</event>
<event>
 4    1  0.2069825E-008  0.2413331E+04  0.7816531E-02  0.8434529E-01
          2   -1    0    0  501    0  0.00000000000E+00  0.00000000000E+00  0.67081577730E+03  0.67081577730E+03  0.00000000000E+00 0.  1.
         -2   -1    0    0    0  501 -0.00000000000E+00 -0.00000000000E+00 -0.21705545366E+04  0.21705545366E+04  0.00000000000E+00 0. -1.
    2000013    1    1    2    0    0 -0.30531712342E+03  0.20308843362E+03  0.12312621012E+02  0.10183884614E+04  0.95000000000E+03 0.  0.
   -2000013    1    1    2    0    0  0.30531712342E+03 -0.20308843362E+03 -0.15120513803E+04  0.18229818524E+04  0.95000000000E+03 0.  0.
<mgrwt>
<rscale>  0 0.24133315E+04</rscale>
<asrwt>0</asrwt>
<pdfrwt beam="1">  1        2 0.10320242E+00 0.24133315E+04</pdfrwt>
<pdfrwt beam="2">  1       -2 0.33393147E+00 0.24133315E+04</pdfrwt>
<totfact> 0.76239386E-01</totfact>
</mgrwt>
</event>
<event>
 4    1  0.2069825E-008  0.3001994E+04  0.7816531E-02  0.8243162E-01
         -2   -1    0    0    0  501 -0.00000000000E+00  0.00000000000E+00  0.91063042357E+03  0.91063042357E+03  0.00000000000E+00 0.  1.
          2   -1    0    0  501    0  0.00000000000E+00 -0.00000000000E+00 -0.24741018659E+04  0.24741018659E+04  0.00000000000E+00 0. -1.
    2000013    1    1    2    0    0  0.11147799469E+04  0.10788023814E+03 -0.11312953265E+04  0.18538342945E+04  0.95000000000E+03 0.  0.
   -2000013    1    1    2    0    0 -0.11147799469E+04 -0.10788023814E+03 -0.43217611590E+03  0.15308979950E+04  0.95000000000E+03 0.  0.
<mgrwt>
<rscale>  0 0.30019943E+04</rscale>
<asrwt>0</asrwt>
<pdfrwt beam="2">  1        2 0.38063105E+00 0.30019943E+04</pdfrwt>
<pdfrwt beam="1">  1       -2 0.14009699E+00 0.30019943E+04</pdfrwt>
<totfact> 0.11054860E+00</totfact>
</mgrwt>
</event>
<event>
 4    1  0.2069825E-008  0.3192537E+04  0.7816531E-02  0.8190791E-01
         -2   -1    0    0    0  501 -0.00000000000E+00  0.00000000000E+00  0.77796376940E+03  0.77796376940E+03  0.00000000000E+00 0. -1.
          2   -1    0    0  501    0  0.00000000000E+00 -0.00000000000E+00 -0.32753108421E+04  0.32753108421E+04  0.00000000000E+00 0.  1.
    2000013    1    1    2    0    0  0.64513698188E+03 -0.10685714704E+04 -0.87306127788E+03  0.17952110482E+04  0.95000000000E+03 0.  0.
   -2000013    1    1    2    0    0 -0.64513698188E+03  0.10685714704E+04 -0.16242857948E+04  0.22580635633E+04  0.95000000000E+03 0.  0.
<mgrwt>
<rscale>  0 0.31925370E+04</rscale>
<asrwt>0</asrwt>
<pdfrwt beam="2">  1        2 0.50389397E+00 0.31925370E+04</pdfrwt>
<pdfrwt beam="1">  1       -2 0.11968674E+00 0.31925370E+04</pdfrwt>
<totfact> 0.52042263E-01</totfact>
</mgrwt>
</event>
<event>
 4    1  0.2069825E-008  0.2323254E+04  0.7816531E-02  0.8468809E-01
         -2   -1    0    0    0  501 -0.00000000000E+00  0.00000000000E+00  0.11196123908E+04  0.11196123908E+04  0.00000000000E+00 0. -1.
          2   -1    0    0  501    0  0.00000000000E+00 -0.00000000000E+00 -0.12052179566E+04  0.12052179566E+04  0.00000000000E+00 0.  1.
    2000013    1    1    2    0    0  0.48426171865E+03 -0.28264652662E+03  0.32142016467E+03  0.11490036525E+04  0.95000000000E+03 0.  0.
   -2000013    1    1    2    0    0 -0.48426171865E+03  0.28264652662E+03 -0.40702573056E+03  0.11758266949E+04  0.95000000000E+03 0.  0.
<mgrwt>
<rscale>  0 0.23232537E+04</rscale>
<asrwt>0</asrwt>
<pdfrwt beam="2">  1        2 0.18541815E+00 0.23232537E+04</pdfrwt>
<pdfrwt beam="1">  1       -2 0.17224806E+00 0.23232537E+04</pdfrwt>
<totfact> 0.34961732E+00</totfact>
</mgrwt>
</event>
<event>
 4    1  0.2069825E-008  0.2423485E+04  0.7816531E-02  0.8430763E-01
         -2   -1    0    0    0  501 -0.00000000000E+00  0.00000000000E+00  0.45118017831E+03  0.45118017831E+03  0.00000000000E+00 0. -1.
          2   -1    0    0  501    0  0.00000000000E+00 -0.00000000000E+00 -0.32543983068E+04  0.32543983068E+04  0.00000000000E+00 0.  1.
    2000013    1    1    2    0    0  0.67089901017E+03  0.20727023228E+03 -0.18140320276E+04  0.21647814274E+04  0.95000000000E+03 0.  0.
   -2000013    1    1    2    0    0 -0.67089901017E+03 -0.20727023228E+03 -0.98918610086E+03  0.15407970577E+04  0.95000000000E+03 0.  0.
<mgrwt>
<rscale>  0 0.24234851E+04</rscale>
<asrwt>0</asrwt>
<pdfrwt beam="2">  1        2 0.50067665E+00 0.24234851E+04</pdfrwt>
<pdfrwt beam="1">  1       -2 0.69412337E-01 0.24234851E+04</pdfrwt>
<totfact> 0.20316211E+00</totfact>
</mgrwt>
</event>
<event>
 4    1  0.2069825E-008  0.2314611E+04  0.7816531E-02  0.8472182E-01
         -2   -1    0    0    0  501 -0.00000000000E+00  0.00000000000E+00  0.25146770261E+04  0.25146770261E+04  0.00000000000E+00 0. -1.
          2   -1    0    0  501    0  0.00000000000E+00 -0.00000000000E+00 -0.53261544682E+03  0.53261544682E+03  0.00000000000E+00 0.  1.
    2000013    1    1    2    0    0  0.13216678337E+03 -0.64306560184E+03  0.89029648573E+03  0.14581252550E+04  0.95000000000E+03 0.  0.
   -2000013    1    1    2    0    0 -0.13216678337E+03  0.64306560184E+03  0.10917650936E+04  0.15891672179E+04  0.95000000000E+03 0.  0.
<mgrwt>
<rscale>  0 0.23146108E+04</rscale>
<asrwt>0</asrwt>
<pdfrwt beam="2">  1        2 0.81940839E-01 0.23146108E+04</pdfrwt>
<pdfrwt beam="1">  1       -2 0.38687338E+00 0.23146108E+04</pdfrwt>
<totfact> 0.46851897E-01</totfact>
</mgrwt>
</event>
<event>
 4    1  0.2069825E-008  0.2604793E+04  0.7816531E-02  0.8366575E-01
          2   -1    0    0  501    0  0.00000000000E+00  0.00000000000E+00  0.21227022381E+04  0.21227022381E+04  0.00000000000E+00 0.  1.
         -2   -1    0    0    0  501 -0.00000000000E+00 -0.00000000000E+00 -0.79909282365E+03  0.79909282365E+03  0.00000000000E+00 0. -1.
    2000013    1    1    2    0    0  0.32085165365E+03  0.81767058767E+03  0.49465582667E+03  0.13851770141E+04  0.95000000000E+03 0.  0.
   -2000013    1    1    2    0    0 -0.32085165365E+03 -0.81767058767E+03  0.82895358777E+03  0.15366180476E+04  0.95000000000E+03 0.  0.
<mgrwt>
<rscale>  0 0.26047926E+04</rscale>
<asrwt>0</asrwt>
<pdfrwt beam="1">  1        2 0.32656957E+00 0.26047926E+04</pdfrwt>
<pdfrwt beam="2">  1       -2 0.12293736E+00 0.26047926E+04</pdfrwt>
<totfact> 0.25222787E+00</totfact>
</mgrwt>
</event>
<event>
 4    1  0.2069825E-008  0.2402636E+04  0.7816531E-02  0.8438517E-01
          2   -1    0    0  501    0  0.00000000000E+00  0.00000000000E+00  0.89488015239E+03  0.89488015239E+03  0.00000000000E+00 0.  1.
         -2   -1    0    0    0  501 -0.00000000000E+00 -0.00000000000E+00 -0.16126910196E+04  0.16126910196E+04  0.00000000000E+00 0. -1.
    2000013    1    1    2    0    0 -0.45023594801E+03  0.55874042907E+03 -0.52642065499E+03  0.13017380620E+04  0.95000000000E+03 0.  0.
   -2000013    1    1    2    0    0  0.45023594801E+03 -0.55874042907E+03 -0.19139021223E+03  0.12058331101E+04  0.95000000000E+03 0.  0.
<mgrwt>
<rscale>  0 0.24026362E+04</rscale>
<asrwt>0</asrwt>
<pdfrwt beam="1">  1        2 0.13767387E+00 0.24026362E+04</pdfrwt>
<pdfrwt beam="2">  1       -2 0.24810631E+00 0.24026362E+04</pdfrwt>
<totfact> 0.17538259E+00</totfact>
</mgrwt>
</event>
<event>
 4    1  0.2069825E-008  0.2150839E+04  0.7816531E-02  0.8539173E-01
         -2   -1    0    0    0  501 -0.00000000000E+00  0.00000000000E+00  0.46118520996E+03  0.46118520996E+03  0.00000000000E+00 0. -1.
          2   -1    0    0  501    0  0.00000000000E+00 -0.00000000000E+00 -0.25077274658E+04  0.25077274658E+04  0.00000000000E+00 0.  1.
    2000013    1    1    2    0    0 -0.41223146034E+03 -0.28548677710E+03 -0.10935110796E+04  0.15328744104E+04  0.95000000000E+03 0.  0.
   -2000013    1    1    2    0    0  0.41223146034E+03  0.28548677710E+03 -0.95303117624E+03  0.14360382654E+04  0.95000000000E+03 0.  0.
<mgrwt>
<rscale>  0 0.21508387E+04</rscale>
<asrwt>0</asrwt>
<pdfrwt beam="2">  1        2 0.38580422E+00 0.21508387E+04</pdfrwt>
<pdfrwt beam="1">  1       -2 0.70951571E-01 0.21508387E+04</pdfrwt>
<totfact> 0.57076804E+00</totfact>
</mgrwt>
</event>
<event>
 4    1  0.2069825E-008  0.2009309E+04  0.7816531E-02  0.8602281E-01
         -2   -1    0    0    0  501 -0.00000000000E+00  0.00000000000E+00  0.26932204024E+03  0.26932204024E+03  0.00000000000E+00 0.  1.
          2   -1    0    0  501    0  0.00000000000E+00 -0.00000000000E+00 -0.37476722609E+04  0.37476722609E+04  0.00000000000E+00 0. -1.
    2000013    1    1    2    0    0  0.23641423031E+03  0.22476818542E+03 -0.17800640320E+04  0.20439032227E+04  0.95000000000E+03 0.  0.
   -2000013    1    1    2    0    0 -0.23641423031E+03 -0.22476818542E+03 -0.16982861886E+04  0.19730910785E+04  0.95000000000E+03 0.  0.
<mgrwt>
<rscale>  0 0.20093091E+04</rscale>
<asrwt>0</asrwt>
<pdfrwt beam="2">  1        2 0.57656494E+00 0.20093091E+04</pdfrwt>
<pdfrwt beam="1">  1       -2 0.41434162E-01 0.20093091E+04</pdfrwt>
<totfact> 0.27770940E+00</totfact>
</mgrwt>
</event>
<event>
 4    1  0.2069825E-008  0.2205840E+04  0.7816531E-02  0.8516001E-01
          2   -1    0    0  501    0  0.00000000000E+00  0.00000000000E+00  0.24891271457E+04  0.24891271457E+04  0.00000000000E+00 0.  1.
         -2   -1    0    0    0  501 -0.00000000000E+00 -0.00000000000E+00 -0.48869824889E+03  0.48869824889E+03  0.00000000000E+00 0. -1.
    2000013    1    1    2    0    0 -0.40916375686E+03 -0.27706455225E+03  0.13567514973E+04  0.17284254023E+04  0.95000000000E+03 0.  0.
   -2000013    1    1    2    0    0  0.40916375686E+03  0.27706455225E+03  0.64367739957E+03  0.12493999923E+04  0.95000000000E+03 0.  0.
<mgrwt>
<rscale>  0 0.22058396E+04</rscale>
<asrwt>0</asrwt>
<pdfrwt beam="1">  1        2 0.38294263E+00 0.22058396E+04</pdfrwt>
<pdfrwt beam="2">  1       -2 0.75184347E-01 0.22058396E+04</pdfrwt>
<totfact> 0.51250570E+00</totfact>
</mgrwt>
</event>
<event>
 4    1  0.2069825E-008  0.2491918E+04  0.7816531E-02  0.8405870E-01
         -2   -1    0    0    0  501 -0.00000000000E+00  0.00000000000E+00  0.52711670307E+03  0.52711670307E+03  0.00000000000E+00 0. -1.
          2   -1    0    0  501    0  0.00000000000E+00 -0.00000000000E+00 -0.29451053785E+04  0.29451053785E+04  0.00000000000E+00 0.  1.
    2000013    1    1    2    0    0  0.33820803061E+03 -0.72641195012E+03 -0.10854981555E+04  0.16501106747E+04  0.95000000000E+03 0.  0.
   -2000013    1    1    2    0    0 -0.33820803061E+03  0.72641195012E+03 -0.13324905199E+04  0.18221114069E+04  0.95000000000E+03 0.  0.
<mgrwt>
<rscale>  0 0.24919183E+04</rscale>
<asrwt>0</asrwt>
<pdfrwt beam="2">  1        2 0.45309313E+00 0.24919183E+04</pdfrwt>
<pdfrwt beam="1">  1       -2 0.81094878E-01 0.24919183E+04</pdfrwt>
<totfact> 0.22544228E+00</totfact>
</mgrwt>
</event>
<event>
 4    1  0.2069825E-008  0.3097605E+04  0.7816531E-02  0.8216396E-01
         -2   -1    0    0    0  501 -0.00000000000E+00  0.00000000000E+00  0.12173288826E+04  0.12173288826E+04  0.00000000000E+00 0. -1.
          2   -1    0    0  501    0  0.00000000000E+00 -0.00000000000E+00 -0.19705344079E+04  0.19705344079E+04  0.00000000000E+00 0.  1.
    2000013    1    1    2    0    0 -0.87692619971E+03 -0.49678422853E+03  0.33677217463E+03  0.14253805201E+04  0.95000000000E+03 0.  0.
   -2000013    1    1    2    0    0  0.87692619971E+03  0.49678422853E+03 -0.10899777000E+04  0.17624827704E+04  0.95000000000E+03 0.  0.
<mgrwt>
<rscale>  0 0.30976045E+04</rscale>
<asrwt>0</asrwt>
<pdfrwt beam="2">  1        2 0.30315914E+00 0.30976045E+04</pdfrwt>
<pdfrwt beam="1">  1       -2 0.18728137E+00 0.30976045E+04</pdfrwt>
<totfact> 0.95268650E-01</totfact>
</mgrwt>
</event>
<event>
 4    1  0.2069825E-008  0.3087037E+04  0.7816531E-02  0.8219304E-01
         -2   -1    0    0    0  501 -0.00000000000E+00  0.00000000000E+00  0.98274533884E+03  0.98274533884E+03  0.00000000000E+00 0. -1.
          2   -1    0    0  501    0  0.00000000000E+00 -0.00000000000E+00 -0.24242802144E+04  0.24242802144E+04  0.00000000000E+00 0.  1.
    2000013    1    1    2    0    0 -0.78113089847E+03  0.91400594184E+03 -0.92539877508E+03  0.17900936387E+04  0.95000000000E+03 0.  0.
   -2000013    1    1    2    0    0  0.78113089847E+03 -0.91400594184E+03 -0.51613610051E+03  0.16169319146E+04  0.95000000000E+03 0.  0.
<mgrwt>
<rscale>  0 0.30870375E+04</rscale>
<asrwt>0</asrwt>
<pdfrwt beam="2">  1        2 0.37296619E+00 0.30870375E+04</pdfrwt>
<pdfrwt beam="1">  1       -2 0.15119159E+00 0.30870375E+04</pdfrwt>
<totfact> 0.95984178E-01</totfact>
</mgrwt>
</event>
<event>
 4    1  0.2069825E-008  0.3539517E+04  0.7816531E-02  0.8104488E-01
         -2   -1    0    0    0  501 -0.00000000000E+00  0.00000000000E+00  0.11059834363E+04  0.11059834363E+04  0.00000000000E+00 0. -1.
          2   -1    0    0  501    0  0.00000000000E+00 -0.00000000000E+00 -0.28319090913E+04  0.28319090913E+04  0.00000000000E+00 0.  1.
    2000013    1    1    2    0    0  0.12655133398E+04 -0.21323324617E+03 -0.13807202097E+02  0.15967727043E+04  0.95000000000E+03 0.  0.
   -2000013    1    1    2    0    0 -0.12655133398E+04  0.21323324617E+03 -0.17121184529E+04  0.23411198233E+04  0.95000000000E+03 0.  0.
<mgrwt>
<rscale>  0 0.35395167E+04</rscale>
<asrwt>0</asrwt>
<pdfrwt beam="2">  1        2 0.43567832E+00 0.35395167E+04</pdfrwt>
<pdfrwt beam="1">  1       -2 0.17015130E+00 0.35395167E+04</pdfrwt>
<totfact> 0.38493344E-01</totfact>
</mgrwt>
</event>
<event>
 4    1  0.2069825E-008  0.2288250E+04  0.7816531E-02  0.8482568E-01
         -2   -1    0    0    0  501 -0.00000000000E+00  0.00000000000E+00  0.52829977020E+03  0.52829977020E+03  0.00000000000E+00 0. -1.
          2   -1    0    0  501    0  0.00000000000E+00 -0.00000000000E+00 -0.24778017454E+04  0.24778017454E+04  0.00000000000E+00 0.  1.
    2000013    1    1    2    0    0  0.56743431231E+03 -0.85347554956E+02 -0.60960477654E+03  0.12662479566E+04  0.95000000000E+03 0.  0.
   -2000013    1    1    2    0    0 -0.56743431231E+03  0.85347554956E+02 -0.13398971987E+04  0.17398535591E+04  0.95000000000E+03 0.  0.
<mgrwt>
<rscale>  0 0.22882501E+04</rscale>
<asrwt>0</asrwt>
<pdfrwt beam="2">  1        2 0.38120027E+00 0.22882501E+04</pdfrwt>
<pdfrwt beam="1">  1       -2 0.81276888E-01 0.22882501E+04</pdfrwt>
<totfact> 0.43400742E+00</totfact>
</mgrwt>
</event>
<event>
 4    1  0.2069825E-008  0.2363055E+04  0.7816531E-02  0.8453466E-01
         -2   -1    0    0    0  501 -0.00000000000E+00  0.00000000000E+00  0.12338516558E+04  0.12338516558E+04  0.00000000000E+00 0. -1.
          2   -1    0    0  501    0  0.00000000000E+00 -0.00000000000E+00 -0.11314223286E+04  0.11314223286E+04  0.00000000000E+00 0.  1.
    2000013    1    1    2    0    0 -0.36952753500E+02  0.64917548955E+03 -0.21495417965E+03  0.11711104224E+04  0.95000000000E+03 0.  0.
   -2000013    1    1    2    0    0  0.36952753500E+02 -0.64917548955E+03  0.31738350682E+03  0.11941635619E+04  0.95000000000E+03 0.  0.
<mgrwt>
<rscale>  0 0.23630551E+04</rscale>
<asrwt>0</asrwt>
<pdfrwt beam="2">  1        2 0.17406497E+00 0.23630551E+04</pdfrwt>
<pdfrwt beam="1">  1       -2 0.18982333E+00 0.23630551E+04</pdfrwt>
<totfact> 0.29210614E+00</totfact>
</mgrwt>
</event>
<event>
 4    1  0.2069825E-008  0.2347278E+04  0.7816531E-02  0.8459510E-01
         -1   -1    0    0    0  501 -0.00000000000E+00  0.00000000000E+00  0.38526544960E+03  0.38526544960E+03  0.00000000000E+00 0.  1.
          1   -1    0    0  501    0  0.00000000000E+00 -0.00000000000E+00 -0.35752721698E+04  0.35752721698E+04  0.00000000000E+00 0. -1.
    2000013    1    1    2    0    0 -0.65901276375E+03 -0.19859840790E+03 -0.16532011357E+04  0.20271440861E+04  0.95000000000E+03 0.  0.
   -2000013    1    1    2    0    0  0.65901276375E+03  0.19859840790E+03 -0.15368055845E+04  0.19333935334E+04  0.95000000000E+03 0.  0.
<mgrwt>
<rscale>  0 0.23472783E+04</rscale>
<asrwt>0</asrwt>
<pdfrwt beam="2">  1        1 0.55004185E+00 0.23472783E+04</pdfrwt>
<pdfrwt beam="1">  1       -1 0.59271610E-01 0.23472783E+04</pdfrwt>
<totfact> 0.56675057E-01</totfact>
</mgrwt>
</event>
<event>
 4    1  0.2069825E-008  0.2177876E+04  0.7816531E-02  0.8527694E-01
         -2   -1    0    0    0  501 -0.00000000000E+00  0.00000000000E+00  0.14061282146E+04  0.14061282146E+04  0.00000000000E+00 0. -1.
          2   -1    0    0  501    0  0.00000000000E+00 -0.00000000000E+00 -0.84329827488E+03  0.84329827488E+03  0.00000000000E+00 0.  1.
    2000013    1    1    2    0    0 -0.28894524285E+03  0.48735416013E+02 -0.17750337623E+03  0.10098870940E+04  0.95000000000E+03 0.  0.
   -2000013    1    1    2    0    0  0.28894524285E+03 -0.48735416013E+02  0.74033331595E+03  0.12395393954E+04  0.95000000000E+03 0.  0.
<mgrwt>
<rscale>  0 0.21778756E+04</rscale>
<asrwt>0</asrwt>
<pdfrwt beam="2">  1        2 0.12973820E+00 0.21778756E+04</pdfrwt>
<pdfrwt beam="1">  1       -2 0.21632742E+00 0.21778756E+04</pdfrwt>
<totfact> 0.30629300E+00</totfact>
</mgrwt>
</event>
<event>
 4    1  0.2069825E-008  0.2869597E+04  0.7816531E-02  0.8281981E-01
          2   -1    0    0  501    0  0.00000000000E+00  0.00000000000E+00  0.38083358207E+04  0.38083358207E+04  0.00000000000E+00 0.  1.
         -2   -1    0    0    0  501 -0.00000000000E+00 -0.00000000000E+00 -0.54056328821E+03  0.54056328821E+03  0.00000000000E+00 0. -1.
    2000013    1    1    2    0    0 -0.10155752159E+04  0.25136631072E+03  0.12578430971E+04  0.18918898748E+04  0.95000000000E+03 0.  0.
   -2000013    1    1    2    0    0  0.10155752159E+04 -0.25136631072E+03  0.20099294354E+04  0.24570092341E+04  0.95000000000E+03 0.  0.
<mgrwt>
<rscale>  0 0.28695969E+04</rscale>
<asrwt>0</asrwt>
<pdfrwt beam="1">  1        2 0.58589780E+00 0.28695969E+04</pdfrwt>
<pdfrwt beam="2">  1       -2 0.83163585E-01 0.28695969E+04</pdfrwt>
<totfact> 0.53021770E-01</totfact>
</mgrwt>
</event>
<event>
 4    1  0.2069825E-008  0.2379683E+04  0.7816531E-02  0.8447149E-01
          2   -1    0    0  501    0  0.00000000000E+00  0.00000000000E+00  0.12611439424E+04  0.12611439424E+04  0.00000000000E+00 0.  1.
         -2   -1    0    0    0  501 -0.00000000000E+00 -0.00000000000E+00 -0.11225698774E+04  0.11225698774E+04  0.00000000000E+00 0. -1.
    2000013    1    1    2    0    0 -0.70344016480E+03  0.11616732402E+03  0.13940052311E+03  0.11959328654E+04  0.95000000000E+03 0.  0.
   -2000013    1    1    2    0    0  0.70344016480E+03 -0.11616732402E+03 -0.82645808740E+00  0.11877809544E+04  0.95000000000E+03 0.  0.
<mgrwt>
<rscale>  0 0.23796825E+04</rscale>
<asrwt>0</asrwt>
<pdfrwt beam="1">  1        2 0.19402215E+00 0.23796825E+04</pdfrwt>
<pdfrwt beam="2">  1       -2 0.17270306E+00 0.23796825E+04</pdfrwt>
<totfact> 0.32004582E+00</totfact>
</mgrwt>
</event>
<event>
 4    1  0.2069825E-008  0.2100169E+04  0.7816531E-02  0.8561169E-01
         -2   -1    0    0    0  501 -0.00000000000E+00  0.00000000000E+00  0.16067501708E+04  0.16067501708E+04  0.00000000000E+00 0. -1.
          2   -1    0    0  501    0  0.00000000000E+00 -0.00000000000E+00 -0.68627777685E+03  0.68627777685E+03  0.00000000000E+00 0.  1.
    2000013    1    1    2    0    0 -0.30000824751E+03  0.30695641747E+03  0.32234641954E+03  0.10911619518E+04  0.95000000000E+03 0.  0.
   -2000013    1    1    2    0    0  0.30000824751E+03 -0.30695641747E+03  0.59812597443E+03  0.12018659959E+04  0.95000000000E+03 0.  0.
<mgrwt>
<rscale>  0 0.21001685E+04</rscale>
<asrwt>0</asrwt>
<pdfrwt beam="2">  1        2 0.10558120E+00 0.21001685E+04</pdfrwt>
<pdfrwt beam="1">  1       -2 0.24719233E+00 0.21001685E+04</pdfrwt>
<totfact> 0.25883994E+00</totfact>
</mgrwt>
</event>
<event>
 4    1  0.2069825E-008  0.2612319E+04  0.7816531E-02  0.8364029E-01
         -2   -1    0    0    0  501 -0.00000000000E+00  0.00000000000E+00  0.19886086815E+04  0.19886086815E+04  0.00000000000E+00 0. -1.
          2   -1    0    0  501    0  0.00000000000E+00 -0.00000000000E+00 -0.85791239174E+03  0.85791239174E+03  0.00000000000E+00 0.  1.
    2000013    1    1    2    0    0 -0.86760904078E+03 -0.22361555308E+03  0.59621951972E+03  0.14355232770E+04  0.95000000000E+03 0.  0.
   -2000013    1    1    2    0    0  0.86760904078E+03  0.22361555308E+03  0.53447677007E+03  0.14109977962E+04  0.95000000000E+03 0.  0.
<mgrwt>
<rscale>  0 0.26123185E+04</rscale>
<asrwt>0</asrwt>
<pdfrwt beam="2">  1        2 0.13198652E+00 0.26123185E+04</pdfrwt>
<pdfrwt beam="1">  1       -2 0.30593980E+00 0.26123185E+04</pdfrwt>
<totfact> 0.80945212E-01</totfact>
</mgrwt>
</event>
<event>
 4    1  0.2069825E-008  0.2820042E+04  0.7816531E-02  0.8297073E-01
         -2   -1    0    0    0  501 -0.00000000000E+00  0.00000000000E+00  0.17352829232E+04  0.17352829232E+04  0.00000000000E+00 0. -1.
          2   -1    0    0  501    0  0.00000000000E+00 -0.00000000000E+00 -0.11457266167E+04  0.11457266167E+04  0.00000000000E+00 0.  1.
    2000013    1    1    2    0    0  0.72913955643E+03  0.58907502912E+03  0.75959350923E+03  0.15356224087E+04  0.95000000000E+03 0.  0.
   -2000013    1    1    2    0    0 -0.72913955643E+03 -0.58907502912E+03 -0.17003720271E+03  0.13453871313E+04  0.95000000000E+03 0.  0.
<mgrwt>
<rscale>  0 0.28200424E+04</rscale>
<asrwt>0</asrwt>
<pdfrwt beam="2">  1        2 0.17626563E+00 0.28200424E+04</pdfrwt>
<pdfrwt beam="1">  1       -2 0.26696660E+00 0.28200424E+04</pdfrwt>
<totfact> 0.89743053E-01</totfact>
</mgrwt>
</event>
<event>
 4    1  0.2069825E-008  0.2139494E+04  0.7816531E-02  0.8544043E-01
          1   -1    0    0  501    0  0.00000000000E+00  0.00000000000E+00  0.11291786513E+04  0.11291786513E+04  0.00000000000E+00 0.  1.
         -1   -1    0    0    0  501 -0.00000000000E+00 -0.00000000000E+00 -0.10134437778E+04  0.10134437778E+04  0.00000000000E+00 0. -1.
    2000013    1    1    2    0    0  0.48018277166E+03 -0.25958680888E+02  0.16102157964E+03  0.10768831396E+04  0.95000000000E+03 0.  0.
   -2000013    1    1    2    0    0 -0.48018277166E+03  0.25958680888E+02 -0.45286706100E+02  0.10657392894E+04  0.95000000000E+03 0.  0.
<mgrwt>
<rscale>  0 0.21394944E+04</rscale>
<asrwt>0</asrwt>
<pdfrwt beam="1">  1        1 0.17371979E+00 0.21394944E+04</pdfrwt>
<pdfrwt beam="2">  1       -1 0.15591443E+00 0.21394944E+04</pdfrwt>
<totfact> 0.34696425E+00</totfact>
</mgrwt>
</event>
<event>
 4    1  0.2069825E-008  0.2566251E+04  0.7816531E-02  0.8379756E-01
          2   -1    0    0  501    0  0.00000000000E+00  0.00000000000E+00  0.17927737788E+04  0.17927737788E+04  0.00000000000E+00 0.  1.
         -2   -1    0    0    0  501 -0.00000000000E+00 -0.00000000000E+00 -0.91835959721E+03  0.91835959721E+03  0.00000000000E+00 0. -1.
    2000013    1    1    2    0    0  0.40048768680E+03 -0.71475781922E+03  0.15246918319E+03  0.12637309758E+04  0.95000000000E+03 0.  0.
   -2000013    1    1    2    0    0 -0.40048768680E+03  0.71475781922E+03  0.72194499843E+03  0.14474024002E+04  0.95000000000E+03 0.  0.
<mgrwt>
<rscale>  0 0.25662510E+04</rscale>
<asrwt>0</asrwt>
<pdfrwt beam="1">  1        2 0.27581135E+00 0.25662510E+04</pdfrwt>
<pdfrwt beam="2">  1       -2 0.14128609E+00 0.25662510E+04</pdfrwt>
<totfact> 0.27095742E+00</totfact>
</mgrwt>
</event>
<event>
 4    1  0.2069825E-008  0.2230808E+04  0.7816531E-02  0.8505713E-01
         -2   -1    0    0    0  501 -0.00000000000E+00  0.00000000000E+00  0.40710219705E+03  0.40710219705E+03  0.00000000000E+00 0. -1.
          2   -1    0    0  501    0  0.00000000000E+00 -0.00000000000E+00 -0.30560540280E+04  0.30560540280E+04  0.00000000000E+00 0.  1.
    2000013    1    1    2    0    0 -0.26285506089E+03  0.50444115439E+03 -0.11157767352E+04  0.15719450957E+04  0.95000000000E+03 0.  0.
   -2000013    1    1    2    0    0  0.26285506089E+03 -0.50444115439E+03 -0.15331750958E+04  0.18912111293E+04  0.95000000000E+03 0.  0.
<mgrwt>
<rscale>  0 0.22308082E+04</rscale>
<asrwt>0</asrwt>
<pdfrwt beam="2">  1        2 0.47016215E+00 0.22308082E+04</pdfrwt>
<pdfrwt beam="1">  1       -2 0.62631109E-01 0.22308082E+04</pdfrwt>
<totfact> 0.34638244E+00</totfact>
</mgrwt>
</event>
<event>
 4    1  0.2069825E-008  0.2365686E+04  0.7816531E-02  0.8452463E-01
         -2   -1    0    0    0  501 -0.00000000000E+00  0.00000000000E+00  0.13879811634E+04  0.13879811634E+04  0.00000000000E+00 0. -1.
          2   -1    0    0  501    0  0.00000000000E+00 -0.00000000000E+00 -0.10080234858E+04  0.10080234858E+04  0.00000000000E+00 0.  1.
    2000013    1    1    2    0    0 -0.38365706791E+03  0.24706689873E+03  0.73387405079E+03  0.12842530594E+04  0.95000000000E+03 0.  0.
   -2000013    1    1    2    0    0  0.38365706791E+03 -0.24706689873E+03 -0.35391637318E+03  0.11117515898E+04  0.95000000000E+03 0.  0.
<mgrwt>
<rscale>  0 0.23656860E+04</rscale>
<asrwt>0</asrwt>
<pdfrwt beam="2">  1        2 0.15508054E+00 0.23656860E+04</pdfrwt>
<pdfrwt beam="1">  1       -2 0.21353556E+00 0.23656860E+04</pdfrwt>
<totfact> 0.24387252E+00</totfact>
</mgrwt>
</event>
<event>
 4    1  0.2069825E-008  0.1996745E+04  0.7816531E-02  0.8608144E-01
          1   -1    0    0  501    0  0.00000000000E+00  0.00000000000E+00  0.35861241609E+04  0.35861241609E+04  0.00000000000E+00 0.  1.
         -1   -1    0    0    0  501 -0.00000000000E+00 -0.00000000000E+00 -0.27794567208E+03  0.27794567208E+03  0.00000000000E+00 0. -1.
    2000013    1    1    2    0    0 -0.18229057339E+03 -0.20803621205E+03  0.19118306073E+04  0.21526971895E+04  0.95000000000E+03 0.  0.
   -2000013    1    1    2    0    0  0.18229057339E+03  0.20803621205E+03  0.13963478816E+04  0.17113726435E+04  0.95000000000E+03 0.  0.
<mgrwt>
<rscale>  0 0.19967450E+04</rscale>
<asrwt>0</asrwt>
<pdfrwt beam="1">  1        1 0.55171138E+00 0.19967450E+04</pdfrwt>
<pdfrwt beam="2">  1       -1 0.42760875E-01 0.19967450E+04</pdfrwt>
<totfact> 0.10719575E+00</totfact>
</mgrwt>
</event>
<event>
 4    1  0.2069825E-008  0.2346947E+04  0.7816531E-02  0.8459637E-01
         -2   -1    0    0    0  501 -0.00000000000E+00  0.00000000000E+00  0.36377730417E+03  0.36377730417E+03  0.00000000000E+00 0. -1.
          2   -1    0    0  501    0  0.00000000000E+00 -0.00000000000E+00 -0.37853923679E+04  0.37853923679E+04  0.00000000000E+00 0.  1.
    2000013    1    1    2    0    0 -0.66391559962E+03  0.14511101018E+03 -0.19100296788E+04  0.22388734896E+04  0.95000000000E+03 0.  0.
   -2000013    1    1    2    0    0  0.66391559962E+03 -0.14511101018E+03 -0.15115853850E+04  0.19102961825E+04  0.95000000000E+03 0.  0.
<mgrwt>
<rscale>  0 0.23469468E+04</rscale>
<asrwt>0</asrwt>
<pdfrwt beam="2">  1        2 0.58236804E+00 0.23469468E+04</pdfrwt>
<pdfrwt beam="1">  1       -2 0.55965741E-01 0.23469468E+04</pdfrwt>
<totfact> 0.13694978E+00</totfact>
</mgrwt>
</event>
<event>
 4    1  0.2069825E-008  0.3000689E+04  0.7816531E-02  0.8243534E-01
         -2   -1    0    0    0  501 -0.00000000000E+00  0.00000000000E+00  0.14017997294E+04  0.14017997294E+04  0.00000000000E+00 0. -1.
          2   -1    0    0  501    0  0.00000000000E+00 -0.00000000000E+00 -0.16058170395E+04  0.16058170395E+04  0.00000000000E+00 0.  1.
    2000013    1    1    2    0    0 -0.11310195085E+04 -0.89108935261E+02 -0.35034741163E+03  0.15206540829E+04  0.95000000000E+03 0.  0.
   -2000013    1    1    2    0    0  0.11310195085E+04  0.89108935261E+02  0.14633010159E+03  0.14869626860E+04  0.95000000000E+03 0.  0.
<mgrwt>
<rscale>  0 0.30006892E+04</rscale>
<asrwt>0</asrwt>
<pdfrwt beam="2">  1        2 0.24704877E+00 0.30006892E+04</pdfrwt>
<pdfrwt beam="1">  1       -2 0.21566150E+00 0.30006892E+04</pdfrwt>
<totfact> 0.99793716E-01</totfact>
</mgrwt>
</event>
<event>
 4    1  0.2069825E-008  0.3297208E+04  0.7816531E-02  0.8163606E-01
         -2   -1    0    0    0  501 -0.00000000000E+00  0.00000000000E+00  0.11006970978E+04  0.11006970978E+04  0.00000000000E+00 0. -1.
          2   -1    0    0  501    0  0.00000000000E+00 -0.00000000000E+00 -0.24692485020E+04  0.24692485020E+04  0.00000000000E+00 0.  1.
    2000013    1    1    2    0    0 -0.56538419255E+03 -0.11595153550E+04 -0.26318403672E+03  0.16235458050E+04  0.95000000000E+03 0.  0.
   -2000013    1    1    2    0    0  0.56538419255E+03  0.11595153550E+04 -0.11053673675E+04  0.19463997947E+04  0.95000000000E+03 0.  0.
<mgrwt>
<rscale>  0 0.32972077E+04</rscale>
<asrwt>0</asrwt>
<pdfrwt beam="2">  1        2 0.37988439E+00 0.32972077E+04</pdfrwt>
<pdfrwt beam="1">  1       -2 0.16933801E+00 0.32972077E+04</pdfrwt>
<totfact> 0.65271883E-01</totfact>
</mgrwt>
</event>
<event>
 4    1  0.2069825E-008  0.2596020E+04  0.7816531E-02  0.8369554E-01
          2   -1    0    0  501    0  0.00000000000E+00  0.00000000000E+00  0.26574325880E+04  0.26574325880E+04  0.00000000000E+00 0.  1.
         -2   -1    0    0    0  501 -0.00000000000E+00 -0.00000000000E+00 -0.63400665545E+03  0.63400665545E+03  0.00000000000E+00 0. -1.
    2000013    1    1    2    0    0 -0.81009868763E+03  0.31442498362E+03  0.12208438075E+04  0.17742836741E+04  0.95000000000E+03 0.  0.
   -2000013    1    1    2    0    0  0.81009868763E+03 -0.31442498362E+03  0.80258212502E+03  0.15171555693E+04  0.95000000000E+03 0.  0.
<mgrwt>
<rscale>  0 0.25960200E+04</rscale>
<asrwt>0</asrwt>
<pdfrwt beam="1">  1        2 0.40883578E+00 0.25960200E+04</pdfrwt>
<pdfrwt beam="2">  1       -2 0.97539486E-01 0.25960200E+04</pdfrwt>
<totfact> 0.21815017E+00</totfact>
</mgrwt>
</event>
<event>
 4    1  0.2069825E-008  0.2165421E+04  0.7816531E-02  0.8532960E-01
         -2   -1    0    0    0  501 -0.00000000000E+00  0.00000000000E+00  0.10551971548E+04  0.10551971548E+04  0.00000000000E+00 0. -1.
          2   -1    0    0  501    0  0.00000000000E+00 -0.00000000000E+00 -0.11109413721E+04  0.11109413721E+04  0.00000000000E+00 0.  1.
    2000013    1    1    2    0    0  0.38499239091E+03  0.35382368046E+02 -0.37481711656E+03  0.10919976758E+04  0.95000000000E+03 0.  0.
   -2000013    1    1    2    0    0 -0.38499239091E+03 -0.35382368046E+02  0.31907289929E+03  0.10741408511E+04  0.95000000000E+03 0.  0.
<mgrwt>
<rscale>  0 0.21654211E+04</rscale>
<asrwt>0</asrwt>
<pdfrwt beam="2">  1        2 0.17091406E+00 0.21654211E+04</pdfrwt>
<pdfrwt beam="1">  1       -2 0.16233802E+00 0.21654211E+04</pdfrwt>
<totfact> 0.47600622E+00</totfact>
</mgrwt>
</event>
<event>
 4    1  0.2069825E-008  0.2689620E+04  0.7816531E-02  0.8338381E-01
          2   -1    0    0  501    0  0.00000000000E+00  0.00000000000E+00  0.15837387008E+04  0.15837387008E+04  0.00000000000E+00 0.  1.
         -2   -1    0    0    0  501 -0.00000000000E+00 -0.00000000000E+00 -0.11419265660E+04  0.11419265660E+04  0.00000000000E+00 0. -1.
    2000013    1    1    2    0    0 -0.86228207861E+03  0.16824942817E+03  0.59211425160E+03  0.14230030007E+04  0.95000000000E+03 0.  0.
   -2000013    1    1    2    0    0  0.86228207861E+03 -0.16824942817E+03 -0.15030211682E+03  0.13026622661E+04  0.95000000000E+03 0.  0.
<mgrwt>
<rscale>  0 0.26896195E+04</rscale>
<asrwt>0</asrwt>
<pdfrwt beam="1">  1        2 0.24365211E+00 0.26896195E+04</pdfrwt>
<pdfrwt beam="2">  1       -2 0.17568101E+00 0.26896195E+04</pdfrwt>
<totfact> 0.19434833E+00</totfact>
</mgrwt>
</event>
<event>
 4    1  0.2069825E-008  0.3018319E+04  0.7816531E-02  0.8238519E-01
         -2   -1    0    0    0  501 -0.00000000000E+00  0.00000000000E+00  0.11674377228E+04  0.11674377228E+04  0.00000000000E+00 0. -1.
          2   -1    0    0  501    0  0.00000000000E+00 -0.00000000000E+00 -0.19509075792E+04  0.19509075792E+04  0.00000000000E+00 0.  1.
    2000013    1    1    2    0    0  0.79375925856E+03 -0.24321412112E+03 -0.12473443217E+04  0.17741405598E+04  0.95000000000E+03 0.  0.
   -2000013    1    1    2    0    0 -0.79375925856E+03  0.24321412112E+03  0.46387446523E+03  0.13442047421E+04  0.95000000000E+03 0.  0.
<mgrwt>
<rscale>  0 0.30183195E+04</rscale>
<asrwt>0</asrwt>
<pdfrwt beam="2">  1        2 0.30013963E+00 0.30183195E+04</pdfrwt>
<pdfrwt beam="1">  1       -2 0.17960580E+00 0.30183195E+04</pdfrwt>
<totfact> 0.11097464E+00</totfact>
</mgrwt>
</event>
<event>
 4    1  0.2069825E-008  0.3176046E+04  0.7816531E-02  0.8195172E-01
          2   -1    0    0  501    0  0.00000000000E+00  0.00000000000E+00  0.23642949218E+04  0.23642949218E+04  0.00000000000E+00 0.  1.
         -2   -1    0    0    0  501 -0.00000000000E+00 -0.00000000000E+00 -0.10666250918E+04  0.10666250918E+04  0.00000000000E+00 0. -1.
    2000013    1    1    2    0    0  0.11907615837E+04  0.18528016894E+03  0.20728599472E+03  0.15484538656E+04  0.95000000000E+03 0.  0.
   -2000013    1    1    2    0    0 -0.11907615837E+04 -0.18528016894E+03  0.10903838353E+04  0.18824661480E+04  0.95000000000E+03 0.  0.
<mgrwt>
<rscale>  0 0.31760455E+04</rscale>
<asrwt>0</asrwt>
<pdfrwt beam="1">  1        2 0.36373768E+00 0.31760455E+04</pdfrwt>
<pdfrwt beam="2">  1       -2 0.16409617E+00 0.31760455E+04</pdfrwt>
<totfact> 0.82630367E-01</totfact>
</mgrwt>
</event>
<event>
 4    1  0.2069825E-008  0.2041218E+04  0.7816531E-02  0.8587589E-01
         -2   -1    0    0    0  501 -0.00000000000E+00  0.00000000000E+00  0.15533811295E+04  0.15533811295E+04  0.00000000000E+00 0. -1.
          2   -1    0    0  501    0  0.00000000000E+00 -0.00000000000E+00 -0.67056468729E+03  0.67056468729E+03  0.00000000000E+00 0.  1.
    2000013    1    1    2    0    0  0.26736894884E+03 -0.22097872563E+02  0.72377672869E+03  0.12240617729E+04  0.95000000000E+03 0.  0.
   -2000013    1    1    2    0    0 -0.26736894884E+03  0.22097872563E+02  0.15903971347E+03  0.99988404390E+03  0.95000000000E+03 0.  0.
<mgrwt>
<rscale>  0 0.20412178E+04</rscale>
<asrwt>0</asrwt>
<pdfrwt beam="2">  1        2 0.10316380E+00 0.20412178E+04</pdfrwt>
<pdfrwt beam="1">  1       -2 0.23898171E+00 0.20412178E+04</pdfrwt>
<totfact> 0.30090822E+00</totfact>
</mgrwt>
</event>
<event>
 4    1  0.2069825E-008  0.1961597E+04  0.7816531E-02  0.8624789E-01
          2   -1    0    0  501    0  0.00000000000E+00  0.00000000000E+00  0.79922454185E+03  0.79922454185E+03  0.00000000000E+00 0.  1.
         -2   -1    0    0    0  501 -0.00000000000E+00 -0.00000000000E+00 -0.12036238617E+04  0.12036238617E+04  0.00000000000E+00 0. -1.
    2000013    1    1    2    0    0 -0.18762931532E+03 -0.71701518737E+02 -0.34338209093E+03  0.10299306424E+04  0.95000000000E+03 0.  0.
   -2000013    1    1    2    0    0  0.18762931532E+03  0.71701518737E+02 -0.61017228915E+02  0.97291776116E+03  0.95000000000E+03 0.  0.
<mgrwt>
<rscale>  0 0.19615970E+04</rscale>
<asrwt>0</asrwt>
<pdfrwt beam="1">  1        2 0.12295762E+00 0.19615970E+04</pdfrwt>
<pdfrwt beam="2">  1       -2 0.18517290E+00 0.19615970E+04</pdfrwt>
<totfact> 0.53682796E+00</totfact>
</mgrwt>
</event>
<event>
 4    1  0.2069825E-008  0.3525261E+04  0.7816531E-02  0.8107829E-01
          2   -1    0    0  501    0  0.00000000000E+00  0.00000000000E+00  0.27410813321E+04  0.27410813321E+04  0.00000000000E+00 0.  1.
         -2   -1    0    0    0  501 -0.00000000000E+00 -0.00000000000E+00 -0.11334457488E+04  0.11334457488E+04  0.00000000000E+00 0. -1.
    2000013    1    1    2    0    0 -0.13048732380E+04  0.64192390570E+03  0.11328187544E+04  0.20737740471E+04  0.95000000000E+03 0.  0.
   -2000013    1    1    2    0    0  0.13048732380E+04 -0.64192390570E+03  0.47481682897E+03  0.18007530339E+04  0.95000000000E+03 0.  0.
<mgrwt>
<rscale>  0 0.35252614E+04</rscale>
<asrwt>0</asrwt>
<pdfrwt beam="1">  1        2 0.42170482E+00 0.35252614E+04</pdfrwt>
<pdfrwt beam="2">  1       -2 0.17437627E+00 0.35252614E+04</pdfrwt>
<totfact> 0.40827920E-01</totfact>
</mgrwt>
</event>
<event>
 4    1  0.2069825E-008  0.2927160E+04  0.7816531E-02  0.8264842E-01
         -2   -1    0    0    0  501 -0.00000000000E+00  0.00000000000E+00  0.17952296752E+04  0.17952296752E+04  0.00000000000E+00 0.  1.
          2   -1    0    0  501    0  0.00000000000E+00 -0.00000000000E+00 -0.11931992041E+04  0.11931992041E+04  0.00000000000E+00 0. -1.
    2000013    1    1    2    0    0  0.30414958417E+03 -0.10267557445E+04  0.61207653129E+03  0.15568789319E+04  0.95000000000E+03 0.  0.
   -2000013    1    1    2    0    0 -0.30414958417E+03  0.10267557445E+04 -0.10046060171E+02  0.14315499473E+04  0.95000000000E+03 0.  0.
<mgrwt>
<rscale>  0 0.29271601E+04</rscale>
<asrwt>0</asrwt>
<pdfrwt beam="2">  1        2 0.18356911E+00 0.29271601E+04</pdfrwt>
<pdfrwt beam="1">  1       -2 0.27618918E+00 0.29271601E+04</pdfrwt>
<totfact> 0.73147210E-01</totfact>
</mgrwt>
</event>
<event>
 4    1  0.2069825E-008  0.2076519E+04  0.7816531E-02  0.8571658E-01
          1   -1    0    0  501    0  0.00000000000E+00  0.00000000000E+00  0.12025349349E+04  0.12025349349E+04  0.00000000000E+00 0.  1.
         -1   -1    0    0    0  501 -0.00000000000E+00 -0.00000000000E+00 -0.89642538883E+03  0.89642538883E+03  0.00000000000E+00 0. -1.
    2000013    1    1    2    0    0 -0.24901819058E+03 -0.32785933467E+03  0.23122777838E+03  0.10608808077E+04  0.95000000000E+03 0.  0.
   -2000013    1    1    2    0    0  0.24901819058E+03  0.32785933467E+03  0.74881767713E+02  0.10380795161E+04  0.95000000000E+03 0.  0.
<mgrwt>
<rscale>  0 0.20765191E+04</rscale>
<asrwt>0</asrwt>
<pdfrwt beam="1">  1        1 0.18500538E+00 0.20765191E+04</pdfrwt>
<pdfrwt beam="2">  1       -1 0.13791160E+00 0.20765191E+04</pdfrwt>
<totfact> 0.42748815E+00</totfact>
</mgrwt>
</event>
<event>
 4    1  0.2069825E-008  0.2332896E+04  0.7816531E-02  0.8465062E-01
          2   -1    0    0  501    0  0.00000000000E+00  0.00000000000E+00  0.31528350160E+04  0.31528350160E+04  0.00000000000E+00 0.  1.
         -2   -1    0    0    0  501 -0.00000000000E+00 -0.00000000000E+00 -0.43154853086E+03  0.43154853086E+03  0.00000000000E+00 0. -1.
    2000013    1    1    2    0    0 -0.48370763495E+03  0.46347583483E+03  0.15089597741E+04  0.19047946151E+04  0.95000000000E+03 0.  0.
   -2000013    1    1    2    0    0  0.48370763495E+03 -0.46347583483E+03  0.12123267110E+04  0.16795889318E+04  0.95000000000E+03 0.  0.
<mgrwt>
<rscale>  0 0.23328963E+04</rscale>
<asrwt>0</asrwt>
<pdfrwt beam="1">  1        2 0.48505153E+00 0.23328963E+04</pdfrwt>
<pdfrwt beam="2">  1       -2 0.66392084E-01 0.23328963E+04</pdfrwt>
<totfact> 0.26271225E+00</totfact>
</mgrwt>
</event>
<event>
 4    1  0.2069825E-008  0.3774344E+04  0.7816531E-02  0.8051683E-01
          2   -1    0    0  501    0  0.00000000000E+00  0.00000000000E+00  0.15670646853E+04  0.15670646853E+04  0.00000000000E+00 0.  1.
         -2   -1    0    0    0  501 -0.00000000000E+00 -0.00000000000E+00 -0.22726688213E+04  0.22726688213E+04  0.00000000000E+00 0. -1.
    2000013    1    1    2    0    0 -0.47995795862E+03  0.12064004713E+04  0.65077579761E+03  0.17354454408E+04  0.95000000000E+03 0.  0.
   -2000013    1    1    2    0    0  0.47995795862E+03 -0.12064004713E+04 -0.13563799337E+04  0.21042880658E+04  0.95000000000E+03 0.  0.
<mgrwt>
<rscale>  0 0.37743445E+04</rscale>
<asrwt>0</asrwt>
<pdfrwt beam="1">  1        2 0.24108688E+00 0.37743445E+04</pdfrwt>
<pdfrwt beam="2">  1       -2 0.34964135E+00 0.37743445E+04</pdfrwt>
<totfact> 0.14617311E-01</totfact>
</mgrwt>
</event>
<event>
 4    1  0.2069825E-008  0.2547381E+04  0.7816531E-02  0.8386298E-01
         -2   -1    0    0    0  501 -0.00000000000E+00  0.00000000000E+00  0.46676571468E+03  0.46676571468E+03  0.00000000000E+00 0. -1.
          2   -1    0    0  501    0  0.00000000000E+00 -0.00000000000E+00 -0.34755917744E+04  0.34755917744E+04  0.00000000000E+00 0.  1.
    2000013    1    1    2    0    0  0.16096421628E+03  0.67107243943E+03 -0.74067089378E+03  0.13882870996E+04  0.95000000000E+03 0.  0.
   -2000013    1    1    2    0    0 -0.16096421628E+03 -0.67107243943E+03 -0.22681551660E+04  0.25540703896E+04  0.95000000000E+03 0.  0.
<mgrwt>
<rscale>  0 0.25473807E+04</rscale>
<asrwt>0</asrwt>
<pdfrwt beam="2">  1        2 0.53470642E+00 0.25473807E+04</pdfrwt>
<pdfrwt beam="1">  1       -2 0.71810111E-01 0.25473807E+04</pdfrwt>
<totfact> 0.13216053E+00</totfact>
</mgrwt>
</event>
<event>
 4    1  0.2069825E-008  0.2445568E+04  0.7816531E-02  0.8422638E-01
         -2   -1    0    0    0  501 -0.00000000000E+00  0.00000000000E+00  0.18894894267E+04  0.18894894267E+04  0.00000000000E+00 0. -1.
          2   -1    0    0  501    0  0.00000000000E+00 -0.00000000000E+00 -0.79132497004E+03  0.79132497004E+03  0.00000000000E+00 0.  1.
    2000013    1    1    2    0    0  0.95726041198E+02  0.57042665849E+03  0.11060412538E+04  0.15685589892E+04  0.95000000000E+03 0.  0.
   -2000013    1    1    2    0    0 -0.95726041198E+02 -0.57042665849E+03 -0.78767970703E+01  0.11122554075E+04  0.95000000000E+03 0.  0.
<mgrwt>
<rscale>  0 0.24455676E+04</rscale>
<asrwt>0</asrwt>
<pdfrwt beam="2">  1        2 0.12174230E+00 0.24455676E+04</pdfrwt>
<pdfrwt beam="1">  1       -2 0.29069068E+00 0.24455676E+04</pdfrwt>
<totfact> 0.11347224E+00</totfact>
</mgrwt>
</event>
<event>
 4    1  0.2069825E-008  0.2589570E+04  0.7816531E-02  0.8371753E-01
         -2   -1    0    0    0  501 -0.00000000000E+00  0.00000000000E+00  0.12229575352E+04  0.12229575352E+04  0.00000000000E+00 0. -1.
          2   -1    0    0  501    0  0.00000000000E+00 -0.00000000000E+00 -0.13708308782E+04  0.13708308782E+04  0.00000000000E+00 0.  1.
    2000013    1    1    2    0    0  0.59317762353E+03  0.60334130311E+03  0.16746950670E+03  0.12831315041E+04  0.95000000000E+03 0.  0.
   -2000013    1    1    2    0    0 -0.59317762353E+03 -0.60334130311E+03 -0.31534284970E+03  0.13106569093E+04  0.95000000000E+03 0.  0.
<mgrwt>
<rscale>  0 0.25895698E+04</rscale>
<asrwt>0</asrwt>
<pdfrwt beam="2">  1        2 0.21089706E+00 0.25895698E+04</pdfrwt>
<pdfrwt beam="1">  1       -2 0.18814731E+00 0.25895698E+04</pdfrwt>
<totfact> 0.21241853E+00</totfact>
</mgrwt>
</event>
<event>
 4    1  0.2069825E-008  0.2055745E+04  0.7816531E-02  0.8580993E-01
         -2   -1    0    0    0  501 -0.00000000000E+00  0.00000000000E+00  0.70853627881E+03  0.70853627881E+03  0.00000000000E+00 0. -1.
          2   -1    0    0  501    0  0.00000000000E+00 -0.00000000000E+00 -0.14911332466E+04  0.14911332466E+04  0.00000000000E+00 0.  1.
    2000013    1    1    2    0    0 -0.29001024607E+03  0.12244466919E+03 -0.64206337155E+03  0.11890517284E+04  0.95000000000E+03 0.  0.
   -2000013    1    1    2    0    0  0.29001024607E+03 -0.12244466919E+03 -0.14053359622E+03  0.10106177969E+04  0.95000000000E+03 0.  0.
<mgrwt>
<rscale>  0 0.20557451E+04</rscale>
<asrwt>0</asrwt>
<pdfrwt beam="2">  1        2 0.22940511E+00 0.20557451E+04</pdfrwt>
<pdfrwt beam="1">  1       -2 0.10900558E+00 0.20557451E+04</pdfrwt>
<totfact> 0.79777488E+00</totfact>
</mgrwt>
</event>
<event>
 4    1  0.2069825E-008  0.3446082E+04  0.7816531E-02  0.8126688E-01
          2   -1    0    0  501    0  0.00000000000E+00  0.00000000000E+00  0.16541036537E+04  0.16541036537E+04  0.00000000000E+00 0.  1.
         -2   -1    0    0    0  501 -0.00000000000E+00 -0.00000000000E+00 -0.17948512466E+04  0.17948512466E+04  0.00000000000E+00 0. -1.
    2000013    1    1    2    0    0  0.45230103050E+03  0.12957281992E+04  0.35763004522E+03  0.17070111416E+04  0.95000000000E+03 0.  0.
   -2000013    1    1    2    0    0 -0.45230103050E+03 -0.12957281992E+04 -0.49837763813E+03  0.17419437587E+04  0.95000000000E+03 0.  0.
<mgrwt>
<rscale>  0 0.34460818E+04</rscale>
<asrwt>0</asrwt>
<pdfrwt beam="1">  1        2 0.25447749E+00 0.34460818E+04</pdfrwt>
<pdfrwt beam="2">  1       -2 0.27613096E+00 0.34460818E+04</pdfrwt>
<totfact> 0.38172479E-01</totfact>
</mgrwt>
</event>
<event>
 4    1  0.2069825E-008  0.2523121E+04  0.7816531E-02  0.8394795E-01
         -2   -1    0    0    0  501 -0.00000000000E+00  0.00000000000E+00  0.18094145183E+04  0.18094145183E+04  0.00000000000E+00 0. -1.
          2   -1    0    0  501    0  0.00000000000E+00 -0.00000000000E+00 -0.87958524194E+03  0.87958524194E+03  0.00000000000E+00 0.  1.
    2000013    1    1    2    0    0 -0.13228812014E+03 -0.81260851807E+03  0.57771018429E+03  0.13835034541E+04  0.95000000000E+03 0.  0.
   -2000013    1    1    2    0    0  0.13228812014E+03  0.81260851807E+03  0.35211909203E+03  0.13054963061E+04  0.95000000000E+03 0.  0.
<mgrwt>
<rscale>  0 0.25231205E+04</rscale>
<asrwt>0</asrwt>
<pdfrwt beam="2">  1        2 0.13532081E+00 0.25231205E+04</pdfrwt>
<pdfrwt beam="1">  1       -2 0.27837146E+00 0.25231205E+04</pdfrwt>
<totfact> 0.11612747E+00</totfact>
</mgrwt>
</event>
<event>
 4    1  0.2069825E-008  0.2050182E+04  0.7816531E-02  0.8583512E-01
         -1   -1    0    0    0  501 -0.00000000000E+00  0.00000000000E+00  0.56279619836E+03  0.56279619836E+03  0.00000000000E+00 0. -1.
          1   -1    0    0  501    0  0.00000000000E+00 -0.00000000000E+00 -0.18671263056E+04  0.18671263056E+04  0.00000000000E+00 0.  1.
    2000013    1    1    2    0    0  0.22291875145E+02 -0.28415674916E+03 -0.34521842899E+03  0.10501989095E+04  0.95000000000E+03 0.  0.
   -2000013    1    1    2    0    0 -0.22291875145E+02  0.28415674916E+03 -0.95911167830E+03  0.13797235945E+04  0.95000000000E+03 0.  0.
<mgrwt>
<rscale>  0 0.20501820E+04</rscale>
<asrwt>0</asrwt>
<pdfrwt beam="2">  1        1 0.28725021E+00 0.20501820E+04</pdfrwt>
<pdfrwt beam="1">  1       -1 0.86584029E-01 0.20501820E+04</pdfrwt>
<totfact> 0.44548359E+00</totfact>
</mgrwt>
</event>
<event>
 4    1  0.2069825E-008  0.3847176E+04  0.7816531E-02  0.8036106E-01
          2   -1    0    0  501    0  0.00000000000E+00  0.00000000000E+00  0.26864795478E+04  0.26864795478E+04  0.00000000000E+00 0.  1.
         -2   -1    0    0    0  501 -0.00000000000E+00 -0.00000000000E+00 -0.13773379670E+04  0.13773379670E+04  0.00000000000E+00 0. -1.
    2000013    1    1    2    0    0  0.54981129028E+03  0.15742338360E+04  0.79304701029E+03  0.20765182845E+04  0.95000000000E+03 0.  0.
   -2000013    1    1    2    0    0 -0.54981129028E+03 -0.15742338360E+04  0.51609457052E+03  0.19872992303E+04  0.95000000000E+03 0.  0.
<mgrwt>
<rscale>  0 0.38471757E+04</rscale>
<asrwt>0</asrwt>
<pdfrwt beam="1">  1        2 0.41330454E+00 0.38471757E+04</pdfrwt>
<pdfrwt beam="2">  1       -2 0.21189815E+00 0.38471757E+04</pdfrwt>
<totfact> 0.24051427E-01</totfact>
</mgrwt>
</event>
<event>
 4    1  0.2069825E-008  0.2840234E+04  0.7816531E-02  0.8290885E-01
         -2   -1    0    0    0  501 -0.00000000000E+00  0.00000000000E+00  0.94756975960E+03  0.94756975960E+03  0.00000000000E+00 0. -1.
          2   -1    0    0  501    0  0.00000000000E+00 -0.00000000000E+00 -0.21283206270E+04  0.21283206270E+04  0.00000000000E+00 0.  1.
    2000013    1    1    2    0    0 -0.83508274174E+02 -0.99396035736E+03 -0.96443397905E+03  0.16815361203E+04  0.95000000000E+03 0.  0.
   -2000013    1    1    2    0    0  0.83508274174E+02  0.99396035736E+03 -0.21631688837E+03  0.13943542663E+04  0.95000000000E+03 0.  0.
<mgrwt>
<rscale>  0 0.28402340E+04</rscale>
<asrwt>0</asrwt>
<pdfrwt beam="2">  1        2 0.32743394E+00 0.28402340E+04</pdfrwt>
<pdfrwt beam="1">  1       -2 0.14577996E+00 0.28402340E+04</pdfrwt>
<totfact> 0.15874860E+00</totfact>
</mgrwt>
</event>
<event>
 4    1  0.2069825E-008  0.2484225E+04  0.7816531E-02  0.8408627E-01
          2   -1    0    0  501    0  0.00000000000E+00  0.00000000000E+00  0.24321605448E+04  0.24321605448E+04  0.00000000000E+00 0.  1.
         -2   -1    0    0    0  501 -0.00000000000E+00 -0.00000000000E+00 -0.63435094303E+03  0.63435094303E+03  0.00000000000E+00 0. -1.
    2000013    1    1    2    0    0 -0.56498317966E+03  0.55942374182E+03  0.10105640089E+04  0.15987184031E+04  0.95000000000E+03 0.  0.
   -2000013    1    1    2    0    0  0.56498317966E+03 -0.55942374182E+03  0.78724559286E+03  0.14677930848E+04  0.95000000000E+03 0.  0.
<mgrwt>
<rscale>  0 0.24842249E+04</rscale>
<asrwt>0</asrwt>
<pdfrwt beam="1">  1        2 0.37417854E+00 0.24842249E+04</pdfrwt>
<pdfrwt beam="2">  1       -2 0.97592454E-01 0.24842249E+04</pdfrwt>
<totfact> 0.29764025E+00</totfact>
</mgrwt>
</event>
<event>
 4    1  0.2069825E-008  0.2681064E+04  0.7816531E-02  0.8341175E-01
          2   -1    0    0  501    0  0.00000000000E+00  0.00000000000E+00  0.27952563508E+04  0.27952563508E+04  0.00000000000E+00 0.  1.
         -2   -1    0    0    0  501 -0.00000000000E+00 -0.00000000000E+00 -0.64288412410E+03  0.64288412410E+03  0.00000000000E+00 0. -1.
    2000013    1    1    2    0    0 -0.34918776161E+03  0.84953703388E+03  0.78692314217E+03  0.15379835163E+04  0.95000000000E+03 0.  0.
   -2000013    1    1    2    0    0  0.34918776161E+03 -0.84953703388E+03  0.13654490846E+04  0.19001569586E+04  0.95000000000E+03 0.  0.
<mgrwt>
<rscale>  0 0.26810639E+04</rscale>
<asrwt>0</asrwt>
<pdfrwt beam="1">  1        2 0.43003943E+00 0.26810639E+04</pdfrwt>
<pdfrwt beam="2">  1       -2 0.98905251E-01 0.26810639E+04</pdfrwt>
<totfact> 0.17334940E+00</totfact>
</mgrwt>
</event>
<event>
 4    1  0.2069825E-008  0.2479864E+04  0.7816531E-02  0.8410194E-01
          2   -1    0    0  501    0  0.00000000000E+00  0.00000000000E+00  0.98593733896E+03  0.98593733896E+03  0.00000000000E+00 0.  1.
         -2   -1    0    0    0  501 -0.00000000000E+00 -0.00000000000E+00 -0.15593602901E+04  0.15593602901E+04  0.00000000000E+00 0. -1.
    2000013    1    1    2    0    0  0.77792186626E+02 -0.61148108473E+03 -0.80498127547E+03  0.13894083615E+04  0.95000000000E+03 0.  0.
   -2000013    1    1    2    0    0 -0.77792186626E+02  0.61148108473E+03  0.23155832430E+03  0.11558892675E+04  0.95000000000E+03 0.  0.
<mgrwt>
<rscale>  0 0.24798641E+04</rscale>
<asrwt>0</asrwt>
<pdfrwt beam="1">  1        2 0.15168267E+00 0.24798641E+04</pdfrwt>
<pdfrwt beam="2">  1       -2 0.23990158E+00 0.24798641E+04</pdfrwt>
<totfact> 0.17042223E+00</totfact>
</mgrwt>
</event>
<event>
 4    1  0.2069825E-008  0.2399084E+04  0.7816531E-02  0.8439847E-01
         -2   -1    0    0    0  501 -0.00000000000E+00  0.00000000000E+00  0.19029669227E+04  0.19029669227E+04  0.00000000000E+00 0. -1.
          2   -1    0    0  501    0  0.00000000000E+00 -0.00000000000E+00 -0.75613553831E+03  0.75613553831E+03  0.00000000000E+00 0.  1.
    2000013    1    1    2    0    0 -0.54057648221E+03 -0.35723365439E+03  0.95183066841E+03  0.14927559875E+04  0.95000000000E+03 0.  0.
   -2000013    1    1    2    0    0  0.54057648221E+03  0.35723365439E+03  0.19500071596E+03  0.11663464735E+04  0.95000000000E+03 0.  0.
<mgrwt>
<rscale>  0 0.23990839E+04</rscale>
<asrwt>0</asrwt>
<pdfrwt beam="2">  1        2 0.11632855E+00 0.23990839E+04</pdfrwt>
<pdfrwt beam="1">  1       -2 0.29276414E+00 0.23990839E+04</pdfrwt>
<totfact> 0.11745821E+00</totfact>
</mgrwt>
</event>
<event>
 4    1  0.2069825E-008  0.2208416E+04  0.7816531E-02  0.8514934E-01
         -2   -1    0    0    0  501 -0.00000000000E+00  0.00000000000E+00  0.71481701204E+03  0.71481701204E+03  0.00000000000E+00 0. -1.
          2   -1    0    0  501    0  0.00000000000E+00 -0.00000000000E+00 -0.17057159533E+04  0.17057159533E+04  0.00000000000E+00 0.  1.
    2000013    1    1    2    0    0  0.49948771720E+03 -0.25407244642E+03 -0.55275927785E+03  0.12337275254E+04  0.95000000000E+03 0.  0.
   -2000013    1    1    2    0    0 -0.49948771720E+03  0.25407244642E+03 -0.43813966342E+03  0.11868054400E+04  0.95000000000E+03 0.  0.
<mgrwt>
<rscale>  0 0.22084155E+04</rscale>
<asrwt>0</asrwt>
<pdfrwt beam="2">  1        2 0.26241784E+00 0.22084155E+04</pdfrwt>
<pdfrwt beam="1">  1       -2 0.10997185E+00 0.22084155E+04</pdfrwt>
<totfact> 0.58465077E+00</totfact>
</mgrwt>
</event>
<event>
 4    1  0.2069825E-008  0.2162984E+04  0.7816531E-02  0.8533995E-01
          2   -1    0    0  501    0  0.00000000000E+00  0.00000000000E+00  0.75922104673E+03  0.75922104673E+03  0.00000000000E+00 0.  1.
         -2   -1    0    0    0  501 -0.00000000000E+00 -0.00000000000E+00 -0.15405592274E+04  0.15405592274E+04  0.00000000000E+00 0. -1.
    2000013    1    1    2    0    0 -0.25700493296E+03  0.41416300991E+03 -0.57341864189E+03  0.12119783303E+04  0.95000000000E+03 0.  0.
   -2000013    1    1    2    0    0  0.25700493296E+03 -0.41416300991E+03 -0.20791953881E+03  0.10878019438E+04  0.95000000000E+03 0.  0.
<mgrwt>
<rscale>  0 0.21629840E+04</rscale>
<asrwt>0</asrwt>
<pdfrwt beam="1">  1        2 0.11680324E+00 0.21629840E+04</pdfrwt>
<pdfrwt beam="2">  1       -2 0.23700911E+00 0.21629840E+04</pdfrwt>
<totfact> 0.26151459E+00</totfact>
</mgrwt>
</event>
<event>
 4    1  0.2069825E-008  0.2247780E+04  0.7816531E-02  0.8498800E-01
         -2   -1    0    0    0  501 -0.00000000000E+00  0.00000000000E+00  0.47501134794E+03  0.47501134794E+03  0.00000000000E+00 0. -1.
          2   -1    0    0  501    0  0.00000000000E+00 -0.00000000000E+00 -0.26591544942E+04  0.26591544942E+04  0.00000000000E+00 0.  1.
    2000013    1    1    2    0    0  0.14293635197E+03  0.53060125350E+03 -0.75436502056E+03  0.13317413695E+04  0.95000000000E+03 0.  0.
   -2000013    1    1    2    0    0 -0.14293635197E+03 -0.53060125350E+03 -0.14297781257E+04  0.18024244727E+04  0.95000000000E+03 0.  0.
<mgrwt>
<rscale>  0 0.22477798E+04</rscale>
<asrwt>0</asrwt>
<pdfrwt beam="2">  1        2 0.40910069E+00 0.22477798E+04</pdfrwt>
<pdfrwt beam="1">  1       -2 0.73078670E-01 0.22477798E+04</pdfrwt>
<totfact> 0.43251050E+00</totfact>
</mgrwt>
</event>
<event>
 4    1  0.2069825E-008  0.2540680E+04  0.7816531E-02  0.8388635E-01
         -2   -1    0    0    0  501 -0.00000000000E+00  0.00000000000E+00  0.77650392051E+03  0.77650392051E+03  0.00000000000E+00 0. -1.
          2   -1    0    0  501    0  0.00000000000E+00 -0.00000000000E+00 -0.20782430662E+04  0.20782430662E+04  0.00000000000E+00 0.  1.
    2000013    1    1    2    0    0  0.27072266622E+03 -0.34975649595E+03  0.15597970263E+03  0.10594574253E+04  0.95000000000E+03 0.  0.
   -2000013    1    1    2    0    0 -0.27072266622E+03  0.34975649595E+03 -0.14577188483E+04  0.17952895614E+04  0.95000000000E+03 0.  0.
<mgrwt>
<rscale>  0 0.25406801E+04</rscale>
<asrwt>0</asrwt>
<pdfrwt beam="2">  1        2 0.31972970E+00 0.25406801E+04</pdfrwt>
<pdfrwt beam="1">  1       -2 0.11946214E+00 0.25406801E+04</pdfrwt>
<totfact> 0.28841400E+00</totfact>
</mgrwt>
</event>
<event>
 4    1  0.2069825E-008  0.2256063E+04  0.7816531E-02  0.8495449E-01
          2   -1    0    0  501    0  0.00000000000E+00  0.00000000000E+00  0.18098027751E+04  0.18098027751E+04  0.00000000000E+00 0.  1.
         -2   -1    0    0    0  501 -0.00000000000E+00 -0.00000000000E+00 -0.70309024147E+03  0.70309024147E+03  0.00000000000E+00 0. -1.
    2000013    1    1    2    0    0 -0.40785795506E+03 -0.40308647151E+03  0.77924307778E+03  0.13559301565E+04  0.95000000000E+03 0.  0.
   -2000013    1    1    2    0    0  0.40785795506E+03  0.40308647151E+03  0.32746945583E+03  0.11569628600E+04  0.95000000000E+03 0.  0.
<mgrwt>
<rscale>  0 0.22560626E+04</rscale>
<asrwt>0</asrwt>
<pdfrwt beam="1">  1        2 0.27843119E+00 0.22560626E+04</pdfrwt>
<pdfrwt beam="2">  1       -2 0.10816773E+00 0.22560626E+04</pdfrwt>
<totfact> 0.53055562E+00</totfact>
</mgrwt>
</event>
<event>
 4    1  0.2069825E-008  0.2709745E+04  0.7816531E-02  0.8331850E-01
         -2   -1    0    0    0  501 -0.00000000000E+00  0.00000000000E+00  0.18767766721E+04  0.18767766721E+04  0.00000000000E+00 0.  1.
          2   -1    0    0  501    0  0.00000000000E+00 -0.00000000000E+00 -0.97810198021E+03  0.97810198021E+03  0.00000000000E+00 0. -1.
    2000013    1    1    2    0    0  0.86802922142E+03 -0.78226435353E+02  0.10387166896E+02  0.12892641303E+04  0.95000000000E+03 0.  0.
   -2000013    1    1    2    0    0 -0.86802922142E+03  0.78226435353E+02  0.88828752495E+03  0.15656145220E+04  0.95000000000E+03 0.  0.
<mgrwt>
<rscale>  0 0.27097446E+04</rscale>
<asrwt>0</asrwt>
<pdfrwt beam="2">  1        2 0.15047723E+00 0.27097446E+04</pdfrwt>
<pdfrwt beam="1">  1       -2 0.28873487E+00 0.27097446E+04</pdfrwt>
<totfact> 0.84968151E-01</totfact>
</mgrwt>
</event>
<event>
 4    1  0.2069825E-008  0.2494669E+04  0.7816531E-02  0.8404887E-01
         -1   -1    0    0    0  501 -0.00000000000E+00  0.00000000000E+00  0.18510129820E+04  0.18510129820E+04  0.00000000000E+00 0. -1.
          1   -1    0    0  501    0  0.00000000000E+00 -0.00000000000E+00 -0.84053591677E+03  0.84053591677E+03  0.00000000000E+00 0.  1.
    2000013    1    1    2    0    0  0.46368600423E+03  0.49728959824E+03  0.33661146300E+02  0.11687321027E+04  0.95000000000E+03 0.  0.
   -2000013    1    1    2    0    0 -0.46368600423E+03 -0.49728959824E+03  0.97681591896E+03  0.15228167961E+04  0.95000000000E+03 0.  0.
<mgrwt>
<rscale>  0 0.24946686E+04</rscale>
<asrwt>0</asrwt>
<pdfrwt beam="2">  1        1 0.12931322E+00 0.24946686E+04</pdfrwt>
<pdfrwt beam="1">  1       -1 0.28477123E+00 0.24946686E+04</pdfrwt>
<totfact> 0.75165176E-01</totfact>
</mgrwt>
</event>
<event>
 4    1  0.2069825E-008  0.2744234E+04  0.7816531E-02  0.8320794E-01
          2   -1    0    0  501    0  0.00000000000E+00  0.00000000000E+00  0.10761826131E+04  0.10761826131E+04  0.00000000000E+00 0.  1.
         -2   -1    0    0    0  501 -0.00000000000E+00 -0.00000000000E+00 -0.17494285931E+04  0.17494285931E+04  0.00000000000E+00 0. -1.
    2000013    1    1    2    0    0 -0.81685899986E+03  0.55907829166E+03 -0.35662779056E+03  0.14175720591E+04  0.95000000000E+03 0.  0.
   -2000013    1    1    2    0    0  0.81685899986E+03 -0.55907829166E+03 -0.31661818938E+03  0.14080391471E+04  0.95000000000E+03 0.  0.
<mgrwt>
<rscale>  0 0.27442337E+04</rscale>
<asrwt>0</asrwt>
<pdfrwt beam="1">  1        2 0.16556656E+00 0.27442337E+04</pdfrwt>
<pdfrwt beam="2">  1       -2 0.26914286E+00 0.27442337E+04</pdfrwt>
<totfact> 0.96651266E-01</totfact>
</mgrwt>
</event>
<event>
 4    1  0.2069825E-008  0.2629409E+04  0.7816531E-02  0.8358280E-01
          2   -1    0    0  501    0  0.00000000000E+00  0.00000000000E+00  0.19073463941E+04  0.19073463941E+04  0.00000000000E+00 0.  1.
         -2   -1    0    0    0  501 -0.00000000000E+00 -0.00000000000E+00 -0.90620579509E+03  0.90620579509E+03  0.00000000000E+00 0. -1.
    2000013    1    1    2    0    0 -0.61763576407E+03 -0.31868789337E+03 -0.12602682761E+03  0.11838153030E+04  0.95000000000E+03 0.  0.
   -2000013    1    1    2    0    0  0.61763576407E+03  0.31868789337E+03  0.11271674266E+04  0.16297368861E+04  0.95000000000E+03 0.  0.
<mgrwt>
<rscale>  0 0.26294093E+04</rscale>
<asrwt>0</asrwt>
<pdfrwt beam="1">  1        2 0.29343791E+00 0.26294093E+04</pdfrwt>
<pdfrwt beam="2">  1       -2 0.13941628E+00 0.26294093E+04</pdfrwt>
<totfact> 0.24103435E+00</totfact>
</mgrwt>
</event>
<event>
 4    1  0.2069825E-008  0.2153699E+04  0.7816531E-02  0.8537951E-01
          2   -1    0    0  501    0  0.00000000000E+00  0.00000000000E+00  0.20672367590E+04  0.20672367590E+04  0.00000000000E+00 0.  1.
         -2   -1    0    0    0  501 -0.00000000000E+00 -0.00000000000E+00 -0.56094412244E+03  0.56094412244E+03  0.00000000000E+00 0. -1.
    2000013    1    1    2    0    0 -0.28504976397E+03  0.36391171224E+03  0.49886685184E+03  0.11683549281E+04  0.95000000000E+03 0.  0.
   -2000013    1    1    2    0    0  0.28504976397E+03 -0.36391171224E+03  0.10074257848E+04  0.14598259533E+04  0.95000000000E+03 0.  0.
<mgrwt>
<rscale>  0 0.21536985E+04</rscale>
<asrwt>0</asrwt>
<pdfrwt beam="1">  1        2 0.31803642E+00 0.21536985E+04</pdfrwt>
<pdfrwt beam="2">  1       -2 0.86299097E-01 0.21536985E+04</pdfrwt>
<totfact> 0.65442354E+00</totfact>
</mgrwt>
</event>
<event>
 4    1  0.2069825E-008  0.3032733E+04  0.7816531E-02  0.8234445E-01
          2   -1    0    0  501    0  0.00000000000E+00  0.00000000000E+00  0.22725118773E+04  0.22725118773E+04  0.00000000000E+00 0.  1.
         -2   -1    0    0    0  501 -0.00000000000E+00 -0.00000000000E+00 -0.10118173972E+04  0.10118173972E+04  0.00000000000E+00 0. -1.
    2000013    1    1    2    0    0  0.14380977035E+03 -0.11641600808E+04  0.47372141437E+03  0.15820435905E+04  0.95000000000E+03 0.  0.
   -2000013    1    1    2    0    0 -0.14380977035E+03  0.11641600808E+04  0.78697306576E+03  0.17022856840E+04  0.95000000000E+03 0.  0.
<mgrwt>
<rscale>  0 0.30327328E+04</rscale>
<asrwt>0</asrwt>
<pdfrwt beam="1">  1        2 0.34961721E+00 0.30327328E+04</pdfrwt>
<pdfrwt beam="2">  1       -2 0.15566422E+00 0.30327328E+04</pdfrwt>
<totfact> 0.10886755E+00</totfact>
</mgrwt>
</event>
<event>
 4    1  0.2069825E-008  0.2332900E+04  0.7816531E-02  0.8465061E-01
          2   -1    0    0  501    0  0.00000000000E+00  0.00000000000E+00  0.16104355368E+04  0.16104355368E+04  0.00000000000E+00 0.  1.
         -2   -1    0    0    0  501 -0.00000000000E+00 -0.00000000000E+00 -0.84486819045E+03  0.84486819045E+03  0.00000000000E+00 0. -1.
    2000013    1    1    2    0    0  0.56728880817E+03  0.29124602084E+03  0.14402193517E+03  0.11532055993E+04  0.95000000000E+03 0.  0.
   -2000013    1    1    2    0    0 -0.56728880817E+03 -0.29124602084E+03  0.62154541115E+03  0.13020981279E+04  0.95000000000E+03 0.  0.
<mgrwt>
<rscale>  0 0.23329001E+04</rscale>
<asrwt>0</asrwt>
<pdfrwt beam="1">  1        2 0.24775931E+00 0.23329001E+04</pdfrwt>
<pdfrwt beam="2">  1       -2 0.12997972E+00 0.23329001E+04</pdfrwt>
<totfact> 0.43230943E+00</totfact>
</mgrwt>
</event>
<event>
 4    1  0.2069825E-008  0.3666179E+04  0.7816531E-02  0.8075499E-01
          2   -1    0    0  501    0  0.00000000000E+00  0.00000000000E+00  0.34626841069E+04  0.34626841069E+04  0.00000000000E+00 0.  1.
         -2   -1    0    0    0  501 -0.00000000000E+00 -0.00000000000E+00 -0.97040821153E+03  0.97040821153E+03  0.00000000000E+00 0. -1.
    2000013    1    1    2    0    0 -0.15169742715E+04 -0.19594345826E+02  0.76836070463E+03  0.19479407207E+04  0.95000000000E+03 0.  0.
   -2000013    1    1    2    0    0  0.15169742715E+04  0.19594345826E+02  0.17239151907E+04  0.24851515977E+04  0.95000000000E+03 0.  0.
<mgrwt>
<rscale>  0 0.36661790E+04</rscale>
<asrwt>0</asrwt>
<pdfrwt beam="1">  1        2 0.53272063E+00 0.36661790E+04</pdfrwt>
<pdfrwt beam="2">  1       -2 0.14929357E+00 0.36661790E+04</pdfrwt>
<totfact> 0.21194659E-01</totfact>
</mgrwt>
</event>
<event>
 4    1  0.2069825E-008  0.2485936E+04  0.7816531E-02  0.8408013E-01
          2   -1    0    0  501    0  0.00000000000E+00  0.00000000000E+00  0.21427112343E+04  0.21427112343E+04  0.00000000000E+00 0.  1.
         -2   -1    0    0    0  501 -0.00000000000E+00 -0.00000000000E+00 -0.72103500240E+03  0.72103500240E+03  0.00000000000E+00 0. -1.
    2000013    1    1    2    0    0 -0.44474461978E+03 -0.23445862166E+03 -0.82968369820E+01  0.10748662520E+04  0.95000000000E+03 0.  0.
   -2000013    1    1    2    0    0  0.44474461978E+03  0.23445862166E+03  0.14299730689E+04  0.17888799847E+04  0.95000000000E+03 0.  0.
<mgrwt>
<rscale>  0 0.24859363E+04</rscale>
<asrwt>0</asrwt>
<pdfrwt beam="1">  1        2 0.32964788E+00 0.24859363E+04</pdfrwt>
<pdfrwt beam="2">  1       -2 0.11092846E+00 0.24859363E+04</pdfrwt>
<totfact> 0.31962985E+00</totfact>
</mgrwt>
</event>
<event>
 4    1  0.2069825E-008  0.2267384E+04  0.7816531E-02  0.8490893E-01
         -2   -1    0    0    0  501 -0.00000000000E+00  0.00000000000E+00  0.44767222282E+03  0.44767222282E+03  0.00000000000E+00 0. -1.
          2   -1    0    0  501    0  0.00000000000E+00 -0.00000000000E+00 -0.28709788972E+04  0.28709788972E+04  0.00000000000E+00 0.  1.
    2000013    1    1    2    0    0  0.18054522150E+03  0.54103632986E+03 -0.15624424277E+04  0.19154746741E+04  0.95000000000E+03 0.  0.
   -2000013    1    1    2    0    0 -0.18054522150E+03 -0.54103632986E+03 -0.86086424673E+03  0.14031764460E+04  0.95000000000E+03 0.  0.
<mgrwt>
<rscale>  0 0.22673840E+04</rscale>
<asrwt>0</asrwt>
<pdfrwt beam="2">  1        2 0.44168907E+00 0.22673840E+04</pdfrwt>
<pdfrwt beam="1">  1       -2 0.68872648E-01 0.22673840E+04</pdfrwt>
<totfact> 0.36670415E+00</totfact>
</mgrwt>
</event>
<event>
 4    1  0.2069825E-008  0.2605618E+04  0.7816531E-02  0.8366295E-01
          2   -1    0    0  501    0  0.00000000000E+00  0.00000000000E+00  0.20190825098E+04  0.20190825098E+04  0.00000000000E+00 0.  1.
         -2   -1    0    0    0  501 -0.00000000000E+00 -0.00000000000E+00 -0.84063517312E+03  0.84063517312E+03  0.00000000000E+00 0. -1.
    2000013    1    1    2    0    0 -0.54927240716E+03 -0.62325854874E+03  0.23416223223E+03  0.12835432781E+04  0.95000000000E+03 0.  0.
   -2000013    1    1    2    0    0  0.54927240716E+03  0.62325854874E+03  0.94428510448E+03  0.15761744048E+04  0.95000000000E+03 0.  0.
<mgrwt>
<rscale>  0 0.26056184E+04</rscale>
<asrwt>0</asrwt>
<pdfrwt beam="1">  1        2 0.31062808E+00 0.26056184E+04</pdfrwt>
<pdfrwt beam="2">  1       -2 0.12932849E+00 0.26056184E+04</pdfrwt>
<totfact> 0.25366085E+00</totfact>
</mgrwt>
</event>
<event>
 4    1  0.2069825E-008  0.3176945E+04  0.7816531E-02  0.8194933E-01
         -1   -1    0    0    0  501 -0.00000000000E+00  0.00000000000E+00  0.10006807618E+04  0.10006807618E+04  0.00000000000E+00 0. -1.
          1   -1    0    0  501    0  0.00000000000E+00 -0.00000000000E+00 -0.25215284906E+04  0.25215284906E+04  0.00000000000E+00 0.  1.
    2000013    1    1    2    0    0 -0.36489018462E+03 -0.11267792386E+04 -0.12780337487E+04  0.19846023688E+04  0.95000000000E+03 0.  0.
   -2000013    1    1    2    0    0  0.36489018462E+03  0.11267792386E+04 -0.24281398016E+03  0.15376068836E+04  0.95000000000E+03 0.  0.
<mgrwt>
<rscale>  0 0.31769451E+04</rscale>
<asrwt>0</asrwt>
<pdfrwt beam="2">  1        1 0.38792745E+00 0.31769451E+04</pdfrwt>
<pdfrwt beam="1">  1       -1 0.15395089E+00 0.31769451E+04</pdfrwt>
<totfact> 0.35659651E-01</totfact>
</mgrwt>
</event>
<event>
 4    1  0.2069825E-008  0.2604586E+04  0.7816531E-02  0.8366645E-01
          2   -1    0    0  501    0  0.00000000000E+00  0.00000000000E+00  0.14672908905E+04  0.14672908905E+04  0.00000000000E+00 0.  1.
         -2   -1    0    0    0  501 -0.00000000000E+00 -0.00000000000E+00 -0.11558489882E+04  0.11558489882E+04  0.00000000000E+00 0. -1.
    2000013    1    1    2    0    0  0.43534307815E+03 -0.77462938472E+03  0.92887315811E+02  0.13041097856E+04  0.95000000000E+03 0.  0.
   -2000013    1    1    2    0    0 -0.43534307815E+03  0.77462938472E+03  0.21855458643E+03  0.13190300931E+04  0.95000000000E+03 0.  0.
<mgrwt>
<rscale>  0 0.26045857E+04</rscale>
<asrwt>0</asrwt>
<pdfrwt beam="1">  1        2 0.22573706E+00 0.26045857E+04</pdfrwt>
<pdfrwt beam="2">  1       -2 0.17782292E+00 0.26045857E+04</pdfrwt>
<totfact> 0.21994384E+00</totfact>
</mgrwt>
</event>
<event>
 4    1  0.2069825E-008  0.2159396E+04  0.7816531E-02  0.8535521E-01
          2   -1    0    0  501    0  0.00000000000E+00  0.00000000000E+00  0.24888863664E+04  0.24888863664E+04  0.00000000000E+00 0.  1.
         -2   -1    0    0    0  501 -0.00000000000E+00 -0.00000000000E+00 -0.46838109892E+03  0.46838109892E+03  0.00000000000E+00 0. -1.
    2000013    1    1    2    0    0  0.44782515172E+03  0.20833799181E+03  0.12004846254E+04  0.16086066707E+04  0.95000000000E+03 0.  0.
   -2000013    1    1    2    0    0 -0.44782515172E+03 -0.20833799181E+03  0.82002064209E+03  0.13486607946E+04  0.95000000000E+03 0.  0.
<mgrwt>
<rscale>  0 0.21593956E+04</rscale>
<asrwt>0</asrwt>
<pdfrwt beam="1">  1        2 0.38290558E+00 0.21593956E+04</pdfrwt>
<pdfrwt beam="2">  1       -2 0.72058633E-01 0.21593956E+04</pdfrwt>
<totfact> 0.56531884E+00</totfact>
</mgrwt>
</event>
<event>
 4    1  0.2069825E-008  0.2995221E+04  0.7816531E-02  0.8245097E-01
          2   -1    0    0  501    0  0.00000000000E+00  0.00000000000E+00  0.31696881500E+04  0.31696881500E+04  0.00000000000E+00 0.  1.
         -2   -1    0    0    0  501 -0.00000000000E+00 -0.00000000000E+00 -0.70758908167E+03  0.70758908167E+03  0.00000000000E+00 0. -1.
    2000013    1    1    2    0    0 -0.11010868252E+04  0.23963519402E+03  0.15748074088E+04  0.21569273510E+04  0.95000000000E+03 0.  0.
   -2000013    1    1    2    0    0  0.11010868252E+04 -0.23963519402E+03  0.88729165957E+03  0.17203498807E+04  0.95000000000E+03 0.  0.
<mgrwt>
<rscale>  0 0.29952207E+04</rscale>
<asrwt>0</asrwt>
<pdfrwt beam="1">  1        2 0.48764432E+00 0.29952207E+04</pdfrwt>
<pdfrwt beam="2">  1       -2 0.10885986E+00 0.29952207E+04</pdfrwt>
<totfact> 0.78248769E-01</totfact>
</mgrwt>
</event>
<event>
 4    1  0.2069825E-008  0.2254596E+04  0.7816531E-02  0.8496042E-01
         -2   -1    0    0    0  501 -0.00000000000E+00  0.00000000000E+00  0.63683711155E+03  0.63683711155E+03  0.00000000000E+00 0. -1.
          2   -1    0    0  501    0  0.00000000000E+00 -0.00000000000E+00 -0.19954871753E+04  0.19954871753E+04  0.00000000000E+00 0.  1.
    2000013    1    1    2    0    0 -0.36656444412E+03  0.37503781450E+03 -0.10359067226E+04  0.15002085161E+04  0.95000000000E+03 0.  0.
   -2000013    1    1    2    0    0  0.36656444412E+03 -0.37503781450E+03 -0.32274334116E+03  0.11321157707E+04  0.95000000000E+03 0.  0.
<mgrwt>
<rscale>  0 0.22545956E+04</rscale>
<asrwt>0</asrwt>
<pdfrwt beam="2">  1        2 0.30699802E+00 0.22545956E+04</pdfrwt>
<pdfrwt beam="1">  1       -2 0.97974942E-01 0.22545956E+04</pdfrwt>
<totfact> 0.53008406E+00</totfact>
</mgrwt>
</event>
<event>
 4    1  0.2069825E-008  0.2867619E+04  0.7816531E-02  0.8282577E-01
         -2   -1    0    0    0  501 -0.00000000000E+00  0.00000000000E+00  0.14394469104E+04  0.14394469104E+04  0.00000000000E+00 0. -1.
          2   -1    0    0  501    0  0.00000000000E+00 -0.00000000000E+00 -0.14281940524E+04  0.14281940524E+04  0.00000000000E+00 0.  1.
    2000013    1    1    2    0    0  0.39630711458E+03  0.82474586767E+03 -0.55655619931E+03  0.14316144307E+04  0.95000000000E+03 0.  0.
   -2000013    1    1    2    0    0 -0.39630711458E+03 -0.82474586767E+03  0.56780905730E+03  0.14360265321E+04  0.95000000000E+03 0.  0.
<mgrwt>
<rscale>  0 0.28676189E+04</rscale>
<asrwt>0</asrwt>
<pdfrwt beam="2">  1        2 0.21972216E+00 0.28676189E+04</pdfrwt>
<pdfrwt beam="1">  1       -2 0.22145337E+00 0.28676189E+04</pdfrwt>
<totfact> 0.11675976E+00</totfact>
</mgrwt>
</event>
<event>
 4    1  0.2069825E-008  0.1945958E+04  0.7816531E-02  0.8632312E-01
         -2   -1    0    0    0  501 -0.00000000000E+00  0.00000000000E+00  0.55426891246E+03  0.55426891246E+03  0.00000000000E+00 0. -1.
          2   -1    0    0  501    0  0.00000000000E+00 -0.00000000000E+00 -0.17079938680E+04  0.17079938680E+04  0.00000000000E+00 0.  1.
    2000013    1    1    2    0    0  0.17039203711E+03 -0.12295640530E+03 -0.56986981378E+03  0.11275652214E+04  0.95000000000E+03 0.  0.
   -2000013    1    1    2    0    0 -0.17039203711E+03  0.12295640530E+03 -0.58385514177E+03  0.11346975590E+04  0.95000000000E+03 0.  0.
<mgrwt>
<rscale>  0 0.19459578E+04</rscale>
<asrwt>0</asrwt>
<pdfrwt beam="2">  1        2 0.26276828E+00 0.19459578E+04</pdfrwt>
<pdfrwt beam="1">  1       -2 0.85272141E-01 0.19459578E+04</pdfrwt>
<totfact> 0.10834069E+01</totfact>
</mgrwt>
</event>
<event>
 4    1  0.2069825E-008  0.4199569E+04  0.7816531E-02  0.7965454E-01
         -2   -1    0    0    0  501 -0.00000000000E+00  0.00000000000E+00  0.28449814974E+04  0.28449814974E+04  0.00000000000E+00 0. -1.
          2   -1    0    0  501    0  0.00000000000E+00 -0.00000000000E+00 -0.15497799665E+04  0.15497799665E+04  0.00000000000E+00 0.  1.
    2000013    1    1    2    0    0 -0.87879735179E+03 -0.60627240378E+03 -0.96232643868E+03  0.17229112536E+04  0.95000000000E+03 0.  0.
   -2000013    1    1    2    0    0  0.87879735179E+03  0.60627240378E+03  0.22575279695E+04  0.26718502103E+04  0.95000000000E+03 0.  0.
<mgrwt>
<rscale>  0 0.41995692E+04</rscale>
<asrwt>0</asrwt>
<pdfrwt beam="2">  1        2 0.23842769E+00 0.41995692E+04</pdfrwt>
<pdfrwt beam="1">  1       -2 0.43768946E+00 0.41995692E+04</pdfrwt>
<totfact> 0.38687942E-02</totfact>
</mgrwt>
</event>
<event>
 4    1  0.2069825E-008  0.2166887E+04  0.7816531E-02  0.8532338E-01
          2   -1    0    0  501    0  0.00000000000E+00  0.00000000000E+00  0.12201648268E+04  0.12201648268E+04  0.00000000000E+00 0.  1.
         -2   -1    0    0    0  501 -0.00000000000E+00 -0.00000000000E+00 -0.96204191489E+03  0.96204191489E+03  0.00000000000E+00 0. -1.
    2000013    1    1    2    0    0 -0.28049756035E+03 -0.43247180072E+03  0.20468541581E+03  0.11000485713E+04  0.95000000000E+03 0.  0.
   -2000013    1    1    2    0    0  0.28049756035E+03  0.43247180072E+03  0.53437496123E+02  0.10821581704E+04  0.95000000000E+03 0.  0.
<mgrwt>
<rscale>  0 0.21668869E+04</rscale>
<asrwt>0</asrwt>
<pdfrwt beam="1">  1        2 0.18771767E+00 0.21668869E+04</pdfrwt>
<pdfrwt beam="2">  1       -2 0.14800645E+00 0.21668869E+04</pdfrwt>
<totfact> 0.52421466E+00</totfact>
</mgrwt>
</event>
<event>
 4    1  0.2069825E-008  0.2064996E+04  0.7816531E-02  0.8576822E-01
          2   -1    0    0  501    0  0.00000000000E+00  0.00000000000E+00  0.13948052433E+04  0.13948052433E+04  0.00000000000E+00 0.  1.
         -2   -1    0    0    0  501 -0.00000000000E+00 -0.00000000000E+00 -0.76430185816E+03  0.76430185816E+03  0.00000000000E+00 0. -1.
    2000013    1    1    2    0    0 -0.32298909768E+03  0.39729710260E+02  0.56630243124E+03  0.11528654955E+04  0.95000000000E+03 0.  0.
   -2000013    1    1    2    0    0  0.32298909768E+03 -0.39729710260E+02  0.64200953919E+02  0.10062416060E+04  0.95000000000E+03 0.  0.
<mgrwt>
<rscale>  0 0.20649961E+04</rscale>
<asrwt>0</asrwt>
<pdfrwt beam="1">  1        2 0.21458542E+00 0.20649961E+04</pdfrwt>
<pdfrwt beam="2">  1       -2 0.11758490E+00 0.20649961E+04</pdfrwt>
<totfact> 0.75205087E+00</totfact>
</mgrwt>
</event>
<event>
 4    1  0.2069825E-008  0.2486224E+04  0.7816531E-02  0.8407910E-01
          2   -1    0    0  501    0  0.00000000000E+00  0.00000000000E+00  0.25647693041E+04  0.25647693041E+04  0.00000000000E+00 0.  1.
         -2   -1    0    0    0  501 -0.00000000000E+00 -0.00000000000E+00 -0.60252109291E+03  0.60252109291E+03  0.00000000000E+00 0. -1.
    2000013    1    1    2    0    0 -0.62493204165E+03 -0.38169995305E+03  0.13970455619E+04  0.18413232234E+04  0.95000000000E+03 0.  0.
   -2000013    1    1    2    0    0  0.62493204165E+03  0.38169995305E+03  0.56520264928E+03  0.13259671736E+04  0.95000000000E+03 0.  0.
<mgrwt>
<rscale>  0 0.24862241E+04</rscale>
<asrwt>0</asrwt>
<pdfrwt beam="1">  1        2 0.39457989E+00 0.24862241E+04</pdfrwt>
<pdfrwt beam="2">  1       -2 0.92695554E-01 0.24862241E+04</pdfrwt>
<totfact> 0.28120017E+00</totfact>
</mgrwt>
</event>
<event>
 4    1  0.2069825E-008  0.2625238E+04  0.7816531E-02  0.8359679E-01
         -2   -1    0    0    0  501 -0.00000000000E+00  0.00000000000E+00  0.46144826513E+03  0.46144826513E+03  0.00000000000E+00 0. -1.
          2   -1    0    0  501    0  0.00000000000E+00 -0.00000000000E+00 -0.37338290327E+04  0.37338290327E+04  0.00000000000E+00 0.  1.
    2000013    1    1    2    0    0 -0.76149934302E+03 -0.11238060175E+03 -0.87319898978E+03  0.15024936355E+04  0.95000000000E+03 0.  0.
   -2000013    1    1    2    0    0  0.76149934302E+03  0.11238060175E+03 -0.23991817778E+04  0.26927836623E+04  0.95000000000E+03 0.  0.
<mgrwt>
<rscale>  0 0.26252382E+04</rscale>
<asrwt>0</asrwt>
<pdfrwt beam="2">  1        2 0.57443523E+00 0.26252382E+04</pdfrwt>
<pdfrwt beam="1">  1       -2 0.70992042E-01 0.26252382E+04</pdfrwt>
<totfact> 0.87757443E-01</totfact>
</mgrwt>
</event>
<event>
 4    1  0.2069825E-008  0.2395088E+04  0.7816531E-02  0.8441345E-01
          1   -1    0    0  501    0  0.00000000000E+00  0.00000000000E+00  0.19128579317E+04  0.19128579317E+04  0.00000000000E+00 0.  1.
         -1   -1    0    0    0  501 -0.00000000000E+00 -0.00000000000E+00 -0.74972170541E+03  0.74972170541E+03  0.00000000000E+00 0. -1.
    2000013    1    1    2    0    0  0.70190496339E+03  0.73431292793E+01  0.80078866233E+03  0.14270553531E+04  0.95000000000E+03 0.  0.
   -2000013    1    1    2    0    0 -0.70190496339E+03 -0.73431292793E+01  0.36234756394E+03  0.12355242840E+04  0.95000000000E+03 0.  0.
<mgrwt>
<rscale>  0 0.23950876E+04</rscale>
<asrwt>0</asrwt>
<pdfrwt beam="1">  1        1 0.29428583E+00 0.23950876E+04</pdfrwt>
<pdfrwt beam="2">  1       -1 0.11534180E+00 0.23950876E+04</pdfrwt>
<totfact> 0.20860723E+00</totfact>
</mgrwt>
</event>
<event>
 4    1  0.2069825E-008  0.2373815E+04  0.7816531E-02  0.8449372E-01
         -2   -1    0    0    0  501 -0.00000000000E+00  0.00000000000E+00  0.11317814567E+04  0.11317814567E+04  0.00000000000E+00 0. -1.
          2   -1    0    0  501    0  0.00000000000E+00 -0.00000000000E+00 -0.12447182783E+04  0.12447182783E+04  0.00000000000E+00 0.  1.
    2000013    1    1    2    0    0 -0.56535619911E+03 -0.38883954439E+03  0.13196042861E+03  0.11792952887E+04  0.95000000000E+03 0.  0.
   -2000013    1    1    2    0    0  0.56535619911E+03  0.38883954439E+03 -0.24489725020E+03  0.11972044463E+04  0.95000000000E+03 0.  0.
<mgrwt>
<rscale>  0 0.23738147E+04</rscale>
<asrwt>0</asrwt>
<pdfrwt beam="2">  1        2 0.19149512E+00 0.23738147E+04</pdfrwt>
<pdfrwt beam="1">  1       -2 0.17412022E+00 0.23738147E+04</pdfrwt>
<totfact> 0.31997895E+00</totfact>
</mgrwt>
</event>
<event>
 4    1  0.2069825E-008  0.2691309E+04  0.7816531E-02  0.8337830E-01
          1   -1    0    0  501    0  0.00000000000E+00  0.00000000000E+00  0.14579120590E+04  0.14579120590E+04  0.00000000000E+00 0.  1.
         -1   -1    0    0    0  501 -0.00000000000E+00 -0.00000000000E+00 -0.12420409332E+04  0.12420409332E+04  0.00000000000E+00 0. -1.
    2000013    1    1    2    0    0 -0.28349511777E+03 -0.76876312302E+03  0.59624336601E+03  0.13890184925E+04  0.95000000000E+03 0.  0.
   -2000013    1    1    2    0    0  0.28349511777E+03  0.76876312302E+03 -0.38037224025E+03  0.13109344996E+04  0.95000000000E+03 0.  0.
<mgrwt>
<rscale>  0 0.26913093E+04</rscale>
<asrwt>0</asrwt>
<pdfrwt beam="1">  1        1 0.22429416E+00 0.26913093E+04</pdfrwt>
<pdfrwt beam="2">  1       -1 0.19108322E+00 0.26913093E+04</pdfrwt>
<totfact> 0.10617892E+00</totfact>
</mgrwt>
</event>
<event>
 4    1  0.2069825E-008  0.2810782E+04  0.7816531E-02  0.8299929E-01
         -2   -1    0    0    0  501 -0.00000000000E+00  0.00000000000E+00  0.97151370152E+03  0.97151370152E+03  0.00000000000E+00 0. -1.
          2   -1    0    0  501    0  0.00000000000E+00 -0.00000000000E+00 -0.20330371546E+04  0.20330371546E+04  0.00000000000E+00 0.  1.
    2000013    1    1    2    0    0 -0.76170713557E+03  0.40677431772E+03  0.80461688088E+02  0.12863270149E+04  0.95000000000E+03 0.  0.
   -2000013    1    1    2    0    0  0.76170713557E+03 -0.40677431772E+03 -0.11419851411E+04  0.17182238412E+04  0.95000000000E+03 0.  0.
<mgrwt>
<rscale>  0 0.28107817E+04</rscale>
<asrwt>0</asrwt>
<pdfrwt beam="2">  1        2 0.31277494E+00 0.28107817E+04</pdfrwt>
<pdfrwt beam="1">  1       -2 0.14946365E+00 0.28107817E+04</pdfrwt>
<totfact> 0.16841743E+00</totfact>
</mgrwt>
</event>
<event>
 4    1  0.2069825E-008  0.2351834E+04  0.7816531E-02  0.8457760E-01
          2   -1    0    0  501    0  0.00000000000E+00  0.00000000000E+00  0.60015130135E+03  0.60015130135E+03  0.00000000000E+00 0.  1.
         -2   -1    0    0    0  501 -0.00000000000E+00 -0.00000000000E+00 -0.23040530877E+04  0.23040530877E+04  0.00000000000E+00 0. -1.
    2000013    1    1    2    0    0 -0.43645426590E+03  0.53818847214E+03 -0.83727199544E+03  0.14434900596E+04  0.95000000000E+03 0.  0.
   -2000013    1    1    2    0    0  0.43645426590E+03 -0.53818847214E+03 -0.86662979088E+03  0.14607143294E+04  0.95000000000E+03 0.  0.
<mgrwt>
<rscale>  0 0.23518337E+04</rscale>
<asrwt>0</asrwt>
<pdfrwt beam="1">  1        2 0.92330967E-01 0.23518337E+04</pdfrwt>
<pdfrwt beam="2">  1       -2 0.35446971E+00 0.23518337E+04</pdfrwt>
<totfact> 0.65316630E-01</totfact>
</mgrwt>
</event>
<event>
 4    1  0.2069825E-008  0.2557646E+04  0.7816531E-02  0.8382732E-01
          2   -1    0    0  501    0  0.00000000000E+00  0.00000000000E+00  0.35089990811E+04  0.35089990811E+04  0.00000000000E+00 0.  1.
         -2   -1    0    0    0  501 -0.00000000000E+00 -0.00000000000E+00 -0.46605547895E+03  0.46605547895E+03  0.00000000000E+00 0. -1.
    2000013    1    1    2    0    0  0.70953532327E+03 -0.33808673827E+02  0.77886276902E+03  0.14190527173E+04  0.95000000000E+03 0.  0.
   -2000013    1    1    2    0    0 -0.70953532327E+03  0.33808673827E+02  0.22640808331E+04  0.25560018428E+04  0.95000000000E+03 0.  0.
<mgrwt>
<rscale>  0 0.25576460E+04</rscale>
<asrwt>0</asrwt>
<pdfrwt beam="1">  1        2 0.53984600E+00 0.25576460E+04</pdfrwt>
<pdfrwt beam="2">  1       -2 0.71700845E-01 0.25576460E+04</pdfrwt>
<totfact> 0.12555706E+00</totfact>
</mgrwt>
</event>
<event>
 4    1  0.2069825E-008  0.2702577E+04  0.7816531E-02  0.8334169E-01
          2   -1    0    0  501    0  0.00000000000E+00  0.00000000000E+00  0.70298810451E+03  0.70298810451E+03  0.00000000000E+00 0.  1.
         -2   -1    0    0    0  501 -0.00000000000E+00 -0.00000000000E+00 -0.25974564092E+04  0.25974564092E+04  0.00000000000E+00 0. -1.
    2000013    1    1    2    0    0  0.86603223236E+03  0.36792707717E+03 -0.11856032455E+04  0.17870470664E+04  0.95000000000E+03 0.  0.
   -2000013    1    1    2    0    0 -0.86603223236E+03 -0.36792707717E+03 -0.70886505920E+03  0.15133974474E+04  0.95000000000E+03 0.  0.
<mgrwt>
<rscale>  0 0.27025773E+04</rscale>
<asrwt>0</asrwt>
<pdfrwt beam="1">  1        2 0.10815202E+00 0.27025773E+04</pdfrwt>
<pdfrwt beam="2">  1       -2 0.39960867E+00 0.27025773E+04</pdfrwt>
<totfact> 0.26680707E-01</totfact>
</mgrwt>
</event>
<event>
 4    1  0.2069825E-008  0.2189030E+04  0.7816531E-02  0.8523008E-01
         -2   -1    0    0    0  501 -0.00000000000E+00  0.00000000000E+00  0.65140145562E+03  0.65140145562E+03  0.00000000000E+00 0. -1.
          2   -1    0    0  501    0  0.00000000000E+00 -0.00000000000E+00 -0.18390553857E+04  0.18390553857E+04  0.00000000000E+00 0.  1.
    2000013    1    1    2    0    0  0.19089014148E+03 -0.47332486772E+03 -0.38101988942E+03  0.11437445662E+04  0.95000000000E+03 0.  0.
   -2000013    1    1    2    0    0 -0.19089014148E+03  0.47332486772E+03 -0.80663404071E+03  0.13467122752E+04  0.95000000000E+03 0.  0.
<mgrwt>
<rscale>  0 0.21890302E+04</rscale>
<asrwt>0</asrwt>
<pdfrwt beam="2">  1        2 0.28293159E+00 0.21890302E+04</pdfrwt>
<pdfrwt beam="1">  1       -2 0.10021561E+00 0.21890302E+04</pdfrwt>
<totfact> 0.61714605E+00</totfact>
</mgrwt>
</event>
<event>
 4    1  0.2069825E-008  0.2125464E+04  0.7816531E-02  0.8550108E-01
         -2   -1    0    0    0  501 -0.00000000000E+00  0.00000000000E+00  0.83946625876E+03  0.83946625876E+03  0.00000000000E+00 0. -1.
          2   -1    0    0  501    0  0.00000000000E+00 -0.00000000000E+00 -0.13453781367E+04  0.13453781367E+04  0.00000000000E+00 0.  1.
    2000013    1    1    2    0    0  0.38385749384E+03 -0.27807646745E+03 -0.30145949134E+03  0.11036534430E+04  0.95000000000E+03 0.  0.
   -2000013    1    1    2    0    0 -0.38385749384E+03  0.27807646745E+03 -0.20445238660E+03  0.10811909525E+04  0.95000000000E+03 0.  0.
<mgrwt>
<rscale>  0 0.21254642E+04</rscale>
<asrwt>0</asrwt>
<pdfrwt beam="2">  1        2 0.20698125E+00 0.21254642E+04</pdfrwt>
<pdfrwt beam="1">  1       -2 0.12914866E+00 0.21254642E+04</pdfrwt>
<totfact> 0.63189937E+00</totfact>
</mgrwt>
</event>
<event>
 4    1  0.2069825E-008  0.2323791E+04  0.7816531E-02  0.8468599E-01
          2   -1    0    0  501    0  0.00000000000E+00  0.00000000000E+00  0.12274168265E+04  0.12274168265E+04  0.00000000000E+00 0.  1.
         -2   -1    0    0    0  501 -0.00000000000E+00 -0.00000000000E+00 -0.10998719679E+04  0.10998719679E+04  0.00000000000E+00 0. -1.
    2000013    1    1    2    0    0  0.42624761997E+03 -0.72168942982E+02  0.57503660211E+03  0.11916637460E+04  0.95000000000E+03 0.  0.
   -2000013    1    1    2    0    0 -0.42624761997E+03  0.72168942982E+02 -0.44749174349E+03  0.11356250483E+04  0.95000000000E+03 0.  0.
<mgrwt>
<rscale>  0 0.23237912E+04</rscale>
<asrwt>0</asrwt>
<pdfrwt beam="1">  1        2 0.18883336E+00 0.23237912E+04</pdfrwt>
<pdfrwt beam="2">  1       -2 0.16921107E+00 0.23237912E+04</pdfrwt>
<totfact> 0.35639031E+00</totfact>
</mgrwt>
</event>
<event>
 4    1  0.2069825E-008  0.3276696E+04  0.7816531E-02  0.8168851E-01
         -2   -1    0    0    0  501 -0.00000000000E+00  0.00000000000E+00  0.28680408872E+04  0.28680408872E+04  0.00000000000E+00 0. -1.
          2   -1    0    0  501    0  0.00000000000E+00 -0.00000000000E+00 -0.93589461450E+03  0.93589461450E+03  0.00000000000E+00 0.  1.
    2000013    1    1    2    0    0  0.56605771000E+02 -0.97390666597E+03 -0.91553275564E+02  0.13647638659E+04  0.95000000000E+03 0.  0.
   -2000013    1    1    2    0    0 -0.56605771000E+02  0.97390666597E+03  0.20236995482E+04  0.24391716358E+04  0.95000000000E+03 0.  0.
<mgrwt>
<rscale>  0 0.32766959E+04</rscale>
<asrwt>0</asrwt>
<pdfrwt beam="2">  1        2 0.14398379E+00 0.32766959E+04</pdfrwt>
<pdfrwt beam="1">  1       -2 0.44123705E+00 0.32766959E+04</pdfrwt>
<totfact> 0.91956401E-02</totfact>
</mgrwt>
</event>
<event>
 4    1  0.2069825E-008  0.2421732E+04  0.7816531E-02  0.8431412E-01
          2   -1    0    0  501    0  0.00000000000E+00  0.00000000000E+00  0.14011998421E+04  0.14011998421E+04  0.00000000000E+00 0.  1.
         -2   -1    0    0    0  501 -0.00000000000E+00 -0.00000000000E+00 -0.10463864267E+04  0.10463864267E+04  0.00000000000E+00 0. -1.
    2000013    1    1    2    0    0 -0.29101475103E+03  0.28359299941E+03  0.81548022792E+03  0.13162912203E+04  0.95000000000E+03 0.  0.
   -2000013    1    1    2    0    0  0.29101475103E+03 -0.28359299941E+03 -0.46066681244E+03  0.11312950485E+04  0.95000000000E+03 0.  0.
<mgrwt>
<rscale>  0 0.24217320E+04</rscale>
<asrwt>0</asrwt>
<pdfrwt beam="1">  1        2 0.21556921E+00 0.24217320E+04</pdfrwt>
<pdfrwt beam="2">  1       -2 0.16098253E+00 0.24217320E+04</pdfrwt>
<totfact> 0.32130539E+00</totfact>
</mgrwt>
</event>
<event>
 4    1  0.2069825E-008  0.2740570E+04  0.7816531E-02  0.8321960E-01
          2   -1    0    0  501    0  0.00000000000E+00  0.00000000000E+00  0.12262543266E+04  0.12262543266E+04  0.00000000000E+00 0.  1.
         -2   -1    0    0    0  501 -0.00000000000E+00 -0.00000000000E+00 -0.15312331514E+04  0.15312331514E+04  0.00000000000E+00 0. -1.
    2000013    1    1    2    0    0 -0.85489961623E+03 -0.24864664682E+03  0.27735109810E+03  0.13312032679E+04  0.95000000000E+03 0.  0.
   -2000013    1    1    2    0    0  0.85489961623E+03  0.24864664682E+03 -0.58232992297E+03  0.14262842101E+04  0.95000000000E+03 0.  0.
<mgrwt>
<rscale>  0 0.27405702E+04</rscale>
<asrwt>0</asrwt>
<pdfrwt beam="1">  1        2 0.18865451E+00 0.27405702E+04</pdfrwt>
<pdfrwt beam="2">  1       -2 0.23557433E+00 0.27405702E+04</pdfrwt>
<totfact> 0.12606630E+00</totfact>
</mgrwt>
</event>
<event>
 4    1  0.2069825E-008  0.2560713E+04  0.7816531E-02  0.8381670E-01
          2   -1    0    0  501    0  0.00000000000E+00  0.00000000000E+00  0.15701846347E+04  0.15701846347E+04  0.00000000000E+00 0.  1.
         -2   -1    0    0    0  501 -0.00000000000E+00 -0.00000000000E+00 -0.10440251103E+04  0.10440251103E+04  0.00000000000E+00 0. -1.
    2000013    1    1    2    0    0  0.48510736655E+03 -0.27871680590E+03  0.92767934068E+03  0.14408682015E+04  0.95000000000E+03 0.  0.
   -2000013    1    1    2    0    0 -0.48510736655E+03  0.27871680590E+03 -0.40151981628E+03  0.11733415436E+04  0.95000000000E+03 0.  0.
<mgrwt>
<rscale>  0 0.25607125E+04</rscale>
<asrwt>0</asrwt>
<pdfrwt beam="1">  1        2 0.24156687E+00 0.25607125E+04</pdfrwt>
<pdfrwt beam="2">  1       -2 0.16061925E+00 0.25607125E+04</pdfrwt>
<totfact> 0.25639536E+00</totfact>
</mgrwt>
</event>
<event>
 4    1  0.2069825E-008  0.2623345E+04  0.7816531E-02  0.8360315E-01
          2   -1    0    0  501    0  0.00000000000E+00  0.00000000000E+00  0.13266915448E+04  0.13266915448E+04  0.00000000000E+00 0.  1.
         -2   -1    0    0    0  501 -0.00000000000E+00 -0.00000000000E+00 -0.12968232144E+04  0.12968232144E+04  0.00000000000E+00 0. -1.
    2000013    1    1    2    0    0  0.83330556757E+03 -0.18163843543E+03  0.31594155254E+03  0.13151843045E+04  0.95000000000E+03 0.  0.
   -2000013    1    1    2    0    0 -0.83330556757E+03  0.18163843543E+03 -0.28607322219E+03  0.13083304547E+04  0.95000000000E+03 0.  0.
<mgrwt>
<rscale>  0 0.26233447E+04</rscale>
<asrwt>0</asrwt>
<pdfrwt beam="1">  1        2 0.20410639E+00 0.26233447E+04</pdfrwt>
<pdfrwt beam="2">  1       -2 0.19951126E+00 0.26233447E+04</pdfrwt>
<totfact> 0.18868922E+00</totfact>
</mgrwt>
</event>
<event>
 4    1  0.2069825E-008  0.3401350E+04  0.7816531E-02  0.8137575E-01
          2   -1    0    0  501    0  0.00000000000E+00  0.00000000000E+00  0.26848335773E+04  0.26848335773E+04  0.00000000000E+00 0.  1.
         -2   -1    0    0    0  501 -0.00000000000E+00 -0.00000000000E+00 -0.10772718017E+04  0.10772718017E+04  0.00000000000E+00 0. -1.
    2000013    1    1    2    0    0  0.13296039053E+04 -0.43455562947E+03  0.10050428083E+04  0.19670526649E+04  0.95000000000E+03 0.  0.
   -2000013    1    1    2    0    0 -0.13296039053E+04  0.43455562947E+03  0.60251896734E+03  0.17950527140E+04  0.95000000000E+03 0.  0.
<mgrwt>
<rscale>  0 0.34013500E+04</rscale>
<asrwt>0</asrwt>
<pdfrwt beam="1">  1        2 0.41305132E+00 0.34013500E+04</pdfrwt>
<pdfrwt beam="2">  1       -2 0.16573412E+00 0.34013500E+04</pdfrwt>
<totfact> 0.51347516E-01</totfact>
</mgrwt>
</event>
<event>
 4    1  0.2069825E-008  0.3010312E+04  0.7816531E-02  0.8240792E-01
          2   -1    0    0  501    0  0.00000000000E+00  0.00000000000E+00  0.29985279835E+04  0.29985279835E+04  0.00000000000E+00 0.  1.
         -2   -1    0    0    0  501 -0.00000000000E+00 -0.00000000000E+00 -0.75553533362E+03  0.75553533362E+03  0.00000000000E+00 0. -1.
    2000013    1    1    2    0    0  0.82959595004E+03 -0.41590119391E+03  0.23810849032E+03  0.13492215891E+04  0.95000000000E+03 0.  0.
   -2000013    1    1    2    0    0 -0.82959595004E+03  0.41590119391E+03  0.20048841596E+04  0.24048417280E+04  0.95000000000E+03 0.  0.
<mgrwt>
<rscale>  0 0.30103115E+04</rscale>
<asrwt>0</asrwt>
<pdfrwt beam="1">  1        2 0.46131199E+00 0.30103115E+04</pdfrwt>
<pdfrwt beam="2">  1       -2 0.11623621E+00 0.30103115E+04</pdfrwt>
<totfact> 0.85673397E-01</totfact>
</mgrwt>
</event>
<event>
 4    1  0.2069825E-008  0.2310654E+04  0.7816531E-02  0.8473732E-01
         -2   -1    0    0    0  501 -0.00000000000E+00  0.00000000000E+00  0.24133452822E+04  0.24133452822E+04  0.00000000000E+00 0. -1.
          2   -1    0    0  501    0  0.00000000000E+00 -0.00000000000E+00 -0.55308296366E+03  0.55308296366E+03  0.00000000000E+00 0.  1.
    2000013    1    1    2    0    0 -0.34132610024E+03 -0.41974593239E+03  0.14097830319E+04  0.17840062644E+04  0.95000000000E+03 0.  0.
   -2000013    1    1    2    0    0  0.34132610024E+03  0.41974593239E+03  0.45047928662E+03  0.11824219814E+04  0.95000000000E+03 0.  0.
<mgrwt>
<rscale>  0 0.23106537E+04</rscale>
<asrwt>0</asrwt>
<pdfrwt beam="2">  1        2 0.85089688E-01 0.23106537E+04</pdfrwt>
<pdfrwt beam="1">  1       -2 0.37128389E+00 0.23106537E+04</pdfrwt>
<totfact> 0.56498120E-01</totfact>
</mgrwt>
</event>
<event>
 4    1  0.2069825E-008  0.2220953E+04  0.7816531E-02  0.8509757E-01
          2   -1    0    0  501    0  0.00000000000E+00  0.00000000000E+00  0.22456038527E+04  0.22456038527E+04  0.00000000000E+00 0.  1.
         -2   -1    0    0    0  501 -0.00000000000E+00 -0.00000000000E+00 -0.54914335233E+03  0.54914335233E+03  0.00000000000E+00 0. -1.
    2000013    1    1    2    0    0 -0.16076453673E+02 -0.52752153308E+03  0.56094753416E+03  0.12229879625E+04  0.95000000000E+03 0.  0.
   -2000013    1    1    2    0    0  0.16076453673E+02  0.52752153308E+03  0.11355129662E+04  0.15717592426E+04  0.95000000000E+03 0.  0.
<mgrwt>
<rscale>  0 0.22209533E+04</rscale>
<asrwt>0</asrwt>
<pdfrwt beam="1">  1        2 0.34547751E+00 0.22209533E+04</pdfrwt>
<pdfrwt beam="2">  1       -2 0.84483594E-01 0.22209533E+04</pdfrwt>
<totfact> 0.54250269E+00</totfact>
</mgrwt>
</event>
<event>
 4    1  0.2069825E-008  0.2160638E+04  0.7816531E-02  0.8534992E-01
          2   -1    0    0  501    0  0.00000000000E+00  0.00000000000E+00  0.27671099576E+04  0.27671099576E+04  0.00000000000E+00 0.  1.
         -2   -1    0    0    0  501 -0.00000000000E+00 -0.00000000000E+00 -0.42177201818E+03  0.42177201818E+03  0.00000000000E+00 0. -1.
    2000013    1    1    2    0    0  0.37374987780E+03  0.25449025780E+03  0.81074190517E+03  0.13282532512E+04  0.95000000000E+03 0.  0.
   -2000013    1    1    2    0    0 -0.37374987780E+03 -0.25449025780E+03  0.15345960342E+04  0.18606287246E+04  0.95000000000E+03 0.  0.
<mgrwt>
<rscale>  0 0.21606384E+04</rscale>
<asrwt>0</asrwt>
<pdfrwt beam="1">  1        2 0.42570921E+00 0.21606384E+04</pdfrwt>
<pdfrwt beam="2">  1       -2 0.64888004E-01 0.21606384E+04</pdfrwt>
<totfact> 0.48674981E+00</totfact>
</mgrwt>
</event>
<event>
 4    1  0.2069825E-008  0.2306145E+04  0.7816531E-02  0.8475502E-01
          2   -1    0    0  501    0  0.00000000000E+00  0.00000000000E+00  0.76608523655E+03  0.76608523655E+03  0.00000000000E+00 0.  1.
         -2   -1    0    0    0  501 -0.00000000000E+00 -0.00000000000E+00 -0.17355461857E+04  0.17355461857E+04  0.00000000000E+00 0. -1.
    2000013    1    1    2    0    0  0.58227152158E+03 -0.23932528886E+03 -0.29447946286E+03  0.11770874533E+04  0.95000000000E+03 0.  0.
   -2000013    1    1    2    0    0 -0.58227152158E+03  0.23932528886E+03 -0.67498148624E+03  0.13245439689E+04  0.95000000000E+03 0.  0.
<mgrwt>
<rscale>  0 0.23061451E+04</rscale>
<asrwt>0</asrwt>
<pdfrwt beam="1">  1        2 0.11785927E+00 0.23061451E+04</pdfrwt>
<pdfrwt beam="2">  1       -2 0.26700710E+00 0.23061451E+04</pdfrwt>
<totfact> 0.16708264E+00</totfact>
</mgrwt>
</event>
<event>
 4    1  0.2069825E-008  0.3019882E+04  0.7816531E-02  0.8238076E-01
          1   -1    0    0  501    0  0.00000000000E+00  0.00000000000E+00  0.17622175148E+04  0.17622175148E+04  0.00000000000E+00 0.  1.
         -1   -1    0    0    0  501 -0.00000000000E+00 -0.00000000000E+00 -0.12937800751E+04  0.12937800751E+04  0.00000000000E+00 0. -1.
    2000013    1    1    2    0    0  0.10188663781E+04  0.31758804875E+03  0.72839381183E+03  0.16037482378E+04  0.95000000000E+03 0.  0.
   -2000013    1    1    2    0    0 -0.10188663781E+04 -0.31758804875E+03 -0.25995637214E+03  0.14522493521E+04  0.95000000000E+03 0.  0.
<mgrwt>
<rscale>  0 0.30198821E+04</rscale>
<asrwt>0</asrwt>
<pdfrwt beam="1">  1        1 0.27111039E+00 0.30198821E+04</pdfrwt>
<pdfrwt beam="2">  1       -1 0.19904309E+00 0.30198821E+04</pdfrwt>
<totfact> 0.56123018E-01</totfact>
</mgrwt>
</event>
<event>
 4    1  0.2069825E-008  0.2307620E+04  0.7816531E-02  0.8474923E-01
         -2   -1    0    0    0  501 -0.00000000000E+00  0.00000000000E+00  0.92454987270E+03  0.92454987270E+03  0.00000000000E+00 0. -1.
          2   -1    0    0  501    0  0.00000000000E+00 -0.00000000000E+00 -0.14399194753E+04  0.14399194753E+04  0.00000000000E+00 0.  1.
    2000013    1    1    2    0    0  0.54052527611E+03  0.19927185633E+03 -0.57664204802E+03  0.12517559260E+04  0.95000000000E+03 0.  0.
   -2000013    1    1    2    0    0 -0.54052527611E+03 -0.19927185633E+03  0.61272445414E+02  0.11127134220E+04  0.95000000000E+03 0.  0.
<mgrwt>
<rscale>  0 0.23076199E+04</rscale>
<asrwt>0</asrwt>
<pdfrwt beam="2">  1        2 0.22152607E+00 0.23076199E+04</pdfrwt>
<pdfrwt beam="1">  1       -2 0.14223844E+00 0.23076199E+04</pdfrwt>
<totfact> 0.42878273E+00</totfact>
</mgrwt>
</event>
<event>
 4    1  0.2069825E-008  0.3163741E+04  0.7816531E-02  0.8198459E-01
          1   -1    0    0  501    0  0.00000000000E+00  0.00000000000E+00  0.20698384887E+04  0.20698384887E+04  0.00000000000E+00 0.  1.
         -1   -1    0    0    0  501 -0.00000000000E+00 -0.00000000000E+00 -0.12089421081E+04  0.12089421081E+04  0.00000000000E+00 0. -1.
    2000013    1    1    2    0    0  0.10119249976E+03 -0.12600717756E+04  0.47434523152E+03  0.16509161700E+04  0.95000000000E+03 0.  0.
   -2000013    1    1    2    0    0 -0.10119249976E+03  0.12600717756E+04  0.38655114904E+03  0.16278644269E+04  0.95000000000E+03 0.  0.
<mgrwt>
<rscale>  0 0.31637414E+04</rscale>
<asrwt>0</asrwt>
<pdfrwt beam="1">  1        1 0.31843669E+00 0.31637414E+04</pdfrwt>
<pdfrwt beam="2">  1       -1 0.18599109E+00 0.31637414E+04</pdfrwt>
<totfact> 0.42285748E-01</totfact>
</mgrwt>
</event>
<event>
 4    1  0.2069825E-008  0.3352699E+04  0.7816531E-02  0.8149614E-01
          2   -1    0    0  501    0  0.00000000000E+00  0.00000000000E+00  0.11410647880E+04  0.11410647880E+04  0.00000000000E+00 0.  1.
         -2   -1    0    0    0  501 -0.00000000000E+00 -0.00000000000E+00 -0.24627421346E+04  0.24627421346E+04  0.00000000000E+00 0. -1.
    2000013    1    1    2    0    0  0.87189167972E+03  0.47966351887E+03  0.36869514591E+03  0.14243273160E+04  0.95000000000E+03 0.  0.
   -2000013    1    1    2    0    0 -0.87189167972E+03 -0.47966351887E+03 -0.16903724924E+04  0.21794796066E+04  0.95000000000E+03 0.  0.
<mgrwt>
<rscale>  0 0.33526994E+04</rscale>
<asrwt>0</asrwt>
<pdfrwt beam="1">  1        2 0.17554843E+00 0.33526994E+04</pdfrwt>
<pdfrwt beam="2">  1       -2 0.37888340E+00 0.33526994E+04</pdfrwt>
<totfact> 0.17392006E-01</totfact>
</mgrwt>
</event>
<event>
 4    1  0.2069825E-008  0.2369767E+04  0.7816531E-02  0.8450910E-01
          2   -1    0    0  501    0  0.00000000000E+00  0.00000000000E+00  0.22311190053E+04  0.22311190053E+04  0.00000000000E+00 0.  1.
         -2   -1    0    0    0  501 -0.00000000000E+00 -0.00000000000E+00 -0.62925770987E+03  0.62925770987E+03  0.00000000000E+00 0. -1.
    2000013    1    1    2    0    0 -0.55642997871E+03  0.43138570966E+03  0.89238554903E+03  0.14814047117E+04  0.95000000000E+03 0.  0.
   -2000013    1    1    2    0    0  0.55642997871E+03 -0.43138570966E+03  0.70947574642E+03  0.13789720035E+04  0.95000000000E+03 0.  0.
<mgrwt>
<rscale>  0 0.23697669E+04</rscale>
<asrwt>0</asrwt>
<pdfrwt beam="1">  1        2 0.34324907E+00 0.23697669E+04</pdfrwt>
<pdfrwt beam="2">  1       -2 0.96808879E-01 0.23697669E+04</pdfrwt>
<totfact> 0.39859670E+00</totfact>
</mgrwt>
</event>
<event>
 4    1  0.2069825E-008  0.2598454E+04  0.7816531E-02  0.8368727E-01
         -1   -1    0    0    0  501 -0.00000000000E+00  0.00000000000E+00  0.60225912158E+03  0.60225912158E+03  0.00000000000E+00 0.  1.
          1   -1    0    0  501    0  0.00000000000E+00 -0.00000000000E+00 -0.28027646180E+04  0.28027646180E+04  0.00000000000E+00 0. -1.
    2000013    1    1    2    0    0  0.43103148307E+03 -0.23532632278E+03 -0.20670465547E+04  0.23273048955E+04  0.95000000000E+03 0.  0.
   -2000013    1    1    2    0    0 -0.43103148307E+03  0.23532632278E+03 -0.13345894170E+03  0.10777188440E+04  0.95000000000E+03 0.  0.
<mgrwt>
<rscale>  0 0.25984538E+04</rscale>
<asrwt>0</asrwt>
<pdfrwt beam="2">  1        1 0.43119455E+00 0.25984538E+04</pdfrwt>
<pdfrwt beam="1">  1       -1 0.92655251E-01 0.25984538E+04</pdfrwt>
<totfact> 0.82723689E-01</totfact>
</mgrwt>
</event>
<event>
 4    1  0.2069825E-008  0.2366712E+04  0.7816531E-02  0.8452072E-01
          2   -1    0    0  501    0  0.00000000000E+00  0.00000000000E+00  0.13199032328E+04  0.13199032328E+04  0.00000000000E+00 0.  1.
         -2   -1    0    0    0  501 -0.00000000000E+00 -0.00000000000E+00 -0.10609346760E+04  0.10609346760E+04  0.00000000000E+00 0. -1.
    2000013    1    1    2    0    0 -0.28839336461E+03  0.50390614669E+03  0.53279991232E+03  0.12342884120E+04  0.95000000000E+03 0.  0.
   -2000013    1    1    2    0    0  0.28839336461E+03 -0.50390614669E+03 -0.27383135547E+03  0.11465494968E+04  0.95000000000E+03 0.  0.
<mgrwt>
<rscale>  0 0.23667117E+04</rscale>
<asrwt>0</asrwt>
<pdfrwt beam="1">  1        2 0.20306204E+00 0.23667117E+04</pdfrwt>
<pdfrwt beam="2">  1       -2 0.16322072E+00 0.23667117E+04</pdfrwt>
<totfact> 0.34622021E+00</totfact>
</mgrwt>
</event>
<event>
 4    1  0.2069825E-008  0.3418525E+04  0.7816531E-02  0.8133375E-01
          2   -1    0    0  501    0  0.00000000000E+00  0.00000000000E+00  0.29196994329E+04  0.29196994329E+04  0.00000000000E+00 0.  1.
         -2   -1    0    0    0  501 -0.00000000000E+00 -0.00000000000E+00 -0.10006433893E+04  0.10006433893E+04  0.00000000000E+00 0. -1.
    2000013    1    1    2    0    0  0.11013698521E+04 -0.11003131858E+03 -0.62313137461E+02  0.14599675919E+04  0.95000000000E+03 0.  0.
   -2000013    1    1    2    0    0 -0.11013698521E+04  0.11003131858E+03  0.19813691810E+04  0.24603752303E+04  0.95000000000E+03 0.  0.
<mgrwt>
<rscale>  0 0.34185248E+04</rscale>
<asrwt>0</asrwt>
<pdfrwt beam="1">  1        2 0.44918452E+00 0.34185248E+04</pdfrwt>
<pdfrwt beam="2">  1       -2 0.15394514E+00 0.34185248E+04</pdfrwt>
<totfact> 0.45154834E-01</totfact>
</mgrwt>
</event>
<event>
 4    1  0.2069825E-008  0.2940436E+04  0.7816531E-02  0.8260947E-01
         -2   -1    0    0    0  501 -0.00000000000E+00  0.00000000000E+00  0.29816950623E+04  0.29816950623E+04  0.00000000000E+00 0. -1.
          2   -1    0    0  501    0  0.00000000000E+00 -0.00000000000E+00 -0.72493682612E+03  0.72493682612E+03  0.00000000000E+00 0.  1.
    2000013    1    1    2    0    0 -0.70377545033E+03  0.53276385280E+03  0.20016413099E+04  0.23849958366E+04  0.95000000000E+03 0.  0.
   -2000013    1    1    2    0    0  0.70377545033E+03 -0.53276385280E+03  0.25511692631E+03  0.13216360518E+04  0.95000000000E+03 0.  0.
<mgrwt>
<rscale>  0 0.29404357E+04</rscale>
<asrwt>0</asrwt>
<pdfrwt beam="2">  1        2 0.11152874E+00 0.29404357E+04</pdfrwt>
<pdfrwt beam="1">  1       -2 0.45872231E+00 0.29404357E+04</pdfrwt>
<totfact> 0.10228810E-01</totfact>
</mgrwt>
</event>
<event>
 4    1  0.2069825E-008  0.2325428E+04  0.7816531E-02  0.8467962E-01
          2   -1    0    0  501    0  0.00000000000E+00  0.00000000000E+00  0.29130231820E+04  0.29130231820E+04  0.00000000000E+00 0.  1.
         -2   -1    0    0    0  501 -0.00000000000E+00 -0.00000000000E+00 -0.46408954950E+03  0.46408954950E+03  0.00000000000E+00 0. -1.
    2000013    1    1    2    0    0  0.37286841562E+03 -0.30760457942E+03  0.54990726270E+03  0.11993954436E+04  0.95000000000E+03 0.  0.
   -2000013    1    1    2    0    0 -0.37286841562E+03  0.30760457942E+03  0.18990263698E+04  0.21777172879E+04  0.95000000000E+03 0.  0.
<mgrwt>
<rscale>  0 0.23254278E+04</rscale>
<asrwt>0</asrwt>
<pdfrwt beam="1">  1        2 0.44815740E+00 0.23254278E+04</pdfrwt>
<pdfrwt beam="2">  1       -2 0.71398394E-01 0.23254278E+04</pdfrwt>
<totfact> 0.31779347E+00</totfact>
</mgrwt>
</event>
<event>
 4    1  0.2069825E-008  0.3304794E+04  0.7816531E-02  0.8161677E-01
         -1   -1    0    0    0  501 -0.00000000000E+00  0.00000000000E+00  0.22761340859E+04  0.22761340859E+04  0.00000000000E+00 0.  1.
          1   -1    0    0  501    0  0.00000000000E+00 -0.00000000000E+00 -0.11995845688E+04  0.11995845688E+04  0.00000000000E+00 0. -1.
    2000013    1    1    2    0    0 -0.17704691387E+03 -0.12886732170E+04  0.92597466782E+03  0.18579433133E+04  0.95000000000E+03 0.  0.
   -2000013    1    1    2    0    0  0.17704691387E+03  0.12886732170E+04  0.15057484927E+03  0.16177753414E+04  0.95000000000E+03 0.  0.
<mgrwt>
<rscale>  0 0.33047937E+04</rscale>
<asrwt>0</asrwt>
<pdfrwt beam="2">  1        1 0.18455147E+00 0.33047937E+04</pdfrwt>
<pdfrwt beam="1">  1       -1 0.35017447E+00 0.33047937E+04</pdfrwt>
<totfact> 0.13735675E-01</totfact>
</mgrwt>
</event>
<event>
 4    1  0.2069825E-008  0.2031955E+04  0.7816531E-02  0.8591825E-01
         -2   -1    0    0    0  501 -0.00000000000E+00  0.00000000000E+00  0.66321402794E+03  0.66321402794E+03  0.00000000000E+00 0. -1.
          2   -1    0    0  501    0  0.00000000000E+00 -0.00000000000E+00 -0.15563761084E+04  0.15563761084E+04  0.00000000000E+00 0.  1.
    2000013    1    1    2    0    0 -0.29860559955E+03 -0.17852382210E+03 -0.54831796398E+03  0.11507339609E+04  0.95000000000E+03 0.  0.
   -2000013    1    1    2    0    0  0.29860559955E+03  0.17852382210E+03 -0.34484411651E+03  0.10688561755E+04  0.95000000000E+03 0.  0.
<mgrwt>
<rscale>  0 0.20319552E+04</rscale>
<asrwt>0</asrwt>
<pdfrwt beam="2">  1        2 0.23944248E+00 0.20319552E+04</pdfrwt>
<pdfrwt beam="1">  1       -2 0.10203293E+00 0.20319552E+04</pdfrwt>
<totfact> 0.86088392E+00</totfact>
</mgrwt>
</event>
<event>
 4    1  0.2069825E-008  0.2391828E+04  0.7816531E-02  0.8442569E-01
          2   -1    0    0  501    0  0.00000000000E+00  0.00000000000E+00  0.24328323797E+04  0.24328323797E+04  0.00000000000E+00 0.  1.
         -2   -1    0    0    0  501 -0.00000000000E+00 -0.00000000000E+00 -0.58787873723E+03  0.58787873723E+03  0.00000000000E+00 0. -1.
    2000013    1    1    2    0    0 -0.89981923090E+02  0.55536430223E+03  0.15028534446E+04  0.18648310193E+04  0.95000000000E+03 0.  0.
   -2000013    1    1    2    0    0  0.89981923090E+02 -0.55536430223E+03  0.34210019786E+03  0.11558800976E+04  0.95000000000E+03 0.  0.
<mgrwt>
<rscale>  0 0.23918281E+04</rscale>
<asrwt>0</asrwt>
<pdfrwt beam="1">  1        2 0.37428190E+00 0.23918281E+04</pdfrwt>
<pdfrwt beam="2">  1       -2 0.90442884E-01 0.23918281E+04</pdfrwt>
<totfact> 0.35785253E+00</totfact>
</mgrwt>
</event>
<event>
 4    1  0.2069825E-008  0.4040764E+04  0.7816531E-02  0.7996373E-01
         -2   -1    0    0    0  501 -0.00000000000E+00  0.00000000000E+00  0.23109162037E+04  0.23109162037E+04  0.00000000000E+00 0. -1.
          2   -1    0    0  501    0  0.00000000000E+00 -0.00000000000E+00 -0.17663741327E+04  0.17663741327E+04  0.00000000000E+00 0.  1.
    2000013    1    1    2    0    0  0.15902678156E+04  0.45556768840E+03 -0.39928930229E+03  0.19489549998E+04  0.95000000000E+03 0.  0.
   -2000013    1    1    2    0    0 -0.15902678156E+04 -0.45556768840E+03  0.94383137325E+03  0.21283353367E+04  0.95000000000E+03 0.  0.
<mgrwt>
<rscale>  0 0.40407636E+04</rscale>
<asrwt>0</asrwt>
<pdfrwt beam="2">  1        2 0.27174987E+00 0.40407636E+04</pdfrwt>
<pdfrwt beam="1">  1       -2 0.35552557E+00 0.40407636E+04</pdfrwt>
<totfact> 0.10165540E-01</totfact>
</mgrwt>
</event>
<event>
 4    1  0.2069825E-008  0.2545123E+04  0.7816531E-02  0.8387084E-01
         -2   -1    0    0    0  501 -0.00000000000E+00  0.00000000000E+00  0.23701812704E+04  0.23701812704E+04  0.00000000000E+00 0. -1.
          2   -1    0    0  501    0  0.00000000000E+00 -0.00000000000E+00 -0.68324435858E+03  0.68324435858E+03  0.00000000000E+00 0.  1.
    2000013    1    1    2    0    0  0.80552484377E+03 -0.25907320865E+03  0.87993233900E+03  0.15468581456E+04  0.95000000000E+03 0.  0.
   -2000013    1    1    2    0    0 -0.80552484377E+03  0.25907320865E+03  0.80700457277E+03  0.15065674833E+04  0.95000000000E+03 0.  0.
<mgrwt>
<rscale>  0 0.25451232E+04</rscale>
<asrwt>0</asrwt>
<pdfrwt beam="2">  1        2 0.10511452E+00 0.25451232E+04</pdfrwt>
<pdfrwt beam="1">  1       -2 0.36464327E+00 0.25451232E+04</pdfrwt>
<totfact> 0.47177111E-01</totfact>
</mgrwt>
</event>
<event>
 4    1  0.2069825E-008  0.3317400E+04  0.7816531E-02  0.8158482E-01
          2   -1    0    0  501    0  0.00000000000E+00  0.00000000000E+00  0.23031474774E+04  0.23031474774E+04  0.00000000000E+00 0.  1.
         -2   -1    0    0    0  501 -0.00000000000E+00 -0.00000000000E+00 -0.11945763323E+04  0.11945763323E+04  0.00000000000E+00 0. -1.
    2000013    1    1    2    0    0 -0.12861204593E+04 -0.31654659473E+03  0.23020517050E+03  0.16461476249E+04  0.95000000000E+03 0.  0.
   -2000013    1    1    2    0    0  0.12861204593E+04  0.31654659473E+03  0.87836597460E+03  0.18515761847E+04  0.95000000000E+03 0.  0.
<mgrwt>
<rscale>  0 0.33173999E+04</rscale>
<asrwt>0</asrwt>
<pdfrwt beam="1">  1        2 0.35433038E+00 0.33173999E+04</pdfrwt>
<pdfrwt beam="2">  1       -2 0.18378097E+00 0.33173999E+04</pdfrwt>
<totfact> 0.64311608E-01</totfact>
</mgrwt>
</event>
<event>
 4    1  0.2069825E-008  0.2238976E+04  0.7816531E-02  0.8502378E-01
         -1   -1    0    0    0  501 -0.00000000000E+00  0.00000000000E+00  0.13658439631E+04  0.13658439631E+04  0.00000000000E+00 0.  1.
          1   -1    0    0  501    0  0.00000000000E+00 -0.00000000000E+00 -0.91756732760E+03  0.91756732760E+03  0.00000000000E+00 0. -1.
    2000013    1    1    2    0    0 -0.56025673321E+03 -0.98965482569E+02  0.56337151149E+02  0.11087631165E+04  0.95000000000E+03 0.  0.
   -2000013    1    1    2    0    0  0.56025673321E+03  0.98965482569E+02  0.39193948436E+03  0.11746481742E+04  0.95000000000E+03 0.  0.
<mgrwt>
<rscale>  0 0.22389764E+04</rscale>
<asrwt>0</asrwt>
<pdfrwt beam="2">  1        1 0.14116420E+00 0.22389764E+04</pdfrwt>
<pdfrwt beam="1">  1       -1 0.21012984E+00 0.22389764E+04</pdfrwt>
<totfact> 0.20521969E+00</totfact>
</mgrwt>
</event>
<event>
 4    1  0.2069825E-008  0.2091471E+04  0.7816531E-02  0.8565010E-01
          2   -1    0    0  501    0  0.00000000000E+00  0.00000000000E+00  0.92443721951E+03  0.92443721951E+03  0.00000000000E+00 0.  1.
         -2   -1    0    0    0  501 -0.00000000000E+00 -0.00000000000E+00 -0.11829499119E+04  0.11829499119E+04  0.00000000000E+00 0. -1.
    2000013    1    1    2    0    0 -0.83873490680E+02  0.37476132598E+03 -0.33960831558E+03  0.10794973932E+04  0.95000000000E+03 0.  0.
   -2000013    1    1    2    0    0  0.83873490680E+02 -0.37476132598E+03  0.81095623173E+02  0.10278897382E+04  0.95000000000E+03 0.  0.
<mgrwt>
<rscale>  0 0.20914712E+04</rscale>
<asrwt>0</asrwt>
<pdfrwt beam="1">  1        2 0.14222111E+00 0.20914712E+04</pdfrwt>
<pdfrwt beam="2">  1       -2 0.18199229E+00 0.20914712E+04</pdfrwt>
<totfact> 0.45724640E+00</totfact>
</mgrwt>
</event>
<event>
 4    1  0.2069825E-008  0.2154010E+04  0.7816531E-02  0.8537818E-01
         -2   -1    0    0    0  501 -0.00000000000E+00  0.00000000000E+00  0.46331074020E+03  0.46331074020E+03  0.00000000000E+00 0. -1.
          2   -1    0    0  501    0  0.00000000000E+00 -0.00000000000E+00 -0.25035899888E+04  0.25035899888E+04  0.00000000000E+00 0.  1.
    2000013    1    1    2    0    0 -0.20072020411E+03  0.20974885850E+03 -0.15932987248E+04  0.18776005993E+04  0.95000000000E+03 0.  0.
   -2000013    1    1    2    0    0  0.20072020411E+03 -0.20974885850E+03 -0.44698052384E+03  0.10893001298E+04  0.95000000000E+03 0.  0.
<mgrwt>
<rscale>  0 0.21540103E+04</rscale>
<asrwt>0</asrwt>
<pdfrwt beam="2">  1        2 0.38516769E+00 0.21540103E+04</pdfrwt>
<pdfrwt beam="1">  1       -2 0.71278576E-01 0.21540103E+04</pdfrwt>
<totfact> 0.56801750E+00</totfact>
</mgrwt>
</event>
<event>
 4    1  0.2069825E-008  0.2835601E+04  0.7816531E-02  0.8292300E-01
         -2   -1    0    0    0  501 -0.00000000000E+00  0.00000000000E+00  0.18284909352E+04  0.18284909352E+04  0.00000000000E+00 0. -1.
          2   -1    0    0  501    0  0.00000000000E+00 -0.00000000000E+00 -0.10993533039E+04  0.10993533039E+04  0.00000000000E+00 0.  1.
    2000013    1    1    2    0    0  0.21765172620E+03  0.82307392520E+03 -0.27429532159E+03  0.13048221655E+04  0.95000000000E+03 0.  0.
   -2000013    1    1    2    0    0 -0.21765172620E+03 -0.82307392520E+03  0.10034329529E+04  0.16230220735E+04  0.95000000000E+03 0.  0.
<mgrwt>
<rscale>  0 0.28356005E+04</rscale>
<asrwt>0</asrwt>
<pdfrwt beam="2">  1        2 0.16913128E+00 0.28356005E+04</pdfrwt>
<pdfrwt beam="1">  1       -2 0.28130630E+00 0.28356005E+04</pdfrwt>
<totfact> 0.78224462E-01</totfact>
</mgrwt>
</event>
<event>
 4    1  0.2069825E-008  0.2243387E+04  0.7816531E-02  0.8500583E-01
          1   -1    0    0  501    0  0.00000000000E+00  0.00000000000E+00  0.47098500120E+04  0.47098500120E+04  0.00000000000E+00 0.  1.
         -1   -1    0    0    0  501 -0.00000000000E+00 -0.00000000000E+00 -0.26714147869E+03  0.26714147869E+03  0.00000000000E+00 0. -1.
    2000013    1    1    2    0    0 -0.68505543511E+02  0.58363244119E+03  0.24473432793E+04  0.26902247049E+04  0.95000000000E+03 0.  0.
   -2000013    1    1    2    0    0  0.68505543511E+02 -0.58363244119E+03  0.19953652540E+04  0.22867667858E+04  0.95000000000E+03 0.  0.
<mgrwt>
<rscale>  0 0.22433870E+04</rscale>
<asrwt>0</asrwt>
<pdfrwt beam="1">  1        1 0.72459225E+00 0.22433870E+04</pdfrwt>
<pdfrwt beam="2">  1       -1 0.41098692E-01 0.22433870E+04</pdfrwt>
<totfact> 0.10219611E-01</totfact>
</mgrwt>
</event>
<event>
 4    1  0.2069825E-008  0.2531628E+04  0.7816531E-02  0.8391804E-01
         -2   -1    0    0    0  501 -0.00000000000E+00  0.00000000000E+00  0.62655279810E+03  0.62655279810E+03  0.00000000000E+00 0. -1.
          2   -1    0    0  501    0  0.00000000000E+00 -0.00000000000E+00 -0.25573023679E+04  0.25573023679E+04  0.00000000000E+00 0.  1.
    2000013    1    1    2    0    0 -0.19658984851E+03  0.33173667877E+03 -0.18989815097E+04  0.21580842353E+04  0.95000000000E+03 0.  0.
   -2000013    1    1    2    0    0  0.19658984851E+03 -0.33173667877E+03 -0.31768060099E+02  0.10257709307E+04  0.95000000000E+03 0.  0.
<mgrwt>
<rscale>  0 0.25316279E+04</rscale>
<asrwt>0</asrwt>
<pdfrwt beam="2">  1        2 0.39343113E+00 0.25316279E+04</pdfrwt>
<pdfrwt beam="1">  1       -2 0.96392738E-01 0.25316279E+04</pdfrwt>
<totfact> 0.25826163E+00</totfact>
</mgrwt>
</event>
<event>
 4    1  0.2069825E-008  0.2720657E+04  0.7816531E-02  0.8328333E-01
          2   -1    0    0  501    0  0.00000000000E+00  0.00000000000E+00  0.87987770924E+03  0.87987770924E+03  0.00000000000E+00 0.  1.
         -2   -1    0    0    0  501 -0.00000000000E+00 -0.00000000000E+00 -0.21031264716E+04  0.21031264716E+04  0.00000000000E+00 0. -1.
    2000013    1    1    2    0    0  0.34772960731E+03  0.79518272549E+03 -0.10954990168E+04  0.16899258985E+04  0.95000000000E+03 0.  0.
   -2000013    1    1    2    0    0 -0.34772960731E+03 -0.79518272549E+03 -0.12774974559E+03  0.12930782823E+04  0.95000000000E+03 0.  0.
<mgrwt>
<rscale>  0 0.27206573E+04</rscale>
<asrwt>0</asrwt>
<pdfrwt beam="1">  1        2 0.13536580E+00 0.27206573E+04</pdfrwt>
<pdfrwt beam="2">  1       -2 0.32355791E+00 0.27206573E+04</pdfrwt>
<totfact> 0.60329462E-01</totfact>
</mgrwt>
</event>
<event>
 4    1  0.2069825E-008  0.2907825E+04  0.7816531E-02  0.8270553E-01
         -2   -1    0    0    0  501 -0.00000000000E+00  0.00000000000E+00  0.15925195888E+04  0.15925195888E+04  0.00000000000E+00 0. -1.
          2   -1    0    0  501    0  0.00000000000E+00 -0.00000000000E+00 -0.13273689602E+04  0.13273689602E+04  0.00000000000E+00 0.  1.
    2000013    1    1    2    0    0 -0.44107763806E+02 -0.94043945373E+03  0.70501868437E+03  0.15119269844E+04  0.95000000000E+03 0.  0.
   -2000013    1    1    2    0    0  0.44107763806E+02  0.94043945373E+03 -0.43986805574E+03  0.14079615646E+04  0.95000000000E+03 0.  0.
<mgrwt>
<rscale>  0 0.29078247E+04</rscale>
<asrwt>0</asrwt>
<pdfrwt beam="2">  1        2 0.20421061E+00 0.29078247E+04</pdfrwt>
<pdfrwt beam="1">  1       -2 0.24500301E+00 0.29078247E+04</pdfrwt>
<totfact> 0.94818063E-01</totfact>
</mgrwt>
</event>
<event>
 4    1  0.2069825E-008  0.2636429E+04  0.7816531E-02  0.8355931E-01
          2   -1    0    0  501    0  0.00000000000E+00  0.00000000000E+00  0.22664117323E+04  0.22664117323E+04  0.00000000000E+00 0.  1.
         -2   -1    0    0    0  501 -0.00000000000E+00 -0.00000000000E+00 -0.76671422710E+03  0.76671422710E+03  0.00000000000E+00 0. -1.
    2000013    1    1    2    0    0 -0.69836006198E+03 -0.56037949673E+03  0.53941018780E+03  0.14125138255E+04  0.95000000000E+03 0.  0.
   -2000013    1    1    2    0    0  0.69836006198E+03  0.56037949673E+03  0.96028731736E+03  0.16206121339E+04  0.95000000000E+03 0.  0.
<mgrwt>
<rscale>  0 0.26364295E+04</rscale>
<asrwt>0</asrwt>
<pdfrwt beam="1">  1        2 0.34867873E+00 0.26364295E+04</pdfrwt>
<pdfrwt beam="2">  1       -2 0.11795604E+00 0.26364295E+04</pdfrwt>
<totfact> 0.23144070E+00</totfact>
</mgrwt>
</event>
<event>
 4    1  0.2069825E-008  0.3038577E+04  0.7816531E-02  0.8232800E-01
          2   -1    0    0  501    0  0.00000000000E+00  0.00000000000E+00  0.14297808231E+04  0.14297808231E+04  0.00000000000E+00 0.  1.
         -2   -1    0    0    0  501 -0.00000000000E+00 -0.00000000000E+00 -0.16144000639E+04  0.16144000639E+04  0.00000000000E+00 0. -1.
    2000013    1    1    2    0    0 -0.92495598550E+03  0.36206823514E+03  0.55626452308E+03  0.14827566225E+04  0.95000000000E+03 0.  0.
   -2000013    1    1    2    0    0  0.92495598550E+03 -0.36206823514E+03 -0.74088376391E+03  0.15614242645E+04  0.95000000000E+03 0.  0.
<mgrwt>
<rscale>  0 0.30385775E+04</rscale>
<asrwt>0</asrwt>
<pdfrwt beam="1">  1        2 0.21996628E+00 0.30385775E+04</pdfrwt>
<pdfrwt beam="2">  1       -2 0.24836924E+00 0.30385775E+04</pdfrwt>
<totfact> 0.78086095E-01</totfact>
</mgrwt>
</event>
<event>
 4    1  0.2069825E-008  0.2548404E+04  0.7816531E-02  0.8385941E-01
          2   -1    0    0  501    0  0.00000000000E+00  0.00000000000E+00  0.37783474716E+04  0.37783474716E+04  0.00000000000E+00 0.  1.
         -2   -1    0    0    0  501 -0.00000000000E+00 -0.00000000000E+00 -0.42970921915E+03  0.42970921915E+03  0.00000000000E+00 0. -1.
    2000013    1    1    2    0    0  0.59540422353E+03  0.60036034499E+03  0.18038346315E+04  0.22070926829E+04  0.95000000000E+03 0.  0.
   -2000013    1    1    2    0    0 -0.59540422353E+03 -0.60036034499E+03  0.15448036209E+04  0.20009640078E+04  0.95000000000E+03 0.  0.
<mgrwt>
<rscale>  0 0.25484040E+04</rscale>
<asrwt>0</asrwt>
<pdfrwt beam="1">  1        2 0.58128420E+00 0.25484040E+04</pdfrwt>
<pdfrwt beam="2">  1       -2 0.66109113E-01 0.25484040E+04</pdfrwt>
<totfact> 0.95561415E-01</totfact>
</mgrwt>
</event>
<event>
 4    1  0.2069825E-008  0.2118821E+04  0.7816531E-02  0.8552998E-01
          2   -1    0    0  501    0  0.00000000000E+00  0.00000000000E+00  0.75840204931E+03  0.75840204931E+03  0.00000000000E+00 0.  1.
         -2   -1    0    0    0  501 -0.00000000000E+00 -0.00000000000E+00 -0.14798885743E+04  0.14798885743E+04  0.00000000000E+00 0. -1.
    2000013    1    1    2    0    0 -0.28241476192E+03  0.34612198151E+03 -0.51122530890E+03  0.11676514207E+04  0.95000000000E+03 0.  0.
   -2000013    1    1    2    0    0  0.28241476192E+03 -0.34612198151E+03 -0.21026121611E+03  0.10706392029E+04  0.95000000000E+03 0.  0.
<mgrwt>
<rscale>  0 0.21188209E+04</rscale>
<asrwt>0</asrwt>
<pdfrwt beam="1">  1        2 0.11667724E+00 0.21188209E+04</pdfrwt>
<pdfrwt beam="2">  1       -2 0.22767516E+00 0.21188209E+04</pdfrwt>
<totfact> 0.30056492E+00</totfact>
</mgrwt>
</event>
<event>
 4    1  0.2069825E-008  0.3301098E+04  0.7816531E-02  0.8162616E-01
         -1   -1    0    0    0  501 -0.00000000000E+00  0.00000000000E+00  0.13468613605E+04  0.13468613605E+04  0.00000000000E+00 0. -1.
          1   -1    0    0  501    0  0.00000000000E+00 -0.00000000000E+00 -0.20227111177E+04  0.20227111177E+04  0.00000000000E+00 0.  1.
    2000013    1    1    2    0    0  0.80917270641E+03  0.10707673045E+04 -0.19174692388E+03  0.16554666931E+04  0.95000000000E+03 0.  0.
   -2000013    1    1    2    0    0 -0.80917270641E+03 -0.10707673045E+04 -0.48410283325E+03  0.17141057851E+04  0.95000000000E+03 0.  0.
<mgrwt>
<rscale>  0 0.33010977E+04</rscale>
<asrwt>0</asrwt>
<pdfrwt beam="2">  1        1 0.31118632E+00 0.33010977E+04</pdfrwt>
<pdfrwt beam="1">  1       -1 0.20720944E+00 0.33010977E+04</pdfrwt>
<totfact> 0.32044019E-01</totfact>
</mgrwt>
</event>
<event>
 4    1  0.2069825E-008  0.2112051E+04  0.7816531E-02  0.8555953E-01
         -2   -1    0    0    0  501 -0.00000000000E+00  0.00000000000E+00  0.11319633872E+04  0.11319633872E+04  0.00000000000E+00 0. -1.
          2   -1    0    0  501    0  0.00000000000E+00 -0.00000000000E+00 -0.98518179093E+03  0.98518179093E+03  0.00000000000E+00 0.  1.
    2000013    1    1    2    0    0  0.18892300135E+03 -0.31558837155E+03 -0.20549203770E+03  0.10392376524E+04  0.95000000000E+03 0.  0.
   -2000013    1    1    2    0    0 -0.18892300135E+03  0.31558837155E+03  0.35227363394E+03  0.10779075257E+04  0.95000000000E+03 0.  0.
<mgrwt>
<rscale>  0 0.21120509E+04</rscale>
<asrwt>0</asrwt>
<pdfrwt beam="2">  1        2 0.15156643E+00 0.21120509E+04</pdfrwt>
<pdfrwt beam="1">  1       -2 0.17414821E+00 0.21120509E+04</pdfrwt>
<totfact> 0.47214747E+00</totfact>
</mgrwt>
</event>
<event>
 4    1  0.2069825E-008  0.2056852E+04  0.7816531E-02  0.8580492E-01
         -2   -1    0    0    0  501 -0.00000000000E+00  0.00000000000E+00  0.15375325446E+04  0.15375325446E+04  0.00000000000E+00 0. -1.
          2   -1    0    0  501    0  0.00000000000E+00 -0.00000000000E+00 -0.68789432657E+03  0.68789432657E+03  0.00000000000E+00 0.  1.
    2000013    1    1    2    0    0 -0.29749645033E+03 -0.24339307179E+03  0.51799061943E+03  0.11482850723E+04  0.95000000000E+03 0.  0.
   -2000013    1    1    2    0    0  0.29749645033E+03  0.24339307179E+03  0.33164759864E+03  0.10771417989E+04  0.95000000000E+03 0.  0.
<mgrwt>
<rscale>  0 0.20568519E+04</rscale>
<asrwt>0</asrwt>
<pdfrwt beam="2">  1        2 0.10582990E+00 0.20568519E+04</pdfrwt>
<pdfrwt beam="1">  1       -2 0.23654347E+00 0.20568519E+04</pdfrwt>
<totfact> 0.30136498E+00</totfact>
</mgrwt>
</event>
<event>
 4    1  0.2069825E-008  0.2270411E+04  0.7816531E-02  0.8489680E-01
          2   -1    0    0  501    0  0.00000000000E+00  0.00000000000E+00  0.12962762941E+04  0.12962762941E+04  0.00000000000E+00 0.  1.
         -2   -1    0    0    0  501 -0.00000000000E+00 -0.00000000000E+00 -0.99414865762E+03  0.99414865762E+03  0.00000000000E+00 0. -1.
    2000013    1    1    2    0    0  0.16146785348E+03  0.59952212988E+03  0.17761474981E+03  0.11487147824E+04  0.95000000000E+03 0.  0.
   -2000013    1    1    2    0    0 -0.16146785348E+03 -0.59952212988E+03  0.12451288671E+03  0.11417101694E+04  0.95000000000E+03 0.  0.
<mgrwt>
<rscale>  0 0.22704108E+04</rscale>
<asrwt>0</asrwt>
<pdfrwt beam="1">  1        2 0.19942712E+00 0.22704108E+04</pdfrwt>
<pdfrwt beam="2">  1       -2 0.15294595E+00 0.22704108E+04</pdfrwt>
<totfact> 0.42962895E+00</totfact>
</mgrwt>
</event>
<event>
 4    1  0.2069825E-008  0.2081413E+04  0.7816531E-02  0.8569475E-01
          2   -1    0    0  501    0  0.00000000000E+00  0.00000000000E+00  0.87206368058E+03  0.87206368058E+03  0.00000000000E+00 0.  1.
         -2   -1    0    0    0  501 -0.00000000000E+00 -0.00000000000E+00 -0.12419624517E+04  0.12419624517E+04  0.00000000000E+00 0. -1.
    2000013    1    1    2    0    0  0.19241810760E+03  0.17241097412E+03  0.15770907234E+03  0.99705688084E+03  0.95000000000E+03 0.  0.
   -2000013    1    1    2    0    0 -0.19241810760E+03 -0.17241097412E+03 -0.52760784341E+03  0.11169692514E+04  0.95000000000E+03 0.  0.
<mgrwt>
<rscale>  0 0.20814133E+04</rscale>
<asrwt>0</asrwt>
<pdfrwt beam="1">  1        2 0.13416364E+00 0.20814133E+04</pdfrwt>
<pdfrwt beam="2">  1       -2 0.19107114E+00 0.20814133E+04</pdfrwt>
<totfact> 0.43095021E+00</totfact>
</mgrwt>
</event>
<event>
 4    1  0.2069825E-008  0.2209134E+04  0.7816531E-02  0.8514636E-01
          2   -1    0    0  501    0  0.00000000000E+00  0.00000000000E+00  0.25657969885E+04  0.25657969885E+04  0.00000000000E+00 0.  1.
         -2   -1    0    0    0  501 -0.00000000000E+00 -0.00000000000E+00 -0.47551255810E+03  0.47551255810E+03  0.00000000000E+00 0. -1.
    2000013    1    1    2    0    0  0.12910286084E+03 -0.47963555955E+03  0.67869528741E+03  0.12687967181E+04  0.95000000000E+03 0.  0.
   -2000013    1    1    2    0    0 -0.12910286084E+03  0.47963555955E+03  0.14115891430E+04  0.17725128285E+04  0.95000000000E+03 0.  0.
<mgrwt>
<rscale>  0 0.22091344E+04</rscale>
<asrwt>0</asrwt>
<pdfrwt beam="1">  1        2 0.39473799E+00 0.22091344E+04</pdfrwt>
<pdfrwt beam="2">  1       -2 0.73155780E-01 0.22091344E+04</pdfrwt>
<totfact> 0.49123600E+00</totfact>
</mgrwt>
</event>
<event>
 4    1  0.2069825E-008  0.2434352E+04  0.7816531E-02  0.8426754E-01
         -2   -1    0    0    0  501 -0.00000000000E+00  0.00000000000E+00  0.90181517297E+03  0.90181517297E+03  0.00000000000E+00 0. -1.
          2   -1    0    0  501    0  0.00000000000E+00 -0.00000000000E+00 -0.16428169125E+04  0.16428169125E+04  0.00000000000E+00 0.  1.
    2000013    1    1    2    0    0 -0.74042791377E+03 -0.15835999384E+03 -0.44945979998E+03  0.12953090345E+04  0.95000000000E+03 0.  0.
   -2000013    1    1    2    0    0  0.74042791377E+03  0.15835999384E+03 -0.29154193956E+03  0.12493230510E+04  0.95000000000E+03 0.  0.
<mgrwt>
<rscale>  0 0.24343518E+04</rscale>
<asrwt>0</asrwt>
<pdfrwt beam="2">  1        2 0.25274106E+00 0.24343518E+04</pdfrwt>
<pdfrwt beam="1">  1       -2 0.13874080E+00 0.24343518E+04</pdfrwt>
<totfact> 0.34802435E+00</totfact>
</mgrwt>
</event>
<event>
 4    1  0.2069825E-008  0.3149836E+04  0.7816531E-02  0.8202192E-01
         -2   -1    0    0    0  501 -0.00000000000E+00  0.00000000000E+00  0.15308315275E+04  0.15308315275E+04  0.00000000000E+00 0. -1.
          2   -1    0    0  501    0  0.00000000000E+00 -0.00000000000E+00 -0.16202745087E+04  0.16202745087E+04  0.00000000000E+00 0.  1.
    2000013    1    1    2    0    0  0.10972158328E+04 -0.35159894583E+03 -0.54528594762E+03  0.15897613554E+04  0.95000000000E+03 0.  0.
   -2000013    1    1    2    0    0 -0.10972158328E+04  0.35159894583E+03  0.45584296635E+03  0.15613446808E+04  0.95000000000E+03 0.  0.
<mgrwt>
<rscale>  0 0.31498364E+04</rscale>
<asrwt>0</asrwt>
<pdfrwt beam="2">  1        2 0.24927300E+00 0.31498364E+04</pdfrwt>
<pdfrwt beam="1">  1       -2 0.23551254E+00 0.31498364E+04</pdfrwt>
<totfact> 0.72561806E-01</totfact>
</mgrwt>
</event>
<event>
 4    1  0.2069825E-008  0.2790433E+04  0.7816531E-02  0.8306245E-01
         -2   -1    0    0    0  501 -0.00000000000E+00  0.00000000000E+00  0.58904738508E+03  0.58904738508E+03  0.00000000000E+00 0. -1.
          2   -1    0    0  501    0  0.00000000000E+00 -0.00000000000E+00 -0.33047060880E+04  0.33047060880E+04  0.00000000000E+00 0.  1.
    2000013    1    1    2    0    0 -0.83409398537E+03 -0.57081724452E+03 -0.15675259360E+04  0.20931274837E+04  0.95000000000E+03 0.  0.
   -2000013    1    1    2    0    0  0.83409398537E+03  0.57081724452E+03 -0.11481327669E+04  0.18006259894E+04  0.95000000000E+03 0.  0.
<mgrwt>
<rscale>  0 0.27904326E+04</rscale>
<asrwt>0</asrwt>
<pdfrwt beam="2">  1        2 0.50841632E+00 0.27904326E+04</pdfrwt>
<pdfrwt beam="1">  1       -2 0.90622675E-01 0.27904326E+04</pdfrwt>
<totfact> 0.10013003E+00</totfact>
</mgrwt>
</event>
<event>
 4    1  0.2069825E-008  0.2304157E+04  0.7816531E-02  0.8476284E-01
         -2   -1    0    0    0  501 -0.00000000000E+00  0.00000000000E+00  0.33038180937E+03  0.33038180937E+03  0.00000000000E+00 0. -1.
          2   -1    0    0  501    0  0.00000000000E+00 -0.00000000000E+00 -0.40174288628E+04  0.40174288628E+04  0.00000000000E+00 0.  1.
    2000013    1    1    2    0    0  0.26381896789E+03 -0.39147131563E+03 -0.26914622286E+04  0.28929775607E+04  0.95000000000E+03 0.  0.
   -2000013    1    1    2    0    0 -0.26381896789E+03  0.39147131563E+03 -0.99558482482E+03  0.14548331115E+04  0.95000000000E+03 0.  0.
<mgrwt>
<rscale>  0 0.23041575E+04</rscale>
<asrwt>0</asrwt>
<pdfrwt beam="2">  1        2 0.61806599E+00 0.23041575E+04</pdfrwt>
<pdfrwt beam="1">  1       -2 0.50827970E-01 0.23041575E+04</pdfrwt>
<totfact> 0.11046652E+00</totfact>
</mgrwt>
</event>
<event>
 4    1  0.2069825E-008  0.2793871E+04  0.7816531E-02  0.8305174E-01
          2   -1    0    0  501    0  0.00000000000E+00  0.00000000000E+00  0.12045569104E+04  0.12045569104E+04  0.00000000000E+00 0.  1.
         -2   -1    0    0    0  501 -0.00000000000E+00 -0.00000000000E+00 -0.16200391972E+04  0.16200391972E+04  0.00000000000E+00 0. -1.
    2000013    1    1    2    0    0  0.15060378162E+03  0.91357516803E+03 -0.65030891791E+03  0.14773972977E+04  0.95000000000E+03 0.  0.
   -2000013    1    1    2    0    0 -0.15060378162E+03 -0.91357516803E+03  0.23482663105E+03  0.13471988099E+04  0.95000000000E+03 0.  0.
<mgrwt>
<rscale>  0 0.27938714E+04</rscale>
<asrwt>0</asrwt>
<pdfrwt beam="1">  1        2 0.18531645E+00 0.27938714E+04</pdfrwt>
<pdfrwt beam="2">  1       -2 0.24923680E+00 0.27938714E+04</pdfrwt>
<totfact> 0.10644658E+00</totfact>
</mgrwt>
</event>
<event>
 4    1  0.2069825E-008  0.3343189E+04  0.7816531E-02  0.8151992E-01
          2   -1    0    0  501    0  0.00000000000E+00  0.00000000000E+00  0.29359422430E+04  0.29359422430E+04  0.00000000000E+00 0.  1.
         -2   -1    0    0    0  501 -0.00000000000E+00 -0.00000000000E+00 -0.95173154538E+03  0.95173154538E+03  0.00000000000E+00 0. -1.
    2000013    1    1    2    0    0 -0.13414500246E+04 -0.20279000052E+03  0.72919294939E+03  0.18096503282E+04  0.95000000000E+03 0.  0.
   -2000013    1    1    2    0    0  0.13414500246E+04  0.20279000052E+03  0.12550177482E+04  0.20780234602E+04  0.95000000000E+03 0.  0.
<mgrwt>
<rscale>  0 0.33431894E+04</rscale>
<asrwt>0</asrwt>
<pdfrwt beam="1">  1        2 0.45168342E+00 0.33431894E+04</pdfrwt>
<pdfrwt beam="2">  1       -2 0.14642024E+00 0.33431894E+04</pdfrwt>
<totfact> 0.50708472E-01</totfact>
</mgrwt>
</event>
<event>
 4    1  0.2069825E-008  0.2101146E+04  0.7816531E-02  0.8560739E-01
          2   -1    0    0  501    0  0.00000000000E+00  0.00000000000E+00  0.15006468021E+04  0.15006468021E+04  0.00000000000E+00 0.  1.
         -2   -1    0    0    0  501 -0.00000000000E+00 -0.00000000000E+00 -0.73548500198E+03  0.73548500198E+03  0.00000000000E+00 0. -1.
    2000013    1    1    2    0    0  0.11167738667E+03  0.31862591227E+03  0.68297337845E+02  0.10105240408E+04  0.95000000000E+03 0.  0.
   -2000013    1    1    2    0    0 -0.11167738667E+03 -0.31862591227E+03  0.69686446227E+03  0.12256077633E+04  0.95000000000E+03 0.  0.
<mgrwt>
<rscale>  0 0.21011456E+04</rscale>
<asrwt>0</asrwt>
<pdfrwt beam="1">  1        2 0.23086874E+00 0.21011456E+04</pdfrwt>
<pdfrwt beam="2">  1       -2 0.11315154E+00 0.21011456E+04</pdfrwt>
<totfact> 0.71702758E+00</totfact>
</mgrwt>
</event>
<event>
 4    1  0.2069825E-008  0.2414980E+04  0.7816531E-02  0.8433917E-01
         -2   -1    0    0    0  501 -0.00000000000E+00  0.00000000000E+00  0.73542993446E+03  0.73542993446E+03  0.00000000000E+00 0. -1.
          2   -1    0    0  501    0  0.00000000000E+00 -0.00000000000E+00 -0.19825568667E+04  0.19825568667E+04  0.00000000000E+00 0.  1.
    2000013    1    1    2    0    0  0.13739336326E+03  0.71500841090E+03 -0.80299634129E+03  0.14413247684E+04  0.95000000000E+03 0.  0.
   -2000013    1    1    2    0    0 -0.13739336326E+03 -0.71500841090E+03 -0.44413059091E+03  0.12766620327E+04  0.95000000000E+03 0.  0.
<mgrwt>
<rscale>  0 0.24149796E+04</rscale>
<asrwt>0</asrwt>
<pdfrwt beam="2">  1        2 0.30500875E+00 0.24149796E+04</pdfrwt>
<pdfrwt beam="1">  1       -2 0.11314307E+00 0.24149796E+04</pdfrwt>
<totfact> 0.37647629E+00</totfact>
</mgrwt>
</event>
<event>
 4    1  0.2069825E-008  0.2612871E+04  0.7816531E-02  0.8363842E-01
         -2   -1    0    0    0  501 -0.00000000000E+00  0.00000000000E+00  0.24185997123E+04  0.24185997123E+04  0.00000000000E+00 0. -1.
          2   -1    0    0  501    0  0.00000000000E+00 -0.00000000000E+00 -0.70568699278E+03  0.70568699278E+03  0.00000000000E+00 0.  1.
    2000013    1    1    2    0    0 -0.59302876632E+03  0.59188793030E+03  0.12388278912E+04  0.17717813024E+04  0.95000000000E+03 0.  0.
   -2000013    1    1    2    0    0  0.59302876632E+03 -0.59188793030E+03  0.47408482837E+03  0.13525054027E+04  0.95000000000E+03 0.  0.
<mgrwt>
<rscale>  0 0.26128715E+04</rscale>
<asrwt>0</asrwt>
<pdfrwt beam="2">  1        2 0.10856723E+00 0.26128715E+04</pdfrwt>
<pdfrwt beam="1">  1       -2 0.37209226E+00 0.26128715E+04</pdfrwt>
<totfact> 0.40346568E-01</totfact>
</mgrwt>
</event>
<event>
 4    1  0.2069825E-008  0.2068883E+04  0.7816531E-02  0.8575076E-01
          2   -1    0    0  501    0  0.00000000000E+00  0.00000000000E+00  0.11071569862E+04  0.11071569862E+04  0.00000000000E+00 0.  1.
         -2   -1    0    0    0  501 -0.00000000000E+00 -0.00000000000E+00 -0.96650134098E+03  0.96650134098E+03  0.00000000000E+00 0. -1.
    2000013    1    1    2    0    0 -0.61433142543E+02  0.36820514313E+03  0.23870266768E+03  0.10482499807E+04  0.95000000000E+03 0.  0.
   -2000013    1    1    2    0    0  0.61433142543E+02 -0.36820514313E+03 -0.98047022467E+02  0.10254083465E+04  0.95000000000E+03 0.  0.
<mgrwt>
<rscale>  0 0.20688825E+04</rscale>
<asrwt>0</asrwt>
<pdfrwt beam="1">  1        2 0.17033184E+00 0.20688825E+04</pdfrwt>
<pdfrwt beam="2">  1       -2 0.14869251E+00 0.20688825E+04</pdfrwt>
<totfact> 0.61098787E+00</totfact>
</mgrwt>
</event>
<event>
 4    1  0.2069825E-008  0.2337490E+04  0.7816531E-02  0.8463284E-01
         -2   -1    0    0    0  501 -0.00000000000E+00  0.00000000000E+00  0.54168394920E+03  0.54168394920E+03  0.00000000000E+00 0. -1.
          2   -1    0    0  501    0  0.00000000000E+00 -0.00000000000E+00 -0.25217013841E+04  0.25217013841E+04  0.00000000000E+00 0.  1.
    2000013    1    1    2    0    0  0.38419685547E+03 -0.44923782403E+02 -0.17241942571E+04  0.20062330887E+04  0.95000000000E+03 0.  0.
   -2000013    1    1    2    0    0 -0.38419685547E+03  0.44923782403E+02 -0.25582317781E+03  0.10571522446E+04  0.95000000000E+03 0.  0.
<mgrwt>
<rscale>  0 0.23374902E+04</rscale>
<asrwt>0</asrwt>
<pdfrwt beam="2">  1        2 0.38795406E+00 0.23374902E+04</pdfrwt>
<pdfrwt beam="1">  1       -2 0.83335993E-01 0.23374902E+04</pdfrwt>
<totfact> 0.38518481E+00</totfact>
</mgrwt>
</event>
<event>
 4    1  0.2069825E-008  0.2654055E+04  0.7816531E-02  0.8350068E-01
          2   -1    0    0  501    0  0.00000000000E+00  0.00000000000E+00  0.31147798125E+04  0.31147798125E+04  0.00000000000E+00 0.  1.
         -2   -1    0    0    0  501 -0.00000000000E+00 -0.00000000000E+00 -0.56536947533E+03  0.56536947533E+03  0.00000000000E+00 0. -1.
    2000013    1    1    2    0    0  0.47049790810E+02 -0.46281440730E+03  0.23858066652E+04  0.26097862560E+04  0.95000000000E+03 0.  0.
   -2000013    1    1    2    0    0 -0.47049790810E+02  0.46281440730E+03  0.16360367200E+03  0.10703630318E+04  0.95000000000E+03 0.  0.
<mgrwt>
<rscale>  0 0.26540546E+04</rscale>
<asrwt>0</asrwt>
<pdfrwt beam="1">  1        2 0.47919689E+00 0.26540546E+04</pdfrwt>
<pdfrwt beam="2">  1       -2 0.86979921E-01 0.26540546E+04</pdfrwt>
<totfact> 0.14820428E+00</totfact>
</mgrwt>
</event>
<event>
 4    1  0.2069825E-008  0.3833681E+04  0.7816531E-02  0.8038965E-01
         -2   -1    0    0    0  501 -0.00000000000E+00  0.00000000000E+00  0.14217570626E+04  0.14217570626E+04  0.00000000000E+00 0. -1.
          2   -1    0    0  501    0  0.00000000000E+00 -0.00000000000E+00 -0.25843218828E+04  0.25843218828E+04  0.00000000000E+00 0.  1.
    2000013    1    1    2    0    0 -0.55340065926E+03 -0.27432089678E+03 -0.21968581373E+04  0.24718798352E+04  0.95000000000E+03 0.  0.
   -2000013    1    1    2    0    0  0.55340065926E+03  0.27432089678E+03  0.10342933171E+04  0.15341991102E+04  0.95000000000E+03 0.  0.
<mgrwt>
<rscale>  0 0.38336812E+04</rscale>
<asrwt>0</asrwt>
<pdfrwt beam="2">  1        2 0.39758798E+00 0.38336812E+04</pdfrwt>
<pdfrwt beam="1">  1       -2 0.21873186E+00 0.38336812E+04</pdfrwt>
<totfact> 0.25022802E-01</totfact>
</mgrwt>
</event>
<event>
 4    1  0.2069825E-008  0.4054115E+04  0.7816531E-02  0.7993718E-01
          2   -1    0    0  501    0  0.00000000000E+00  0.00000000000E+00  0.16761880833E+04  0.16761880833E+04  0.00000000000E+00 0.  1.
         -2   -1    0    0    0  501 -0.00000000000E+00 -0.00000000000E+00 -0.24513734481E+04  0.24513734481E+04  0.00000000000E+00 0. -1.
    2000013    1    1    2    0    0  0.62137428245E+03  0.14871933446E+04 -0.11818624467E+04  0.22129502674E+04  0.95000000000E+03 0.  0.
   -2000013    1    1    2    0    0 -0.62137428245E+03 -0.14871933446E+04  0.40667708186E+03  0.19146112640E+04  0.95000000000E+03 0.  0.
<mgrwt>
<rscale>  0 0.40541154E+04</rscale>
<asrwt>0</asrwt>
<pdfrwt beam="1">  1        2 0.25787509E+00 0.40541154E+04</pdfrwt>
<pdfrwt beam="2">  1       -2 0.37713438E+00 0.40541154E+04</pdfrwt>
<totfact> 0.82939315E-02</totfact>
</mgrwt>
</event>
<event>
 4    1  0.2069825E-008  0.3116298E+04  0.7816531E-02  0.8211279E-01
         -2   -1    0    0    0  501 -0.00000000000E+00  0.00000000000E+00  0.23638089022E+04  0.23638089022E+04  0.00000000000E+00 0. -1.
          2   -1    0    0  501    0  0.00000000000E+00 -0.00000000000E+00 -0.10270834799E+04  0.10270834799E+04  0.00000000000E+00 0.  1.
    2000013    1    1    2    0    0  0.67121775199E+03  0.66700089350E+03 -0.19523741165E+03  0.13550059444E+04  0.95000000000E+03 0.  0.
   -2000013    1    1    2    0    0 -0.67121775199E+03 -0.66700089350E+03  0.15319628339E+04  0.20358864377E+04  0.95000000000E+03 0.  0.
<mgrwt>
<rscale>  0 0.31162985E+04</rscale>
<asrwt>0</asrwt>
<pdfrwt beam="2">  1        2 0.15801284E+00 0.31162985E+04</pdfrwt>
<pdfrwt beam="1">  1       -2 0.36366291E+00 0.31162985E+04</pdfrwt>
<totfact> 0.26141719E-01</totfact>
</mgrwt>
</event>
<event>
 4    1  0.2069825E-008  0.2949672E+04  0.7816531E-02  0.8258250E-01
          1   -1    0    0  501    0  0.00000000000E+00  0.00000000000E+00  0.21106250361E+04  0.21106250361E+04  0.00000000000E+00 0.  1.
         -1   -1    0    0    0  501 -0.00000000000E+00 -0.00000000000E+00 -0.10305670413E+04  0.10305670413E+04  0.00000000000E+00 0. -1.
    2000013    1    1    2    0    0  0.29794689079E+03 -0.72705564833E+03  0.14020683793E+04  0.18669970557E+04  0.95000000000E+03 0.  0.
   -2000013    1    1    2    0    0 -0.29794689079E+03  0.72705564833E+03 -0.32201038453E+03  0.12741950217E+04  0.95000000000E+03 0.  0.
<mgrwt>
<rscale>  0 0.29496716E+04</rscale>
<asrwt>0</asrwt>
<pdfrwt beam="1">  1        1 0.32471154E+00 0.29496716E+04</pdfrwt>
<pdfrwt beam="2">  1       -1 0.15854878E+00 0.29496716E+04</pdfrwt>
<totfact> 0.64209825E-01</totfact>
</mgrwt>
</event>
<event>
 4    1  0.2069825E-008  0.2250869E+04  0.7816531E-02  0.8497549E-01
         -2   -1    0    0    0  501 -0.00000000000E+00  0.00000000000E+00  0.10409380311E+04  0.10409380311E+04  0.00000000000E+00 0. -1.
          2   -1    0    0  501    0  0.00000000000E+00 -0.00000000000E+00 -0.12167901065E+04  0.12167901065E+04  0.00000000000E+00 0.  1.
    2000013    1    1    2    0    0 -0.28195093076E+03  0.46572735614E+03 -0.34892038838E+03  0.11491926449E+04  0.95000000000E+03 0.  0.
   -2000013    1    1    2    0    0  0.28195093076E+03 -0.46572735614E+03  0.17306831300E+03  0.11085354927E+04  0.95000000000E+03 0.  0.
<mgrwt>
<rscale>  0 0.22508693E+04</rscale>
<asrwt>0</asrwt>
<pdfrwt beam="2">  1        2 0.18719848E+00 0.22508693E+04</pdfrwt>
<pdfrwt beam="1">  1       -2 0.16014431E+00 0.22508693E+04</pdfrwt>
<totfact> 0.42335870E+00</totfact>
</mgrwt>
</event>
<event>
 4    1  0.2069825E-008  0.2682425E+04  0.7816531E-02  0.8340730E-01
         -2   -1    0    0    0  501 -0.00000000000E+00  0.00000000000E+00  0.67556705854E+03  0.67556705854E+03  0.00000000000E+00 0. -1.
          2   -1    0    0  501    0  0.00000000000E+00 -0.00000000000E+00 -0.26627278876E+04  0.26627278876E+04  0.00000000000E+00 0.  1.
    2000013    1    1    2    0    0  0.23969780691E+03 -0.48472310118E+03 -0.19607305153E+04  0.22448553800E+04  0.95000000000E+03 0.  0.
   -2000013    1    1    2    0    0 -0.23969780691E+03  0.48472310118E+03 -0.26430313831E+02  0.10934395662E+04  0.95000000000E+03 0.  0.
<mgrwt>
<rscale>  0 0.26824252E+04</rscale>
<asrwt>0</asrwt>
<pdfrwt beam="2">  1        2 0.40965045E+00 0.26824252E+04</pdfrwt>
<pdfrwt beam="1">  1       -2 0.10393339E+00 0.26824252E+04</pdfrwt>
<totfact> 0.18489747E+00</totfact>
</mgrwt>
</event>
<event>
 4    1  0.2069825E-008  0.2256455E+04  0.7816531E-02  0.8495291E-01
          2   -1    0    0  501    0  0.00000000000E+00  0.00000000000E+00  0.22314980402E+04  0.22314980402E+04  0.00000000000E+00 0.  1.
         -2   -1    0    0    0  501 -0.00000000000E+00 -0.00000000000E+00 -0.57042257684E+03  0.57042257684E+03  0.00000000000E+00 0. -1.
    2000013    1    1    2    0    0 -0.53097744096E+03  0.17499012390E+03  0.53190535343E+03  0.12239207047E+04  0.95000000000E+03 0.  0.
   -2000013    1    1    2    0    0  0.53097744096E+03 -0.17499012390E+03  0.11291701099E+04  0.15779999123E+04  0.95000000000E+03 0.  0.
<mgrwt>
<rscale>  0 0.22564546E+04</rscale>
<asrwt>0</asrwt>
<pdfrwt beam="1">  1        2 0.34330738E+00 0.22564546E+04</pdfrwt>
<pdfrwt beam="2">  1       -2 0.87757321E-01 0.22564546E+04</pdfrwt>
<totfact> 0.50507914E+00</totfact>
</mgrwt>
</event>
<event>
 4    1  0.2069825E-008  0.2175239E+04  0.7816531E-02  0.8528805E-01
          1   -1    0    0  501    0  0.00000000000E+00  0.00000000000E+00  0.82929183610E+03  0.82929183610E+03  0.00000000000E+00 0. -1.
         -1   -1    0    0    0  501 -0.00000000000E+00 -0.00000000000E+00 -0.14264170152E+04  0.14264170152E+04  0.00000000000E+00 0.  1.
    2000013    1    1    2    0    0  0.49752489495E+03 -0.18122825138E+03 -0.30522565683E+03  0.11296182549E+04  0.95000000000E+03 0.  0.
   -2000013    1    1    2    0    0 -0.49752489495E+03  0.18122825138E+03 -0.29189952225E+03  0.11260905964E+04  0.95000000000E+03 0.  0.
<mgrwt>
<rscale>  0 0.21752388E+04</rscale>
<asrwt>0</asrwt>
<pdfrwt beam="1">  1        1 0.12758336E+00 0.21752388E+04</pdfrwt>
<pdfrwt beam="2">  1       -1 0.21944877E+00 0.21752388E+04</pdfrwt>
<totfact> 0.21149279E+00</totfact>
</mgrwt>
</event>
<event>
 4    1  0.2069825E-008  0.3024167E+04  0.7816531E-02  0.8236863E-01
         -2   -1    0    0    0  501 -0.00000000000E+00  0.00000000000E+00  0.17751068524E+04  0.17751068524E+04  0.00000000000E+00 0. -1.
          2   -1    0    0  501    0  0.00000000000E+00 -0.00000000000E+00 -0.12880334436E+04  0.12880334436E+04  0.00000000000E+00 0.  1.
    2000013    1    1    2    0    0 -0.94360997262E+03 -0.61626359493E+03 -0.98027704504E+02  0.14772576044E+04  0.95000000000E+03 0.  0.
   -2000013    1    1    2    0    0  0.94360997262E+03  0.61626359493E+03  0.58510111330E+03  0.15858826916E+04  0.95000000000E+03 0.  0.
<mgrwt>
<rscale>  0 0.30241673E+04</rscale>
<asrwt>0</asrwt>
<pdfrwt beam="2">  1        2 0.19815899E+00 0.30241673E+04</pdfrwt>
<pdfrwt beam="1">  1       -2 0.27309336E+00 0.30241673E+04</pdfrwt>
<totfact> 0.66599680E-01</totfact>
</mgrwt>
</event>
<event>
 4    1  0.2069825E-008  0.2286014E+04  0.7816531E-02  0.8483456E-01
         -1   -1    0    0    0  501 -0.00000000000E+00  0.00000000000E+00  0.16868612087E+04  0.16868612087E+04  0.00000000000E+00 0.  1.
          1   -1    0    0  501    0  0.00000000000E+00 -0.00000000000E+00 -0.77449494073E+03  0.77449494073E+03  0.00000000000E+00 0. -1.
    2000013    1    1    2    0    0  0.14304113726E+03  0.58555724738E+03  0.23916047007E+03  0.11502329274E+04  0.95000000000E+03 0.  0.
   -2000013    1    1    2    0    0 -0.14304113726E+03 -0.58555724738E+03  0.67320579786E+03  0.13111232220E+04  0.95000000000E+03 0.  0.
<mgrwt>
<rscale>  0 0.22860144E+04</rscale>
<asrwt>0</asrwt>
<pdfrwt beam="2">  1        1 0.11915307E+00 0.22860144E+04</pdfrwt>
<pdfrwt beam="1">  1       -1 0.25951711E+00 0.22860144E+04</pdfrwt>
<totfact> 0.12734831E+00</totfact>
</mgrwt>
</event>
<event>
 4    1  0.2069825E-008  0.2012837E+04  0.7816531E-02  0.8600642E-01
          2   -1    0    0  501    0  0.00000000000E+00  0.00000000000E+00  0.55552894047E+03  0.55552894047E+03  0.00000000000E+00 0.  1.
         -2   -1    0    0    0  501 -0.00000000000E+00 -0.00000000000E+00 -0.18232685038E+04  0.18232685038E+04  0.00000000000E+00 0. -1.
    2000013    1    1    2    0    0 -0.20430740408E+03  0.18822527535E+03 -0.84923281158E+03  0.13041727792E+04  0.95000000000E+03 0.  0.
   -2000013    1    1    2    0    0  0.20430740408E+03 -0.18822527535E+03 -0.41850675179E+03  0.10746246651E+04  0.95000000000E+03 0.  0.
<mgrwt>
<rscale>  0 0.20128372E+04</rscale>
<asrwt>0</asrwt>
<pdfrwt beam="1">  1        2 0.85465991E-01 0.20128372E+04</pdfrwt>
<pdfrwt beam="2">  1       -2 0.28050285E+00 0.20128372E+04</pdfrwt>
<totfact> 0.21122720E+00</totfact>
</mgrwt>
</event>
<event>
 4    1  0.2069825E-008  0.2192130E+04  0.7816531E-02  0.8521711E-01
         -2   -1    0    0    0  501 -0.00000000000E+00  0.00000000000E+00  0.92561683473E+03  0.92561683473E+03  0.00000000000E+00 0. -1.
          2   -1    0    0  501    0  0.00000000000E+00 -0.00000000000E+00 -0.12979002684E+04  0.12979002684E+04  0.00000000000E+00 0.  1.
    2000013    1    1    2    0    0 -0.29824815387E+03  0.33711721297E+03  0.12855588113E+03  0.10590687377E+04  0.95000000000E+03 0.  0.
   -2000013    1    1    2    0    0  0.29824815387E+03 -0.33711721297E+03 -0.50083931481E+03  0.11644483655E+04  0.95000000000E+03 0.  0.
<mgrwt>
<rscale>  0 0.21921299E+04</rscale>
<asrwt>0</asrwt>
<pdfrwt beam="2">  1        2 0.19967696E+00 0.21921299E+04</pdfrwt>
<pdfrwt beam="1">  1       -2 0.14240259E+00 0.21921299E+04</pdfrwt>
<totfact> 0.52103560E+00</totfact>
</mgrwt>
</event>
<event>
 4    1  0.2069825E-008  0.3051259E+04  0.7816531E-02  0.8229243E-01
         -2   -1    0    0    0  501 -0.00000000000E+00  0.00000000000E+00  0.13539398395E+04  0.13539398395E+04  0.00000000000E+00 0. -1.
          2   -1    0    0  501    0  0.00000000000E+00 -0.00000000000E+00 -0.17190910842E+04  0.17190910842E+04  0.00000000000E+00 0.  1.
    2000013    1    1    2    0    0 -0.12313079308E+03  0.10175591327E+04  0.43372050249E+03  0.14632844067E+04  0.95000000000E+03 0.  0.
   -2000013    1    1    2    0    0  0.12313079308E+03 -0.10175591327E+04 -0.79887174718E+03  0.16097465170E+04  0.95000000000E+03 0.  0.
<mgrwt>
<rscale>  0 0.30512594E+04</rscale>
<asrwt>0</asrwt>
<pdfrwt beam="2">  1        2 0.26447555E+00 0.30512594E+04</pdfrwt>
<pdfrwt beam="1">  1       -2 0.20829844E+00 0.30512594E+04</pdfrwt>
<totfact> 0.95811148E-01</totfact>
</mgrwt>
</event>
<event>
 4    1  0.2069825E-008  0.3205598E+04  0.7816531E-02  0.8187340E-01
          2   -1    0    0  501    0  0.00000000000E+00  0.00000000000E+00  0.15383782708E+04  0.15383782708E+04  0.00000000000E+00 0.  1.
         -2   -1    0    0    0  501 -0.00000000000E+00 -0.00000000000E+00 -0.16699169718E+04  0.16699169718E+04  0.00000000000E+00 0. -1.
    2000013    1    1    2    0    0 -0.80021276304E+03 -0.10002420485E+04 -0.22602705910E+03  0.16107181172E+04  0.95000000000E+03 0.  0.
   -2000013    1    1    2    0    0  0.80021276304E+03  0.10002420485E+04  0.94488358155E+02  0.15975771254E+04  0.95000000000E+03 0.  0.
<mgrwt>
<rscale>  0 0.32055976E+04</rscale>
<asrwt>0</asrwt>
<pdfrwt beam="1">  1        2 0.23667358E+00 0.32055976E+04</pdfrwt>
<pdfrwt beam="2">  1       -2 0.25691030E+00 0.32055976E+04</pdfrwt>
<totfact> 0.59237824E-01</totfact>
</mgrwt>
</event>
<event>
 4    1  0.2069825E-008  0.2206224E+04  0.7816531E-02  0.8515842E-01
         -2   -1    0    0    0  501 -0.00000000000E+00  0.00000000000E+00  0.17314268991E+04  0.17314268991E+04  0.00000000000E+00 0.  1.
          2   -1    0    0  501    0  0.00000000000E+00 -0.00000000000E+00 -0.70280538475E+03  0.70280538475E+03  0.00000000000E+00 0. -1.
    2000013    1    1    2    0    0 -0.41289575554E+03  0.17845287541E+03  0.14501413671E+03  0.10610642928E+04  0.95000000000E+03 0.  0.
   -2000013    1    1    2    0    0  0.41289575554E+03 -0.17845287541E+03  0.88360737762E+03  0.13731679910E+04  0.95000000000E+03 0.  0.
<mgrwt>
<rscale>  0 0.22062241E+04</rscale>
<asrwt>0</asrwt>
<pdfrwt beam="2">  1        2 0.10812391E+00 0.22062241E+04</pdfrwt>
<pdfrwt beam="1">  1       -2 0.26637337E+00 0.22062241E+04</pdfrwt>
<totfact> 0.18995062E+00</totfact>
</mgrwt>
</event>
<event>
 4    1  0.2069825E-008  0.2402760E+04  0.7816531E-02  0.8438471E-01
         -2   -1    0    0    0  501 -0.00000000000E+00  0.00000000000E+00  0.48606866530E+03  0.48606866530E+03  0.00000000000E+00 0. -1.
          2   -1    0    0  501    0  0.00000000000E+00 -0.00000000000E+00 -0.29693626985E+04  0.29693626985E+04  0.00000000000E+00 0.  1.
    2000013    1    1    2    0    0  0.49421691622E+03 -0.47732835109E+03 -0.16186441008E+04  0.19986499043E+04  0.95000000000E+03 0.  0.
   -2000013    1    1    2    0    0 -0.49421691622E+03  0.47732835109E+03 -0.86464993239E+03  0.14567814595E+04  0.95000000000E+03 0.  0.
<mgrwt>
<rscale>  0 0.24027602E+04</rscale>
<asrwt>0</asrwt>
<pdfrwt beam="2">  1        2 0.45682503E+00 0.24027602E+04</pdfrwt>
<pdfrwt beam="1">  1       -2 0.74779795E-01 0.24027602E+04</pdfrwt>
<totfact> 0.26304655E+00</totfact>
</mgrwt>
</event>
<event>
 4    1  0.2069825E-008  0.2090714E+04  0.7816531E-02  0.8565345E-01
          1   -1    0    0  501    0  0.00000000000E+00  0.00000000000E+00  0.76723385560E+03  0.76723385560E+03  0.00000000000E+00 0.  1.
         -1   -1    0    0    0  501 -0.00000000000E+00 -0.00000000000E+00 -0.14243001962E+04  0.14243001962E+04  0.00000000000E+00 0. -1.
    2000013    1    1    2    0    0 -0.21301899134E+03 -0.58655747173E+02 -0.72277327732E+03  0.12139682029E+04  0.95000000000E+03 0.  0.
   -2000013    1    1    2    0    0  0.21301899134E+03  0.58655747173E+02  0.65706936712E+02  0.97756584887E+03  0.95000000000E+03 0.  0.
<mgrwt>
<rscale>  0 0.20907141E+04</rscale>
<asrwt>0</asrwt>
<pdfrwt beam="1">  1        1 0.11803598E+00 0.20907141E+04</pdfrwt>
<pdfrwt beam="2">  1       -1 0.21912310E+00 0.20907141E+04</pdfrwt>
<totfact> 0.24262920E+00</totfact>
</mgrwt>
</event>
<event>
 4    1  0.2069825E-008  0.3315430E+04  0.7816531E-02  0.8158980E-01
         -2   -1    0    0    0  501 -0.00000000000E+00  0.00000000000E+00  0.10745290766E+04  0.10745290766E+04  0.00000000000E+00 0. -1.
          2   -1    0    0  501    0  0.00000000000E+00 -0.00000000000E+00 -0.25574175401E+04  0.25574175401E+04  0.00000000000E+00 0.  1.
    2000013    1    1    2    0    0 -0.10964440526E+04  0.65728026505E+03 -0.12450170182E+04  0.20215771771E+04  0.95000000000E+03 0.  0.
   -2000013    1    1    2    0    0  0.10964440526E+04 -0.65728026505E+03 -0.23787144536E+03  0.16103694396E+04  0.95000000000E+03 0.  0.
<mgrwt>
<rscale>  0 0.33154303E+04</rscale>
<asrwt>0</asrwt>
<pdfrwt beam="2">  1        2 0.39344885E+00 0.33154303E+04</pdfrwt>
<pdfrwt beam="1">  1       -2 0.16531217E+00 0.33154303E+04</pdfrwt>
<totfact> 0.61910739E-01</totfact>
</mgrwt>
</event>
<event>
 4    1  0.2069825E-008  0.2733531E+04  0.7816531E-02  0.8324207E-01
         -1   -1    0    0    0  501 -0.00000000000E+00  0.00000000000E+00  0.93112797278E+03  0.93112797278E+03  0.00000000000E+00 0. -1.
          1   -1    0    0  501    0  0.00000000000E+00 -0.00000000000E+00 -0.20062204294E+04  0.20062204294E+04  0.00000000000E+00 0.  1.
    2000013    1    1    2    0    0 -0.81242347655E+03  0.19404932046E+03  0.18596330625E+02  0.12651216809E+04  0.95000000000E+03 0.  0.
   -2000013    1    1    2    0    0  0.81242347655E+03 -0.19404932046E+03 -0.10936887873E+04  0.16722267213E+04  0.95000000000E+03 0.  0.
<mgrwt>
<rscale>  0 0.27335310E+04</rscale>
<asrwt>0</asrwt>
<pdfrwt beam="2">  1        1 0.30864930E+00 0.27335310E+04</pdfrwt>
<pdfrwt beam="1">  1       -1 0.14325046E+00 0.27335310E+04</pdfrwt>
<totfact> 0.10137379E+00</totfact>
</mgrwt>
</event>
<event>
 4    1  0.2069825E-008  0.2292103E+04  0.7816531E-02  0.8481041E-01
          2   -1    0    0  501    0  0.00000000000E+00  0.00000000000E+00  0.41459507357E+04  0.41459507357E+04  0.00000000000E+00 0.  1.
         -2   -1    0    0    0  501 -0.00000000000E+00 -0.00000000000E+00 -0.31679922348E+03  0.31679922348E+03  0.00000000000E+00 0. -1.
    2000013    1    1    2    0    0  0.46466401366E+03  0.24423517097E+03  0.11982171749E+04  0.16167213311E+04  0.95000000000E+03 0.  0.
   -2000013    1    1    2    0    0 -0.46466401366E+03 -0.24423517097E+03  0.26309343373E+04  0.28460286280E+04  0.95000000000E+03 0.  0.
<mgrwt>
<rscale>  0 0.22921029E+04</rscale>
<asrwt>0</asrwt>
<pdfrwt beam="1">  1        2 0.63783854E+00 0.22921029E+04</pdfrwt>
<pdfrwt beam="2">  1       -2 0.48738345E-01 0.22921029E+04</pdfrwt>
<totfact> 0.94252688E-01</totfact>
</mgrwt>
</event>
<event>
 4    1  0.2069825E-008  0.3290073E+04  0.7816531E-02  0.8165426E-01
          2   -1    0    0  501    0  0.00000000000E+00  0.00000000000E+00  0.24935604116E+04  0.24935604116E+04  0.00000000000E+00 0.  1.
         -2   -1    0    0    0  501 -0.00000000000E+00 -0.00000000000E+00 -0.10852535620E+04  0.10852535620E+04  0.00000000000E+00 0. -1.
    2000013    1    1    2    0    0  0.71877190465E+03 -0.10496613918E+04  0.23600744465E+03  0.16051858467E+04  0.95000000000E+03 0.  0.
   -2000013    1    1    2    0    0 -0.71877190465E+03  0.10496613918E+04  0.11722994050E+04  0.19736281269E+04  0.95000000000E+03 0.  0.
<mgrwt>
<rscale>  0 0.32900731E+04</rscale>
<asrwt>0</asrwt>
<pdfrwt beam="1">  1        2 0.38362468E+00 0.32900731E+04</pdfrwt>
<pdfrwt beam="2">  1       -2 0.16696209E+00 0.32900731E+04</pdfrwt>
<totfact> 0.65755140E-01</totfact>
</mgrwt>
</event>
<event>
 4    1  0.2069825E-008  0.2713717E+04  0.7816531E-02  0.8330568E-01
          2   -1    0    0  501    0  0.00000000000E+00  0.00000000000E+00  0.32931634334E+04  0.32931634334E+04  0.00000000000E+00 0.  1.
         -2   -1    0    0    0  501 -0.00000000000E+00 -0.00000000000E+00 -0.55905668136E+03  0.55905668136E+03  0.00000000000E+00 0. -1.
    2000013    1    1    2    0    0  0.70245667536E+03 -0.56683584451E+03  0.86755249125E+03  0.15715901439E+04  0.95000000000E+03 0.  0.
   -2000013    1    1    2    0    0 -0.70245667536E+03  0.56683584451E+03  0.18665542608E+04  0.22806299708E+04  0.95000000000E+03 0.  0.
<mgrwt>
<rscale>  0 0.27137170E+04</rscale>
<asrwt>0</asrwt>
<pdfrwt beam="1">  1        2 0.50664051E+00 0.27137170E+04</pdfrwt>
<pdfrwt beam="2">  1       -2 0.86008723E-01 0.27137170E+04</pdfrwt>
<totfact> 0.11568038E+00</totfact>
</mgrwt>
</event>
<event>
 4    1  0.2069825E-008  0.2472178E+04  0.7816531E-02  0.8412965E-01
         -2   -1    0    0    0  501 -0.00000000000E+00  0.00000000000E+00  0.92970135650E+03  0.92970135650E+03  0.00000000000E+00 0. -1.
          2   -1    0    0  501    0  0.00000000000E+00 -0.00000000000E+00 -0.16434486275E+04  0.16434486275E+04  0.00000000000E+00 0.  1.
    2000013    1    1    2    0    0 -0.74678240410E+03 -0.22277940186E+03 -0.49691171833E+03  0.13254191325E+04  0.95000000000E+03 0.  0.
   -2000013    1    1    2    0    0  0.74678240410E+03  0.22277940186E+03 -0.21683555272E+03  0.12477308515E+04  0.95000000000E+03 0.  0.
<mgrwt>
<rscale>  0 0.24721783E+04</rscale>
<asrwt>0</asrwt>
<pdfrwt beam="2">  1        2 0.25283825E+00 0.24721783E+04</pdfrwt>
<pdfrwt beam="1">  1       -2 0.14303098E+00 0.24721783E+04</pdfrwt>
<totfact> 0.32021756E+00</totfact>
</mgrwt>
</event>
<event>
 4    1  0.2069825E-008  0.2624003E+04  0.7816531E-02  0.8360093E-01
         -2   -1    0    0    0  501 -0.00000000000E+00  0.00000000000E+00  0.15504989455E+04  0.15504989455E+04  0.00000000000E+00 0. -1.
          2   -1    0    0  501    0  0.00000000000E+00 -0.00000000000E+00 -0.11101896894E+04  0.11101896894E+04  0.00000000000E+00 0.  1.
    2000013    1    1    2    0    0 -0.89742081527E+02  0.82544710282E+03  0.58495016856E+03  0.13907132201E+04  0.95000000000E+03 0.  0.
   -2000013    1    1    2    0    0  0.89742081527E+02 -0.82544710282E+03 -0.14464091253E+03  0.12699754149E+04  0.95000000000E+03 0.  0.
<mgrwt>
<rscale>  0 0.26240030E+04</rscale>
<asrwt>0</asrwt>
<pdfrwt beam="2">  1        2 0.17079841E+00 0.26240030E+04</pdfrwt>
<pdfrwt beam="1">  1       -2 0.23853830E+00 0.26240030E+04</pdfrwt>
<totfact> 0.14337341E+00</totfact>
</mgrwt>
</event>
<event>
 4    1  0.2069825E-008  0.2067500E+04  0.7816531E-02  0.8575697E-01
          2   -1    0    0  501    0  0.00000000000E+00  0.00000000000E+00  0.34187353238E+04  0.34187353238E+04  0.00000000000E+00 0. -1.
         -2   -1    0    0    0  501 -0.00000000000E+00 -0.00000000000E+00 -0.31258307238E+03  0.31258307238E+03  0.00000000000E+00 0.  1.
    2000013    1    1    2    0    0 -0.27437537428E+03 -0.32607591302E+02  0.10122722990E+04  0.14154646970E+04  0.95000000000E+03 0.  0.
   -2000013    1    1    2    0    0  0.27437537428E+03  0.32607591302E+02  0.20938799524E+04  0.23158536992E+04  0.95000000000E+03 0.  0.
<mgrwt>
<rscale>  0 0.20674997E+04</rscale>
<asrwt>0</asrwt>
<pdfrwt beam="1">  1        2 0.52595926E+00 0.20674997E+04</pdfrwt>
<pdfrwt beam="2">  1       -2 0.48089706E-01 0.20674997E+04</pdfrwt>
<totfact> 0.35188507E+00</totfact>
</mgrwt>
</event>
<event>
 4    1  0.2069825E-008  0.2637438E+04  0.7816531E-02  0.8355594E-01
         -2   -1    0    0    0  501 -0.00000000000E+00  0.00000000000E+00  0.18819834523E+04  0.18819834523E+04  0.00000000000E+00 0. -1.
          2   -1    0    0  501    0  0.00000000000E+00 -0.00000000000E+00 -0.92403563172E+03  0.92403563172E+03  0.00000000000E+00 0.  1.
    2000013    1    1    2    0    0 -0.53247725530E+03 -0.69108768087E+03  0.18685986251E+03  0.13032846267E+04  0.95000000000E+03 0.  0.
   -2000013    1    1    2    0    0  0.53247725530E+03  0.69108768087E+03  0.77108795808E+03  0.15027344573E+04  0.95000000000E+03 0.  0.
<mgrwt>
<rscale>  0 0.26374380E+04</rscale>
<asrwt>0</asrwt>
<pdfrwt beam="2">  1        2 0.14215933E+00 0.26374380E+04</pdfrwt>
<pdfrwt beam="1">  1       -2 0.28953591E+00 0.26374380E+04</pdfrwt>
<totfact> 0.91748482E-01</totfact>
</mgrwt>
</event>
<event>
 4    1  0.2069825E-008  0.2043606E+04  0.7816531E-02  0.8586500E-01
          2   -1    0    0  501    0  0.00000000000E+00  0.00000000000E+00  0.15199271956E+04  0.15199271956E+04  0.00000000000E+00 0.  1.
         -2   -1    0    0    0  501 -0.00000000000E+00 -0.00000000000E+00 -0.68692871080E+03  0.68692871080E+03  0.00000000000E+00 0. -1.
    2000013    1    1    2    0    0  0.19732391315E+03 -0.29505176833E+03  0.55133058081E+03  0.11543213080E+04  0.95000000000E+03 0.  0.
   -2000013    1    1    2    0    0 -0.19732391315E+03  0.29505176833E+03  0.28166790395E+03  0.10525345984E+04  0.95000000000E+03 0.  0.
<mgrwt>
<rscale>  0 0.20436063E+04</rscale>
<asrwt>0</asrwt>
<pdfrwt beam="1">  1        2 0.23383495E+00 0.20436063E+04</pdfrwt>
<pdfrwt beam="2">  1       -2 0.10568134E+00 0.20436063E+04</pdfrwt>
<totfact> 0.82887341E+00</totfact>
</mgrwt>
</event>
<event>
 4    1  0.2069825E-008  0.2522892E+04  0.7816531E-02  0.8394875E-01
          2   -1    0    0  501    0  0.00000000000E+00  0.00000000000E+00  0.22050644198E+04  0.22050644198E+04  0.00000000000E+00 0.  1.
         -2   -1    0    0    0  501 -0.00000000000E+00 -0.00000000000E+00 -0.72163244571E+03  0.72163244571E+03  0.00000000000E+00 0. -1.
    2000013    1    1    2    0    0  0.25818770024E+03  0.20584553220E+03  0.16249697767E+04  0.19110363803E+04  0.95000000000E+03 0.  0.
   -2000013    1    1    2    0    0 -0.25818770024E+03 -0.20584553220E+03 -0.14153780258E+03  0.10156604852E+04  0.95000000000E+03 0.  0.
<mgrwt>
<rscale>  0 0.25228920E+04</rscale>
<asrwt>0</asrwt>
<pdfrwt beam="1">  1        2 0.33924068E+00 0.25228920E+04</pdfrwt>
<pdfrwt beam="2">  1       -2 0.11102038E+00 0.25228920E+04</pdfrwt>
<totfact> 0.29336293E+00</totfact>
</mgrwt>
</event>
<event>
 4    1  0.2069825E-008  0.2042818E+04  0.7816531E-02  0.8586859E-01
          2   -1    0    0  501    0  0.00000000000E+00  0.00000000000E+00  0.29827256851E+04  0.29827256851E+04  0.00000000000E+00 0.  1.
         -2   -1    0    0    0  501 -0.00000000000E+00 -0.00000000000E+00 -0.34977278148E+03  0.34977278148E+03  0.00000000000E+00 0. -1.
    2000013    1    1    2    0    0 -0.20358896942E+03  0.31151622084E+03  0.13944639039E+04  0.17278658523E+04  0.95000000000E+03 0.  0.
   -2000013    1    1    2    0    0  0.20358896942E+03 -0.31151622084E+03  0.12384889997E+04  0.16046326143E+04  0.95000000000E+03 0.  0.
<mgrwt>
<rscale>  0 0.20428179E+04</rscale>
<asrwt>0</asrwt>
<pdfrwt beam="1">  1        2 0.45888086E+00 0.20428179E+04</pdfrwt>
<pdfrwt beam="2">  1       -2 0.53811199E-01 0.20428179E+04</pdfrwt>
<totfact> 0.53878318E+00</totfact>
</mgrwt>
</event>
<event>
 4    1  0.2069825E-008  0.3368646E+04  0.7816531E-02  0.8145645E-01
          2   -1    0    0  501    0  0.00000000000E+00  0.00000000000E+00  0.18586607478E+04  0.18586607478E+04  0.00000000000E+00 0.  1.
         -2   -1    0    0    0  501 -0.00000000000E+00 -0.00000000000E+00 -0.15263379180E+04  0.15263379180E+04  0.00000000000E+00 0. -1.
    2000013    1    1    2    0    0 -0.86674341808E+03  0.75127711389E+03 -0.62428467429E+03  0.16148971513E+04  0.95000000000E+03 0.  0.
   -2000013    1    1    2    0    0  0.86674341808E+03 -0.75127711389E+03  0.95660750415E+03  0.17701015145E+04  0.95000000000E+03 0.  0.
<mgrwt>
<rscale>  0 0.33686462E+04</rscale>
<asrwt>0</asrwt>
<pdfrwt beam="1">  1        2 0.28594781E+00 0.33686462E+04</pdfrwt>
<pdfrwt beam="2">  1       -2 0.23482122E+00 0.33686462E+04</pdfrwt>
<totfact> 0.53043415E-01</totfact>
</mgrwt>
</event>
<event>
 4    1  0.2069825E-008  0.2139897E+04  0.7816531E-02  0.8543869E-01
          2   -1    0    0  501    0  0.00000000000E+00  0.00000000000E+00  0.95043784025E+03  0.95043784025E+03  0.00000000000E+00 0.  1.
         -2   -1    0    0    0  501 -0.00000000000E+00 -0.00000000000E+00 -0.12044863424E+04  0.12044863424E+04  0.00000000000E+00 0. -1.
    2000013    1    1    2    0    0 -0.89250372349E+02 -0.48405760223E+03 -0.12353485161E+03  0.10770507188E+04  0.95000000000E+03 0.  0.
   -2000013    1    1    2    0    0  0.89250372349E+02  0.48405760223E+03 -0.13051365058E+03  0.10778734639E+04  0.95000000000E+03 0.  0.
<mgrwt>
<rscale>  0 0.21398966E+04</rscale>
<asrwt>0</asrwt>
<pdfrwt beam="1">  1        2 0.14622121E+00 0.21398966E+04</pdfrwt>
<pdfrwt beam="2">  1       -2 0.18530559E+00 0.21398966E+04</pdfrwt>
<totfact> 0.41546007E+00</totfact>
</mgrwt>
</event>
<event>
 4    1  0.2069825E-008  0.2664696E+04  0.7816531E-02  0.8346552E-01
          2   -1    0    0  501    0  0.00000000000E+00  0.00000000000E+00  0.22480591710E+04  0.22480591710E+04  0.00000000000E+00 0.  1.
         -2   -1    0    0    0  501 -0.00000000000E+00 -0.00000000000E+00 -0.78963698552E+03  0.78963698552E+03  0.00000000000E+00 0. -1.
    2000013    1    1    2    0    0 -0.90400091509E+03  0.23474811021E+03  0.74980458935E+03  0.15287351804E+04  0.95000000000E+03 0.  0.
   -2000013    1    1    2    0    0  0.90400091509E+03 -0.23474811021E+03  0.70861759610E+03  0.15089609760E+04  0.95000000000E+03 0.  0.
<mgrwt>
<rscale>  0 0.26646956E+04</rscale>
<asrwt>0</asrwt>
<pdfrwt beam="1">  1        2 0.34585525E+00 0.26646956E+04</pdfrwt>
<pdfrwt beam="2">  1       -2 0.12148261E+00 0.26646956E+04</pdfrwt>
<totfact> 0.21980171E+00</totfact>
</mgrwt>
</event>
<event>
 4    1  0.2069825E-008  0.2686751E+04  0.7816531E-02  0.8339317E-01
         -2   -1    0    0    0  501 -0.00000000000E+00  0.00000000000E+00  0.57809505871E+03  0.57809505871E+03  0.00000000000E+00 0. -1.
          2   -1    0    0  501    0  0.00000000000E+00 -0.00000000000E+00 -0.31217313636E+04  0.31217313636E+04  0.00000000000E+00 0.  1.
    2000013    1    1    2    0    0 -0.27870038648E+02  0.90588181813E+03 -0.88048280803E+03  0.15808695654E+04  0.95000000000E+03 0.  0.
   -2000013    1    1    2    0    0  0.27870038648E+02 -0.90588181813E+03 -0.16631534969E+04  0.21189568570E+04  0.95000000000E+03 0.  0.
<mgrwt>
<rscale>  0 0.26867508E+04</rscale>
<asrwt>0</asrwt>
<pdfrwt beam="2">  1        2 0.48026637E+00 0.26867508E+04</pdfrwt>
<pdfrwt beam="1">  1       -2 0.88937700E-01 0.26867508E+04</pdfrwt>
<totfact> 0.13898952E+00</totfact>
</mgrwt>
</event>
<event>
 4    1  0.2069825E-008  0.2220842E+04  0.7816531E-02  0.8509803E-01
          2   -1    0    0  501    0  0.00000000000E+00  0.00000000000E+00  0.26005684225E+04  0.26005684225E+04  0.00000000000E+00 0.  1.
         -2   -1    0    0    0  501 -0.00000000000E+00 -0.00000000000E+00 -0.47414065317E+03  0.47414065317E+03  0.00000000000E+00 0. -1.
    2000013    1    1    2    0    0  0.13022498206E+03  0.55226184106E+03  0.93494565724E+03  0.14486459433E+04  0.95000000000E+03 0.  0.
   -2000013    1    1    2    0    0 -0.13022498206E+03 -0.55226184106E+03  0.11914821121E+04  0.16260631324E+04  0.95000000000E+03 0.  0.
<mgrwt>
<rscale>  0 0.22208424E+04</rscale>
<asrwt>0</asrwt>
<pdfrwt beam="1">  1        2 0.40008744E+00 0.22208424E+04</pdfrwt>
<pdfrwt beam="2">  1       -2 0.72944717E-01 0.22208424E+04</pdfrwt>
<totfact> 0.47126391E+00</totfact>
</mgrwt>
</event>
<event>
 4    1  0.2069825E-008  0.2314716E+04  0.7816531E-02  0.8472141E-01
         -2   -1    0    0    0  501 -0.00000000000E+00  0.00000000000E+00  0.57381154614E+03  0.57381154614E+03  0.00000000000E+00 0. -1.
          2   -1    0    0  501    0  0.00000000000E+00 -0.00000000000E+00 -0.23343506467E+04  0.23343506467E+04  0.00000000000E+00 0.  1.
    2000013    1    1    2    0    0  0.62432121742E+03  0.21653422849E+03 -0.90250779861E+03  0.14675436556E+04  0.95000000000E+03 0.  0.
   -2000013    1    1    2    0    0 -0.62432121742E+03 -0.21653422849E+03 -0.85803130196E+03  0.14406185372E+04  0.95000000000E+03 0.  0.
<mgrwt>
<rscale>  0 0.23147158E+04</rscale>
<asrwt>0</asrwt>
<pdfrwt beam="2">  1        2 0.35913088E+00 0.23147158E+04</pdfrwt>
<pdfrwt beam="1">  1       -2 0.88278697E-01 0.23147158E+04</pdfrwt>
<totfact> 0.43359077E+00</totfact>
</mgrwt>
</event>
<event>
 4    1  0.2069825E-008  0.3949095E+04  0.7816531E-02  0.8014895E-01
         -2   -1    0    0    0  501 -0.00000000000E+00  0.00000000000E+00  0.17247664020E+04  0.17247664020E+04  0.00000000000E+00 0. -1.
          2   -1    0    0  501    0  0.00000000000E+00 -0.00000000000E+00 -0.22605019170E+04  0.22605019170E+04  0.00000000000E+00 0.  1.
    2000013    1    1    2    0    0 -0.52468513416E+03 -0.16495548681E+04 -0.27136433173E+03  0.19931042004E+04  0.95000000000E+03 0.  0.
   -2000013    1    1    2    0    0  0.52468513416E+03  0.16495548681E+04 -0.26437118321E+03  0.19921641186E+04  0.95000000000E+03 0.  0.
<mgrwt>
<rscale>  0 0.39490950E+04</rscale>
<asrwt>0</asrwt>
<pdfrwt beam="2">  1        2 0.34776953E+00 0.39490950E+04</pdfrwt>
<pdfrwt beam="1">  1       -2 0.26534868E+00 0.39490950E+04</pdfrwt>
<totfact> 0.19567210E-01</totfact>
</mgrwt>
</event>
<event>
 4    1  0.2069825E-008  0.2518862E+04  0.7816531E-02  0.8396297E-01
          2   -1    0    0  501    0  0.00000000000E+00  0.00000000000E+00  0.10811422088E+04  0.10811422088E+04  0.00000000000E+00 0.  1.
         -2   -1    0    0    0  501 -0.00000000000E+00 -0.00000000000E+00 -0.14671209179E+04  0.14671209179E+04  0.00000000000E+00 0. -1.
    2000013    1    1    2    0    0 -0.48307470758E+03 -0.66426215342E+03 -0.96689150036E+02  0.12595452248E+04  0.95000000000E+03 0.  0.
   -2000013    1    1    2    0    0  0.48307470758E+03  0.66426215342E+03 -0.28928955906E+03  0.12887179018E+04  0.95000000000E+03 0.  0.
<mgrwt>
<rscale>  0 0.25188619E+04</rscale>
<asrwt>0</asrwt>
<pdfrwt beam="1">  1        2 0.16632957E+00 0.25188619E+04</pdfrwt>
<pdfrwt beam="2">  1       -2 0.22571091E+00 0.25188619E+04</pdfrwt>
<totfact> 0.18126721E+00</totfact>
</mgrwt>
</event>
<event>
 4    1  0.2069825E-008  0.2433265E+04  0.7816531E-02  0.8427154E-01
         -2   -1    0    0    0  501 -0.00000000000E+00  0.00000000000E+00  0.96803651398E+03  0.96803651398E+03  0.00000000000E+00 0. -1.
          2   -1    0    0  501    0  0.00000000000E+00 -0.00000000000E+00 -0.15290689252E+04  0.15290689252E+04  0.00000000000E+00 0.  1.
    2000013    1    1    2    0    0  0.37525098276E+03 -0.60222260649E+03 -0.56007703011E+03  0.13113625157E+04  0.95000000000E+03 0.  0.
   -2000013    1    1    2    0    0 -0.37525098276E+03  0.60222260649E+03 -0.95538106562E+00  0.11857429235E+04  0.95000000000E+03 0.  0.
<mgrwt>
<rscale>  0 0.24332649E+04</rscale>
<asrwt>0</asrwt>
<pdfrwt beam="2">  1        2 0.23524137E+00 0.24332649E+04</pdfrwt>
<pdfrwt beam="1">  1       -2 0.14892870E+00 0.24332649E+04</pdfrwt>
<totfact> 0.33478666E+00</totfact>
</mgrwt>
</event>
<event>
 4    1  0.2069825E-008  0.2379983E+04  0.7816531E-02  0.8447036E-01
         -2   -1    0    0    0  501 -0.00000000000E+00  0.00000000000E+00  0.17539849594E+04  0.17539849594E+04  0.00000000000E+00 0. -1.
          2   -1    0    0  501    0  0.00000000000E+00 -0.00000000000E+00 -0.80734987588E+03  0.80734987588E+03  0.00000000000E+00 0.  1.
    2000013    1    1    2    0    0 -0.27546499473E+03  0.59047168355E+03  0.79445385784E+03  0.13993551031E+04  0.95000000000E+03 0.  0.
   -2000013    1    1    2    0    0  0.27546499473E+03 -0.59047168355E+03  0.15218122564E+03  0.11619797321E+04  0.95000000000E+03 0.  0.
<mgrwt>
<rscale>  0 0.23799828E+04</rscale>
<asrwt>0</asrwt>
<pdfrwt beam="2">  1        2 0.12420767E+00 0.23799828E+04</pdfrwt>
<pdfrwt beam="1">  1       -2 0.26984384E+00 0.23799828E+04</pdfrwt>
<totfact> 0.14887102E+00</totfact>
</mgrwt>
</event>
<event>
 4    1  0.2069825E-008  0.2295160E+04  0.7816531E-02  0.8479832E-01
          2   -1    0    0  501    0  0.00000000000E+00  0.00000000000E+00  0.17251052285E+04  0.17251052285E+04  0.00000000000E+00 0.  1.
         -2   -1    0    0    0  501 -0.00000000000E+00 -0.00000000000E+00 -0.76339661455E+03  0.76339661455E+03  0.00000000000E+00 0. -1.
    2000013    1    1    2    0    0 -0.50989055898E+03 -0.12660701153E+03  0.77462321546E+02  0.10883556996E+04  0.95000000000E+03 0.  0.
   -2000013    1    1    2    0    0  0.50989055898E+03  0.12660701153E+03  0.88424629239E+03  0.14001461435E+04  0.95000000000E+03 0.  0.
<mgrwt>
<rscale>  0 0.22951597E+04</rscale>
<asrwt>0</asrwt>
<pdfrwt beam="1">  1        2 0.26540080E+00 0.22951597E+04</pdfrwt>
<pdfrwt beam="2">  1       -2 0.11744563E+00 0.22951597E+04</pdfrwt>
<totfact> 0.48240408E+00</totfact>
</mgrwt>
</event>
<event>
 4    1  0.2069825E-008  0.2152430E+04  0.7816531E-02  0.8538493E-01
         -2   -1    0    0    0  501 -0.00000000000E+00  0.00000000000E+00  0.14176874471E+04  0.14176874471E+04  0.00000000000E+00 0. -1.
          2   -1    0    0  501    0  0.00000000000E+00 -0.00000000000E+00 -0.81699150888E+03  0.81699150888E+03  0.00000000000E+00 0.  1.
    2000013    1    1    2    0    0 -0.20910719113E+03 -0.45677779455E+03  0.24010628879E+03  0.11011461306E+04  0.95000000000E+03 0.  0.
   -2000013    1    1    2    0    0  0.20910719113E+03  0.45677779455E+03  0.36058964943E+03  0.11335328254E+04  0.95000000000E+03 0.  0.
<mgrwt>
<rscale>  0 0.21524299E+04</rscale>
<asrwt>0</asrwt>
<pdfrwt beam="2">  1        2 0.12569100E+00 0.21524299E+04</pdfrwt>
<pdfrwt beam="1">  1       -2 0.21810576E+00 0.21524299E+04</pdfrwt>
<totfact> 0.31213442E+00</totfact>
</mgrwt>
</event>
<event>
 4    1  0.2069825E-008  0.2862534E+04  0.7816531E-02  0.8284113E-01
          2   -1    0    0  501    0  0.00000000000E+00  0.00000000000E+00  0.16917750870E+04  0.16917750870E+04  0.00000000000E+00 0.  1.
         -2   -1    0    0    0  501 -0.00000000000E+00 -0.00000000000E+00 -0.12108734847E+04  0.12108734847E+04  0.00000000000E+00 0. -1.
    2000013    1    1    2    0    0  0.72270224922E+03 -0.36312151476E+02  0.10404351980E+04  0.15838631616E+04  0.95000000000E+03 0.  0.
   -2000013    1    1    2    0    0 -0.72270224922E+03  0.36312151476E+02 -0.55953359566E+03  0.13187854102E+04  0.95000000000E+03 0.  0.
<mgrwt>
<rscale>  0 0.28625343E+04</rscale>
<asrwt>0</asrwt>
<pdfrwt beam="1">  1        2 0.26027309E+00 0.28625343E+04</pdfrwt>
<pdfrwt beam="2">  1       -2 0.18628823E+00 0.28625343E+04</pdfrwt>
<totfact> 0.14090888E+00</totfact>
</mgrwt>
</event>
<event>
 4    1  0.2069825E-008  0.2469626E+04  0.7816531E-02  0.8413887E-01
          2   -1    0    0  501    0  0.00000000000E+00  0.00000000000E+00  0.32427289711E+04  0.32427289711E+04  0.00000000000E+00 0.  1.
         -2   -1    0    0    0  501 -0.00000000000E+00 -0.00000000000E+00 -0.47020984149E+03  0.47020984149E+03  0.00000000000E+00 0. -1.
    2000013    1    1    2    0    0  0.11417574697E+03  0.72756397051E+03  0.18111717979E+04  0.21737591205E+04  0.95000000000E+03 0.  0.
   -2000013    1    1    2    0    0 -0.11417574697E+03 -0.72756397051E+03  0.96134733167E+03  0.15391796921E+04  0.95000000000E+03 0.  0.
<mgrwt>
<rscale>  0 0.24696259E+04</rscale>
<asrwt>0</asrwt>
<pdfrwt beam="1">  1        2 0.49888137E+00 0.24696259E+04</pdfrwt>
<pdfrwt beam="2">  1       -2 0.72339978E-01 0.24696259E+04</pdfrwt>
<totfact> 0.18813057E+00</totfact>
</mgrwt>
</event>
<event>
 4    1  0.2069825E-008  0.2332083E+04  0.7816531E-02  0.8465377E-01
          2   -1    0    0  501    0  0.00000000000E+00  0.00000000000E+00  0.14866720569E+04  0.14866720569E+04  0.00000000000E+00 0.  1.
         -2   -1    0    0    0  501 -0.00000000000E+00 -0.00000000000E+00 -0.91456168105E+03  0.91456168105E+03  0.00000000000E+00 0. -1.
    2000013    1    1    2    0    0 -0.41550583036E+03  0.53312507191E+03  0.26864651644E+03  0.11964691338E+04  0.95000000000E+03 0.  0.
   -2000013    1    1    2    0    0  0.41550583036E+03 -0.53312507191E+03  0.30346385938E+03  0.12047646041E+04  0.95000000000E+03 0.  0.
<mgrwt>
<rscale>  0 0.23320834E+04</rscale>
<asrwt>0</asrwt>
<pdfrwt beam="1">  1        2 0.22871878E+00 0.23320834E+04</pdfrwt>
<pdfrwt beam="2">  1       -2 0.14070180E+00 0.23320834E+04</pdfrwt>
<totfact> 0.41412250E+00</totfact>
</mgrwt>
</event>
<event>
 4    1  0.2069825E-008  0.3194845E+04  0.7816531E-02  0.8190180E-01
         -1   -1    0    0    0  501 -0.00000000000E+00  0.00000000000E+00  0.25363130021E+04  0.25363130021E+04  0.00000000000E+00 0.  1.
          1   -1    0    0  501    0  0.00000000000E+00 -0.00000000000E+00 -0.10060895248E+04  0.10060895248E+04  0.00000000000E+00 0. -1.
    2000013    1    1    2    0    0 -0.92233422036E+03  0.81640585355E+03  0.36220984623E+03  0.15971583843E+04  0.95000000000E+03 0.  0.
   -2000013    1    1    2    0    0  0.92233422036E+03 -0.81640585355E+03  0.11680136311E+04  0.19452441426E+04  0.95000000000E+03 0.  0.
<mgrwt>
<rscale>  0 0.31948446E+04</rscale>
<asrwt>0</asrwt>
<pdfrwt beam="2">  1        1 0.15478300E+00 0.31948446E+04</pdfrwt>
<pdfrwt beam="1">  1       -1 0.39020200E+00 0.31948446E+04</pdfrwt>
<totfact> 0.10444102E-01</totfact>
</mgrwt>
</event>
<event>
 4    1  0.2069825E-008  0.2739297E+04  0.7816531E-02  0.8322366E-01
          1   -1    0    0  501    0  0.00000000000E+00  0.00000000000E+00  0.24769281295E+04  0.24769281295E+04  0.00000000000E+00 0.  1.
         -1   -1    0    0    0  501 -0.00000000000E+00 -0.00000000000E+00 -0.75736455717E+03  0.75736455717E+03  0.00000000000E+00 0. -1.
    2000013    1    1    2    0    0 -0.98374897809E+03 -0.22751481728E+01  0.77087293889E+03  0.15698765289E+04  0.95000000000E+03 0.  0.
   -2000013    1    1    2    0    0  0.98374897809E+03  0.22751481728E+01  0.94869063347E+03  0.16644161578E+04  0.95000000000E+03 0.  0.
<mgrwt>
<rscale>  0 0.27392974E+04</rscale>
<asrwt>0</asrwt>
<pdfrwt beam="1">  1        1 0.38106586E+00 0.27392974E+04</pdfrwt>
<pdfrwt beam="2">  1       -1 0.11651763E+00 0.27392974E+04</pdfrwt>
<totfact> 0.81316551E-01</totfact>
</mgrwt>
</event>
<event>
 4    1  0.2069825E-008  0.2600678E+04  0.7816531E-02  0.8367971E-01
          2   -1    0    0  501    0  0.00000000000E+00  0.00000000000E+00  0.14115495444E+04  0.14115495444E+04  0.00000000000E+00 0.  1.
         -2   -1    0    0    0  501 -0.00000000000E+00 -0.00000000000E+00 -0.11978906263E+04  0.11978906263E+04  0.00000000000E+00 0. -1.
    2000013    1    1    2    0    0 -0.53224985426E+03  0.68827852902E+03  0.28452701576E+03  0.13192698221E+04  0.95000000000E+03 0.  0.
   -2000013    1    1    2    0    0  0.53224985426E+03 -0.68827852902E+03 -0.70868097682E+02  0.12901703485E+04  0.95000000000E+03 0.  0.
<mgrwt>
<rscale>  0 0.26006783E+04</rscale>
<asrwt>0</asrwt>
<pdfrwt beam="1">  1        2 0.21716147E+00 0.26006783E+04</pdfrwt>
<pdfrwt beam="2">  1       -2 0.18429087E+00 0.26006783E+04</pdfrwt>
<totfact> 0.21360497E+00</totfact>
</mgrwt>
</event>
<event>
 4    1  0.2069825E-008  0.2496056E+04  0.7816531E-02  0.8404392E-01
         -2   -1    0    0    0  501 -0.00000000000E+00  0.00000000000E+00  0.26683978043E+04  0.26683978043E+04  0.00000000000E+00 0. -1.
          2   -1    0    0  501    0  0.00000000000E+00 -0.00000000000E+00 -0.58371130187E+03  0.58371130187E+03  0.00000000000E+00 0.  1.
    2000013    1    1    2    0    0  0.20865717517E+03  0.75677252287E+03  0.12990887217E+04  0.17906350759E+04  0.95000000000E+03 0.  0.
   -2000013    1    1    2    0    0 -0.20865717517E+03 -0.75677252287E+03  0.78559778073E+03  0.14614740303E+04  0.95000000000E+03 0.  0.
<mgrwt>
<rscale>  0 0.24960561E+04</rscale>
<asrwt>0</asrwt>
<pdfrwt beam="2">  1        2 0.89801740E-01 0.24960561E+04</pdfrwt>
<pdfrwt beam="1">  1       -2 0.41052274E+00 0.24960561E+04</pdfrwt>
<totfact> 0.28968602E-01</totfact>
</mgrwt>
</event>
<event>
 4    1  0.2069825E-008  0.1988495E+04  0.7816531E-02  0.8612019E-01
         -1   -1    0    0    0  501 -0.00000000000E+00  0.00000000000E+00  0.77949558577E+03  0.77949558577E+03  0.00000000000E+00 0. -1.
          1   -1    0    0  501    0  0.00000000000E+00 -0.00000000000E+00 -0.12681632554E+04  0.12681632554E+04  0.00000000000E+00 0.  1.
    2000013    1    1    2    0    0  0.30187145631E+02  0.27269030607E+03 -0.13753499883E+03  0.99834219719E+03  0.95000000000E+03 0.  0.
   -2000013    1    1    2    0    0 -0.30187145631E+02 -0.27269030607E+03 -0.35113267076E+03  0.10493166439E+04  0.95000000000E+03 0.  0.
<mgrwt>
<rscale>  0 0.19884946E+04</rscale>
<asrwt>0</asrwt>
<pdfrwt beam="2">  1        1 0.19510204E+00 0.19884946E+04</pdfrwt>
<pdfrwt beam="1">  1       -1 0.11992240E+00 0.19884946E+04</pdfrwt>
<totfact> 0.54901330E+00</totfact>
</mgrwt>
</event>
<event>
 4    1  0.2069825E-008  0.2555117E+04  0.7816531E-02  0.8383609E-01
          2   -1    0    0  501    0  0.00000000000E+00  0.00000000000E+00  0.10849658049E+04  0.10849658049E+04  0.00000000000E+00 0.  1.
         -2   -1    0    0    0  501 -0.00000000000E+00 -0.00000000000E+00 -0.15043388586E+04  0.15043388586E+04  0.00000000000E+00 0. -1.
    2000013    1    1    2    0    0  0.64109366048E+03  0.52024462928E+03  0.12335427537E+02  0.12586928611E+04  0.95000000000E+03 0.  0.
   -2000013    1    1    2    0    0 -0.64109366048E+03 -0.52024462928E+03 -0.43170848130E+03  0.13306118024E+04  0.95000000000E+03 0.  0.
<mgrwt>
<rscale>  0 0.25551174E+04</rscale>
<asrwt>0</asrwt>
<pdfrwt beam="1">  1        2 0.16691782E+00 0.25551174E+04</pdfrwt>
<pdfrwt beam="2">  1       -2 0.23143675E+00 0.25551174E+04</pdfrwt>
<totfact> 0.16548417E+00</totfact>
</mgrwt>
</event>
<event>
 4    1  0.2069825E-008  0.4126156E+04  0.7816531E-02  0.7979570E-01
         -1   -1    0    0    0  501 -0.00000000000E+00  0.00000000000E+00  0.43917866660E+04  0.43917866660E+04  0.00000000000E+00 0. -1.
          1   -1    0    0  501    0  0.00000000000E+00 -0.00000000000E+00 -0.96914772625E+03  0.96914772625E+03  0.00000000000E+00 0.  1.
    2000013    1    1    2    0    0  0.36093496017E+03 -0.16976662554E+04  0.24705181748E+04  0.31651705819E+04  0.95000000000E+03 0.  0.
   -2000013    1    1    2    0    0 -0.36093496017E+03  0.16976662554E+04  0.95212076491E+03  0.21957638104E+04  0.95000000000E+03 0.  0.
<mgrwt>
<rscale>  0 0.41261556E+04</rscale>
<asrwt>0</asrwt>
<pdfrwt beam="2">  1        1 0.14909965E+00 0.41261556E+04</pdfrwt>
<pdfrwt beam="1">  1       -1 0.67565947E+00 0.41261556E+04</pdfrwt>
<totfact> 0.29986445E-03</totfact>
</mgrwt>
</event>
<event>
 4    1  0.2069825E-008  0.2132235E+04  0.7816531E-02  0.8547175E-01
          2   -1    0    0  501    0  0.00000000000E+00  0.00000000000E+00  0.15821062926E+04  0.15821062926E+04  0.00000000000E+00 0.  1.
         -2   -1    0    0    0  501 -0.00000000000E+00 -0.00000000000E+00 -0.71841355992E+03  0.71841355992E+03  0.00000000000E+00 0. -1.
    2000013    1    1    2    0    0  0.19094676395E+03  0.38270165958E+03  0.18774854931E+03  0.10586173741E+04  0.95000000000E+03 0.  0.
   -2000013    1    1    2    0    0 -0.19094676395E+03 -0.38270165958E+03  0.67594418334E+03  0.12419024784E+04  0.95000000000E+03 0.  0.
<mgrwt>
<rscale>  0 0.21322351E+04</rscale>
<asrwt>0</asrwt>
<pdfrwt beam="1">  1        2 0.24340097E+00 0.21322351E+04</pdfrwt>
<pdfrwt beam="2">  1       -2 0.11052516E+00 0.21322351E+04</pdfrwt>
<totfact> 0.68134450E+00</totfact>
</mgrwt>
</event>
<event>
 4    1  0.2069825E-008  0.2907525E+04  0.7816531E-02  0.8270642E-01
         -2   -1    0    0    0  501 -0.00000000000E+00  0.00000000000E+00  0.13434319706E+04  0.13434319706E+04  0.00000000000E+00 0. -1.
          2   -1    0    0  501    0  0.00000000000E+00 -0.00000000000E+00 -0.15731538774E+04  0.15731538774E+04  0.00000000000E+00 0.  1.
    2000013    1    1    2    0    0  0.25030433757E+02 -0.10359175357E+04 -0.48638464699E+03  0.14875556085E+04  0.95000000000E+03 0.  0.
   -2000013    1    1    2    0    0 -0.25030433757E+02  0.10359175357E+04  0.25666274011E+03  0.14290302396E+04  0.95000000000E+03 0.  0.
<mgrwt>
<rscale>  0 0.29075249E+04</rscale>
<asrwt>0</asrwt>
<pdfrwt beam="2">  1        2 0.24202367E+00 0.29075249E+04</pdfrwt>
<pdfrwt beam="1">  1       -2 0.20668184E+00 0.29075249E+04</pdfrwt>
<totfact> 0.11980617E+00</totfact>
</mgrwt>
</event>
<event>
 4    1  0.2069825E-008  0.3831225E+04  0.7816531E-02  0.8039487E-01
         -2   -1    0    0    0  501 -0.00000000000E+00  0.00000000000E+00  0.11056924067E+04  0.11056924067E+04  0.00000000000E+00 0. -1.
          2   -1    0    0  501    0  0.00000000000E+00 -0.00000000000E+00 -0.33187992340E+04  0.33187992340E+04  0.00000000000E+00 0.  1.
    2000013    1    1    2    0    0 -0.10665236464E+04  0.66463568702E+03  0.15210522551E+03  0.15826715656E+04  0.95000000000E+03 0.  0.
   -2000013    1    1    2    0    0  0.10665236464E+04 -0.66463568702E+03 -0.23652120528E+04  0.28418200751E+04  0.95000000000E+03 0.  0.
<mgrwt>
<rscale>  0 0.38312249E+04</rscale>
<asrwt>0</asrwt>
<pdfrwt beam="2">  1        2 0.51058450E+00 0.38312249E+04</pdfrwt>
<pdfrwt beam="1">  1       -2 0.17010652E+00 0.38312249E+04</pdfrwt>
<totfact> 0.18387997E-01</totfact>
</mgrwt>
</event>
<event>
 4    1  0.2069825E-008  0.2602439E+04  0.7816531E-02  0.8367373E-01
         -1   -1    0    0    0  501 -0.00000000000E+00  0.00000000000E+00  0.11157037354E+04  0.11157037354E+04  0.00000000000E+00 0. -1.
          1   -1    0    0  501    0  0.00000000000E+00 -0.00000000000E+00 -0.15175819504E+04  0.15175819504E+04  0.00000000000E+00 0.  1.
    2000013    1    1    2    0    0  0.31364124708E+03  0.80959725942E+03 -0.66915202862E+01  0.12869977975E+04  0.95000000000E+03 0.  0.
   -2000013    1    1    2    0    0 -0.31364124708E+03 -0.80959725942E+03 -0.39518669470E+03  0.13462878882E+04  0.95000000000E+03 0.  0.
<mgrwt>
<rscale>  0 0.26024387E+04</rscale>
<asrwt>0</asrwt>
<pdfrwt beam="2">  1        1 0.23347415E+00 0.26024387E+04</pdfrwt>
<pdfrwt beam="1">  1       -1 0.17164673E+00 0.26024387E+04</pdfrwt>
<totfact> 0.13403994E+00</totfact>
</mgrwt>
</event>
<event>
 4    1  0.2069825E-008  0.2839389E+04  0.7816531E-02  0.8291143E-01
          2   -1    0    0  501    0  0.00000000000E+00  0.00000000000E+00  0.29098141515E+04  0.29098141515E+04  0.00000000000E+00 0.  1.
         -2   -1    0    0    0  501 -0.00000000000E+00 -0.00000000000E+00 -0.69266726124E+03  0.69266726124E+03  0.00000000000E+00 0. -1.
    2000013    1    1    2    0    0  0.14285729112E+03  0.66328707523E+03  0.83570054817E+02  0.11704024538E+04  0.95000000000E+03 0.  0.
   -2000013    1    1    2    0    0 -0.14285729112E+03 -0.66328707523E+03  0.21335768354E+04  0.24320789589E+04  0.95000000000E+03 0.  0.
<mgrwt>
<rscale>  0 0.28393894E+04</rscale>
<asrwt>0</asrwt>
<pdfrwt beam="1">  1        2 0.44766371E+00 0.28393894E+04</pdfrwt>
<pdfrwt beam="2">  1       -2 0.10656420E+00 0.28393894E+04</pdfrwt>
<totfact> 0.12185235E+00</totfact>
</mgrwt>
</event>
<event>
 4    1  0.2069825E-008  0.2627841E+04  0.7816531E-02  0.8358805E-01
          2   -1    0    0  501    0  0.00000000000E+00  0.00000000000E+00  0.16552154038E+04  0.16552154038E+04  0.00000000000E+00 0.  1.
         -2   -1    0    0    0  501 -0.00000000000E+00 -0.00000000000E+00 -0.10429987862E+04  0.10429987862E+04  0.00000000000E+00 0. -1.
    2000013    1    1    2    0    0 -0.57572741142E+03 -0.67128047510E+03  0.51605432053E+03  0.13967432084E+04  0.95000000000E+03 0.  0.
   -2000013    1    1    2    0    0  0.57572741142E+03  0.67128047510E+03  0.96162297109E+02  0.13014709816E+04  0.95000000000E+03 0.  0.
<mgrwt>
<rscale>  0 0.26278414E+04</rscale>
<asrwt>0</asrwt>
<pdfrwt beam="1">  1        2 0.25464852E+00 0.26278414E+04</pdfrwt>
<pdfrwt beam="2">  1       -2 0.16046135E+00 0.26278414E+04</pdfrwt>
<totfact> 0.22913752E+00</totfact>
</mgrwt>
</event>
<event>
 4    1  0.2069825E-008  0.2461409E+04  0.7816531E-02  0.8416864E-01
          2   -1    0    0  501    0  0.00000000000E+00  0.00000000000E+00  0.12480882966E+04  0.12480882966E+04  0.00000000000E+00 0.  1.
         -2   -1    0    0    0  501 -0.00000000000E+00 -0.00000000000E+00 -0.12135628978E+04  0.12135628978E+04  0.00000000000E+00 0. -1.
    2000013    1    1    2    0    0  0.61698619111E+03  0.36608861859E+03  0.32944851664E+03  0.12352040972E+04  0.95000000000E+03 0.  0.
   -2000013    1    1    2    0    0 -0.61698619111E+03 -0.36608861859E+03 -0.29492311792E+03  0.12264470972E+04  0.95000000000E+03 0.  0.
<mgrwt>
<rscale>  0 0.24614091E+04</rscale>
<asrwt>0</asrwt>
<pdfrwt beam="1">  1        2 0.19201358E+00 0.24614091E+04</pdfrwt>
<pdfrwt beam="2">  1       -2 0.18670198E+00 0.24614091E+04</pdfrwt>
<totfact> 0.25886849E+00</totfact>
</mgrwt>
</event>
<event>
 4    1  0.2069825E-008  0.3177068E+04  0.7816531E-02  0.8194900E-01
          2   -1    0    0  501    0  0.00000000000E+00  0.00000000000E+00  0.17999615487E+04  0.17999615487E+04  0.00000000000E+00 0.  1.
         -2   -1    0    0    0  501 -0.00000000000E+00 -0.00000000000E+00 -0.14019408442E+04  0.14019408442E+04  0.00000000000E+00 0. -1.
    2000013    1    1    2    0    0  0.12694353702E+04 -0.89752474289E+02  0.16106036148E+03  0.15962337253E+04  0.95000000000E+03 0.  0.
   -2000013    1    1    2    0    0 -0.12694353702E+04  0.89752474289E+02  0.23696034306E+03  0.16056686676E+04  0.95000000000E+03 0.  0.
<mgrwt>
<rscale>  0 0.31770676E+04</rscale>
<asrwt>0</asrwt>
<pdfrwt beam="1">  1        2 0.27691716E+00 0.31770676E+04</pdfrwt>
<pdfrwt beam="2">  1       -2 0.21568321E+00 0.31770676E+04</pdfrwt>
<totfact> 0.76656703E-01</totfact>
</mgrwt>
</event>
<event>
 4    1  0.2069825E-008  0.3169440E+04  0.7816531E-02  0.8196935E-01
         -2   -1    0    0    0  501 -0.00000000000E+00  0.00000000000E+00  0.11420372179E+04  0.11420372179E+04  0.00000000000E+00 0. -1.
          2   -1    0    0  501    0  0.00000000000E+00 -0.00000000000E+00 -0.21989978215E+04  0.21989978215E+04  0.00000000000E+00 0.  1.
    2000013    1    1    2    0    0  0.10810022355E+04  0.65398661133E+03 -0.41028001346E+03  0.16331240034E+04  0.95000000000E+03 0.  0.
   -2000013    1    1    2    0    0 -0.10810022355E+04 -0.65398661133E+03 -0.64668059019E+03  0.17079110360E+04  0.95000000000E+03 0.  0.
<mgrwt>
<rscale>  0 0.31694399E+04</rscale>
<asrwt>0</asrwt>
<pdfrwt beam="2">  1        2 0.33830735E+00 0.31694399E+04</pdfrwt>
<pdfrwt beam="1">  1       -2 0.17569803E+00 0.31694399E+04</pdfrwt>
<totfact> 0.84798504E-01</totfact>
</mgrwt>
</event>
<event>
 4    1  0.2069825E-008  0.2484868E+04  0.7816531E-02  0.8408396E-01
         -2   -1    0    0    0  501 -0.00000000000E+00  0.00000000000E+00  0.58975146770E+03  0.58975146770E+03  0.00000000000E+00 0. -1.
          2   -1    0    0  501    0  0.00000000000E+00 -0.00000000000E+00 -0.26174445160E+04  0.26174445160E+04  0.00000000000E+00 0.  1.
    2000013    1    1    2    0    0 -0.60927201780E+03  0.96062709499E+02 -0.35483372057E+03  0.11869487795E+04  0.95000000000E+03 0.  0.
   -2000013    1    1    2    0    0  0.60927201780E+03 -0.96062709499E+02 -0.16728593277E+04  0.20202472042E+04  0.95000000000E+03 0.  0.
<mgrwt>
<rscale>  0 0.24848676E+04</rscale>
<asrwt>0</asrwt>
<pdfrwt beam="2">  1        2 0.40268377E+00 0.24848676E+04</pdfrwt>
<pdfrwt beam="1">  1       -2 0.90730995E-01 0.24848676E+04</pdfrwt>
<totfact> 0.27525395E+00</totfact>
</mgrwt>
</event>
<event>
 4    1  0.2069825E-008  0.2558522E+04  0.7816531E-02  0.8382428E-01
         -2   -1    0    0    0  501 -0.00000000000E+00  0.00000000000E+00  0.62903814445E+03  0.62903814445E+03  0.00000000000E+00 0. -1.
          2   -1    0    0  501    0  0.00000000000E+00 -0.00000000000E+00 -0.26016052870E+04  0.26016052870E+04  0.00000000000E+00 0.  1.
    2000013    1    1    2    0    0  0.53197171691E+03 -0.61587804029E+03 -0.64815056819E+03  0.14088643750E+04  0.95000000000E+03 0.  0.
   -2000013    1    1    2    0    0 -0.53197171691E+03  0.61587804029E+03 -0.13244165744E+04  0.18217790565E+04  0.95000000000E+03 0.  0.
<mgrwt>
<rscale>  0 0.25585222E+04</rscale>
<asrwt>0</asrwt>
<pdfrwt beam="2">  1        2 0.40024697E+00 0.25585222E+04</pdfrwt>
<pdfrwt beam="1">  1       -2 0.96775098E-01 0.25585222E+04</pdfrwt>
<totfact> 0.24048595E+00</totfact>
</mgrwt>
</event>
<event>
 4    1  0.2069825E-008  0.2752758E+04  0.7816531E-02  0.8318087E-01
         -1   -1    0    0    0  501 -0.00000000000E+00  0.00000000000E+00  0.15495211703E+04  0.15495211703E+04  0.00000000000E+00 0. -1.
          1   -1    0    0  501    0  0.00000000000E+00 -0.00000000000E+00 -0.12225838336E+04  0.12225838336E+04  0.00000000000E+00 0.  1.
    2000013    1    1    2    0    0 -0.30064938553E+03  0.47656456168E+03 -0.66353118967E+03  0.12885175490E+04  0.95000000000E+03 0.  0.
   -2000013    1    1    2    0    0  0.30064938553E+03 -0.47656456168E+03  0.99046852633E+03  0.14835874548E+04  0.95000000000E+03 0.  0.
<mgrwt>
<rscale>  0 0.27527583E+04</rscale>
<asrwt>0</asrwt>
<pdfrwt beam="2">  1        1 0.18808982E+00 0.27527583E+04</pdfrwt>
<pdfrwt beam="1">  1       -1 0.23838787E+00 0.27527583E+04</pdfrwt>
<totfact> 0.74289028E-01</totfact>
</mgrwt>
</event>
<event>
 4    1  0.2069825E-008  0.2775243E+04  0.7816531E-02  0.8310996E-01
         -2   -1    0    0    0  501 -0.00000000000E+00  0.00000000000E+00  0.11295056190E+04  0.11295056190E+04  0.00000000000E+00 0. -1.
          2   -1    0    0  501    0  0.00000000000E+00 -0.00000000000E+00 -0.17047223508E+04  0.17047223508E+04  0.00000000000E+00 0.  1.
    2000013    1    1    2    0    0 -0.55951947433E+03  0.83799238948E+03 -0.19799260521E+03  0.13989261448E+04  0.95000000000E+03 0.  0.
   -2000013    1    1    2    0    0  0.55951947433E+03 -0.83799238948E+03 -0.37722412661E+03  0.14353018249E+04  0.95000000000E+03 0.  0.
<mgrwt>
<rscale>  0 0.27752430E+04</rscale>
<asrwt>0</asrwt>
<pdfrwt beam="2">  1        2 0.26226498E+00 0.27752430E+04</pdfrwt>
<pdfrwt beam="1">  1       -2 0.17377010E+00 0.27752430E+04</pdfrwt>
<totfact> 0.17038118E+00</totfact>
</mgrwt>
</event>
<event>
 4    1  0.2069825E-008  0.3236186E+04  0.7816531E-02  0.8179325E-01
         -2   -1    0    0    0  501 -0.00000000000E+00  0.00000000000E+00  0.11018087031E+04  0.11018087031E+04  0.00000000000E+00 0. -1.
          2   -1    0    0  501    0  0.00000000000E+00 -0.00000000000E+00 -0.23762976987E+04  0.23762976987E+04  0.00000000000E+00 0.  1.
    2000013    1    1    2    0    0  0.16296728636E+03  0.12206153397E+04 -0.15748317932E+03  0.15632533690E+04  0.95000000000E+03 0.  0.
   -2000013    1    1    2    0    0 -0.16296728636E+03 -0.12206153397E+04 -0.11170058163E+04  0.19148530329E+04  0.95000000000E+03 0.  0.
<mgrwt>
<rscale>  0 0.32361863E+04</rscale>
<asrwt>0</asrwt>
<pdfrwt beam="2">  1        2 0.36558426E+00 0.32361863E+04</pdfrwt>
<pdfrwt beam="1">  1       -2 0.16950903E+00 0.32361863E+04</pdfrwt>
<totfact> 0.73981885E-01</totfact>
</mgrwt>
</event>
<event>
 4    1  0.2069825E-008  0.3826368E+04  0.7816531E-02  0.8040520E-01
          1   -1    0    0  501    0  0.00000000000E+00  0.00000000000E+00  0.26436099016E+04  0.26436099016E+04  0.00000000000E+00 0.  1.
         -1   -1    0    0    0  501 -0.00000000000E+00 -0.00000000000E+00 -0.13845740668E+04  0.13845740668E+04  0.00000000000E+00 0. -1.
    2000013    1    1    2    0    0 -0.15721771643E+04  0.11473147828E+03  0.79597417823E+02  0.18422106549E+04  0.95000000000E+03 0.  0.
   -2000013    1    1    2    0    0  0.15721771643E+04 -0.11473147828E+03  0.11794384170E+04  0.21859733135E+04  0.95000000000E+03 0.  0.
<mgrwt>
<rscale>  0 0.38263684E+04</rscale>
<asrwt>0</asrwt>
<pdfrwt beam="1">  1        1 0.40670922E+00 0.38263684E+04</pdfrwt>
<pdfrwt beam="2">  1       -1 0.21301140E+00 0.38263684E+04</pdfrwt>
<totfact> 0.10470208E-01</totfact>
</mgrwt>
</event>
<event>
 4    1  0.2069825E-008  0.1958497E+04  0.7816531E-02  0.8626274E-01
         -2   -1    0    0    0  501 -0.00000000000E+00  0.00000000000E+00  0.50626942038E+03  0.50626942038E+03  0.00000000000E+00 0. -1.
          2   -1    0    0  501    0  0.00000000000E+00 -0.00000000000E+00 -0.18941046293E+04  0.18941046293E+04  0.00000000000E+00 0.  1.
    2000013    1    1    2    0    0  0.12016190925E+03 -0.17207444652E+02 -0.44366196162E+03  0.10554955788E+04  0.95000000000E+03 0.  0.
   -2000013    1    1    2    0    0 -0.12016190925E+03  0.17207444652E+02 -0.94417324727E+03  0.13448784709E+04  0.95000000000E+03 0.  0.
<mgrwt>
<rscale>  0 0.19584966E+04</rscale>
<asrwt>0</asrwt>
<pdfrwt beam="2">  1        2 0.29140071E+00 0.19584966E+04</pdfrwt>
<pdfrwt beam="1">  1       -2 0.77887604E-01 0.19584966E+04</pdfrwt>
<totfact> 0.10467879E+01</totfact>
</mgrwt>
</event>
<event>
 4    1  0.2069825E-008  0.2200007E+04  0.7816531E-02  0.8518425E-01
          2   -1    0    0  501    0  0.00000000000E+00  0.00000000000E+00  0.36421352878E+04  0.36421352878E+04  0.00000000000E+00 0.  1.
         -2   -1    0    0    0  501 -0.00000000000E+00 -0.00000000000E+00 -0.33222468994E+03  0.33222468994E+03  0.00000000000E+00 0. -1.
    2000013    1    1    2    0    0  0.57432175711E+02 -0.36363756374E+03  0.90578972535E+03  0.13632629090E+04  0.95000000000E+03 0.  0.
   -2000013    1    1    2    0    0 -0.57432175711E+02  0.36363756374E+03  0.24041208725E+04  0.26110970687E+04  0.95000000000E+03 0.  0.
<mgrwt>
<rscale>  0 0.22000066E+04</rscale>
<asrwt>0</asrwt>
<pdfrwt beam="1">  1        2 0.56032848E+00 0.22000066E+04</pdfrwt>
<pdfrwt beam="2">  1       -2 0.51111493E-01 0.22000066E+04</pdfrwt>
<totfact> 0.21376299E+00</totfact>
</mgrwt>
</event>
<event>
 4    1  0.2069825E-008  0.2125768E+04  0.7816531E-02  0.8549977E-01
          1   -1    0    0  501    0  0.00000000000E+00  0.00000000000E+00  0.12323324739E+04  0.12323324739E+04  0.00000000000E+00 0.  1.
         -1   -1    0    0    0  501 -0.00000000000E+00 -0.00000000000E+00 -0.91673499077E+03  0.91673499077E+03  0.00000000000E+00 0. -1.
    2000013    1    1    2    0    0 -0.10773211721E+03  0.39736182960E+03 -0.85083693976E+02  0.10388656639E+04  0.95000000000E+03 0.  0.
   -2000013    1    1    2    0    0  0.10773211721E+03 -0.39736182960E+03  0.40068117711E+03  0.11102018008E+04  0.95000000000E+03 0.  0.
<mgrwt>
<rscale>  0 0.21257679E+04</rscale>
<asrwt>0</asrwt>
<pdfrwt beam="1">  1        1 0.18958961E+00 0.21257679E+04</pdfrwt>
<pdfrwt beam="2">  1       -1 0.14103615E+00 0.21257679E+04</pdfrwt>
<totfact> 0.38185732E+00</totfact>
</mgrwt>
</event>
<event>
 4    1  0.2069825E-008  0.2270210E+04  0.7816531E-02  0.8489760E-01
         -2   -1    0    0    0  501 -0.00000000000E+00  0.00000000000E+00  0.62910870404E+03  0.62910870404E+03  0.00000000000E+00 0. -1.
          2   -1    0    0  501    0  0.00000000000E+00 -0.00000000000E+00 -0.20480780563E+04  0.20480780563E+04  0.00000000000E+00 0.  1.
    2000013    1    1    2    0    0 -0.48309008502E+03  0.37548893816E+03 -0.83647252355E+03  0.14058998028E+04  0.95000000000E+03 0.  0.
   -2000013    1    1    2    0    0  0.48309008502E+03 -0.37548893816E+03 -0.58249682875E+03  0.12712869575E+04  0.95000000000E+03 0.  0.
<mgrwt>
<rscale>  0 0.22702103E+04</rscale>
<asrwt>0</asrwt>
<pdfrwt beam="2">  1        2 0.31508893E+00 0.22702103E+04</pdfrwt>
<pdfrwt beam="1">  1       -2 0.96785955E-01 0.22702103E+04</pdfrwt>
<totfact> 0.50928697E+00</totfact>
</mgrwt>
</event>
<event>
 4    1  0.2069825E-008  0.2399014E+04  0.7816531E-02  0.8439873E-01
         -2   -1    0    0    0  501 -0.00000000000E+00  0.00000000000E+00  0.12264565922E+04  0.12264565922E+04  0.00000000000E+00 0.  1.
          2   -1    0    0  501    0  0.00000000000E+00 -0.00000000000E+00 -0.11731498754E+04  0.11731498754E+04  0.00000000000E+00 0. -1.
    2000013    1    1    2    0    0 -0.21822070437E+03 -0.54253718356E+03  0.46761422457E+03  0.12095990800E+04  0.95000000000E+03 0.  0.
   -2000013    1    1    2    0    0  0.21822070437E+03  0.54253718356E+03 -0.41430750775E+03  0.11900073875E+04  0.95000000000E+03 0.  0.
<mgrwt>
<rscale>  0 0.23990143E+04</rscale>
<asrwt>0</asrwt>
<pdfrwt beam="2">  1        2 0.18048460E+00 0.23990143E+04</pdfrwt>
<pdfrwt beam="1">  1       -2 0.18868563E+00 0.23990143E+04</pdfrwt>
<totfact> 0.27964048E+00</totfact>
</mgrwt>
</event>
<event>
 4    1  0.2069825E-008  0.2234315E+04  0.7816531E-02  0.8504280E-01
         -2   -1    0    0    0  501 -0.00000000000E+00  0.00000000000E+00  0.65755717414E+03  0.65755717414E+03  0.00000000000E+00 0. -1.
          2   -1    0    0  501    0  0.00000000000E+00 -0.00000000000E+00 -0.18979956508E+04  0.18979956508E+04  0.00000000000E+00 0.  1.
    2000013    1    1    2    0    0 -0.47628705411E+03  0.33726169050E+03 -0.70065719147E+03  0.13168201494E+04  0.95000000000E+03 0.  0.
   -2000013    1    1    2    0    0  0.47628705411E+03 -0.33726169050E+03 -0.53978128523E+03  0.12387326756E+04  0.95000000000E+03 0.  0.
<mgrwt>
<rscale>  0 0.22343148E+04</rscale>
<asrwt>0</asrwt>
<pdfrwt beam="2">  1        2 0.29199933E+00 0.22343148E+04</pdfrwt>
<pdfrwt beam="1">  1       -2 0.10116264E+00 0.22343148E+04</pdfrwt>
<totfact> 0.55760055E+00</totfact>
</mgrwt>
</event>
<event>
 4    1  0.2069825E-008  0.1990915E+04  0.7816531E-02  0.8610880E-01
         -2   -1    0    0    0  501 -0.00000000000E+00  0.00000000000E+00  0.47447293106E+03  0.47447293106E+03  0.00000000000E+00 0. -1.
          2   -1    0    0  501    0  0.00000000000E+00 -0.00000000000E+00 -0.20884967371E+04  0.20884967371E+04  0.00000000000E+00 0.  1.
    2000013    1    1    2    0    0  0.15572121240E+03  0.19785502694E+03 -0.10107176752E+04  0.14097680400E+04  0.95000000000E+03 0.  0.
   -2000013    1    1    2    0    0 -0.15572121240E+03 -0.19785502694E+03 -0.60330613085E+03  0.11532016282E+04  0.95000000000E+03 0.  0.
<mgrwt>
<rscale>  0 0.19909145E+04</rscale>
<asrwt>0</asrwt>
<pdfrwt beam="2">  1        2 0.32130719E+00 0.19909145E+04</pdfrwt>
<pdfrwt beam="1">  1       -2 0.72995836E-01 0.19909145E+04</pdfrwt>
<totfact> 0.94000000E+00</totfact>
</mgrwt>
</event>
<event>
 4    1  0.2069825E-008  0.2286134E+04  0.7816531E-02  0.8483409E-01
         -2   -1    0    0    0  501 -0.00000000000E+00  0.00000000000E+00  0.82658558732E+03  0.82658558732E+03  0.00000000000E+00 0. -1.
          2   -1    0    0  501    0  0.00000000000E+00 -0.00000000000E+00 -0.15807217417E+04  0.15807217417E+04  0.00000000000E+00 0.  1.
    2000013    1    1    2    0    0 -0.34440398670E+03 -0.50610876391E+03 -0.55744126295E+03  0.12601590965E+04  0.95000000000E+03 0.  0.
   -2000013    1    1    2    0    0  0.34440398670E+03  0.50610876391E+03 -0.19669489142E+03  0.11471482325E+04  0.95000000000E+03 0.  0.
<mgrwt>
<rscale>  0 0.22861337E+04</rscale>
<asrwt>0</asrwt>
<pdfrwt beam="2">  1        2 0.24318796E+00 0.22861337E+04</pdfrwt>
<pdfrwt beam="1">  1       -2 0.12716701E+00 0.22861337E+04</pdfrwt>
<totfact> 0.47656144E+00</totfact>
</mgrwt>
</event>
<event>
 4    1  0.2069825E-008  0.2435715E+04  0.7816531E-02  0.8426252E-01
          1   -1    0    0  501    0  0.00000000000E+00  0.00000000000E+00  0.24982547965E+04  0.24982547965E+04  0.00000000000E+00 0.  1.
         -1   -1    0    0    0  501 -0.00000000000E+00 -0.00000000000E+00 -0.59368513264E+03  0.59368513264E+03  0.00000000000E+00 0. -1.
    2000013    1    1    2    0    0 -0.70181532172E+03 -0.25162417911E+03  0.11522624951E+04  0.16691519795E+04  0.95000000000E+03 0.  0.
   -2000013    1    1    2    0    0  0.70181532172E+03  0.25162417911E+03  0.75230716883E+03  0.14227879496E+04  0.95000000000E+03 0.  0.
<mgrwt>
<rscale>  0 0.24357149E+04</rscale>
<asrwt>0</asrwt>
<pdfrwt beam="1">  1        1 0.38434688E+00 0.24357149E+04</pdfrwt>
<pdfrwt beam="2">  1       -1 0.91336176E-01 0.24357149E+04</pdfrwt>
<totfact> 0.14185570E+00</totfact>
</mgrwt>
</event>
<event>
 4    1  0.2069825E-008  0.2789552E+04  0.7816531E-02  0.8306520E-01
          2   -1    0    0  501    0  0.00000000000E+00  0.00000000000E+00  0.19056332353E+04  0.19056332353E+04  0.00000000000E+00 0.  1.
         -2   -1    0    0    0  501 -0.00000000000E+00 -0.00000000000E+00 -0.10208677379E+04  0.10208677379E+04  0.00000000000E+00 0. -1.
    2000013    1    1    2    0    0  0.30446152017E+02  0.97085332987E+03  0.11159977259E+03  0.13632452698E+04  0.95000000000E+03 0.  0.
   -2000013    1    1    2    0    0 -0.30446152017E+02 -0.97085332987E+03  0.77316572484E+03  0.15632557034E+04  0.95000000000E+03 0.  0.
<mgrwt>
<rscale>  0 0.27895516E+04</rscale>
<asrwt>0</asrwt>
<pdfrwt beam="1">  1        2 0.29317435E+00 0.27895516E+04</pdfrwt>
<pdfrwt beam="2">  1       -2 0.15705657E+00 0.27895516E+04</pdfrwt>
<totfact> 0.17396042E+00</totfact>
</mgrwt>
</event>
<event>
 4    1  0.2069825E-008  0.3233134E+04  0.7816531E-02  0.8180121E-01
         -2   -1    0    0    0  501 -0.00000000000E+00  0.00000000000E+00  0.18780442705E+04  0.18780442705E+04  0.00000000000E+00 0. -1.
          2   -1    0    0  501    0  0.00000000000E+00 -0.00000000000E+00 -0.13914951336E+04  0.13914951336E+04  0.00000000000E+00 0.  1.
    2000013    1    1    2    0    0  0.74400107633E+03 -0.10347830239E+04 -0.54104573872E+02  0.15905158953E+04  0.95000000000E+03 0.  0.
   -2000013    1    1    2    0    0 -0.74400107633E+03  0.10347830239E+04  0.54065371081E+03  0.16790235088E+04  0.95000000000E+03 0.  0.
<mgrwt>
<rscale>  0 0.32331344E+04</rscale>
<asrwt>0</asrwt>
<pdfrwt beam="2">  1        2 0.21407617E+00 0.32331344E+04</pdfrwt>
<pdfrwt beam="1">  1       -2 0.28892989E+00 0.32331344E+04</pdfrwt>
<totfact> 0.45644615E-01</totfact>
</mgrwt>
</event>
<event>
 4    1  0.2069825E-008  0.2397665E+04  0.7816531E-02  0.8440378E-01
          2   -1    0    0  501    0  0.00000000000E+00  0.00000000000E+00  0.27061908040E+04  0.27061908040E+04  0.00000000000E+00 0.  1.
         -2   -1    0    0    0  501 -0.00000000000E+00 -0.00000000000E+00 -0.53107842590E+03  0.53107842590E+03  0.00000000000E+00 0. -1.
    2000013    1    1    2    0    0  0.44979807695E+03  0.56412420123E+03  0.92697534857E+03  0.15107407856E+04  0.95000000000E+03 0.  0.
   -2000013    1    1    2    0    0 -0.44979807695E+03 -0.56412420123E+03  0.12481370295E+04  0.17265284443E+04  0.95000000000E+03 0.  0.
<mgrwt>
<rscale>  0 0.23976652E+04</rscale>
<asrwt>0</asrwt>
<pdfrwt beam="1">  1        2 0.41633704E+00 0.23976652E+04</pdfrwt>
<pdfrwt beam="2">  1       -2 0.81704375E-01 0.23976652E+04</pdfrwt>
<totfact> 0.31215433E+00</totfact>
</mgrwt>
</event>
<event>
 4    1  0.2069825E-008  0.2827018E+04  0.7816531E-02  0.8294929E-01
         -2   -1    0    0    0  501 -0.00000000000E+00  0.00000000000E+00  0.16060178584E+04  0.16060178584E+04  0.00000000000E+00 0.  1.
          2   -1    0    0  501    0  0.00000000000E+00 -0.00000000000E+00 -0.12440753683E+04  0.12440753683E+04  0.00000000000E+00 0. -1.
    2000013    1    1    2    0    0 -0.86881634260E+03 -0.14002899157E+03  0.75221546146E+03  0.14975907505E+04  0.95000000000E+03 0.  0.
   -2000013    1    1    2    0    0  0.86881634260E+03  0.14002899157E+03 -0.39027297137E+03  0.13525024761E+04  0.95000000000E+03 0.  0.
<mgrwt>
<rscale>  0 0.28270177E+04</rscale>
<asrwt>0</asrwt>
<pdfrwt beam="2">  1        2 0.19139621E+00 0.28270177E+04</pdfrwt>
<pdfrwt beam="1">  1       -2 0.24707967E+00 0.28270177E+04</pdfrwt>
<totfact> 0.10369422E+00</totfact>
</mgrwt>
</event>
<event>
 4    1  0.2069825E-008  0.2422936E+04  0.7816531E-02  0.8430966E-01
          2   -1    0    0  501    0  0.00000000000E+00  0.00000000000E+00  0.29738208085E+04  0.29738208085E+04  0.00000000000E+00 0.  1.
         -2   -1    0    0    0  501 -0.00000000000E+00 -0.00000000000E+00 -0.49352495387E+03  0.49352495387E+03  0.00000000000E+00 0. -1.
    2000013    1    1    2    0    0  0.38141545004E+03 -0.63661614207E+03  0.10684401418E+04  0.16108451802E+04  0.95000000000E+03 0.  0.
   -2000013    1    1    2    0    0 -0.38141545004E+03  0.63661614207E+03  0.14118557128E+04  0.18565005822E+04  0.95000000000E+03 0.  0.
<mgrwt>
<rscale>  0 0.24229361E+04</rscale>
<asrwt>0</asrwt>
<pdfrwt beam="1">  1        2 0.45751088E+00 0.24229361E+04</pdfrwt>
<pdfrwt beam="2">  1       -2 0.75926918E-01 0.24229361E+04</pdfrwt>
<totfact> 0.25224396E+00</totfact>
</mgrwt>
</event>
<event>
 4    1  0.2069825E-008  0.2165390E+04  0.7816531E-02  0.8532973E-01
          2   -1    0    0  501    0  0.00000000000E+00  0.00000000000E+00  0.22893358044E+04  0.22893358044E+04  0.00000000000E+00 0.  1.
         -2   -1    0    0    0  501 -0.00000000000E+00 -0.00000000000E+00 -0.51203865167E+03  0.51203865167E+03  0.00000000000E+00 0. -1.
    2000013    1    1    2    0    0 -0.49348503194E+03 -0.16021391573E+03  0.91850045022E+03  0.14196263778E+04  0.95000000000E+03 0.  0.
   -2000013    1    1    2    0    0  0.49348503194E+03  0.16021391573E+03  0.85879670252E+03  0.13817480783E+04  0.95000000000E+03 0.  0.
<mgrwt>
<rscale>  0 0.21653900E+04</rscale>
<asrwt>0</asrwt>
<pdfrwt beam="1">  1        2 0.35220550E+00 0.21653900E+04</pdfrwt>
<pdfrwt beam="2">  1       -2 0.78775178E-01 0.21653900E+04</pdfrwt>
<totfact> 0.60301637E+00</totfact>
</mgrwt>
</event>
<event>
 4    1  0.2069825E-008  0.2785639E+04  0.7816531E-02  0.8307741E-01
         -2   -1    0    0    0  501 -0.00000000000E+00  0.00000000000E+00  0.70366626722E+03  0.70366626722E+03  0.00000000000E+00 0. -1.
          2   -1    0    0  501    0  0.00000000000E+00 -0.00000000000E+00 -0.27569114567E+04  0.27569114567E+04  0.00000000000E+00 0.  1.
    2000013    1    1    2    0    0 -0.85522874029E+03  0.92658943463E+01 -0.17137614071E+04  0.21379850831E+04  0.95000000000E+03 0.  0.
   -2000013    1    1    2    0    0  0.85522874029E+03 -0.92658943463E+01 -0.33948378235E+03  0.13225926408E+04  0.95000000000E+03 0.  0.
<mgrwt>
<rscale>  0 0.27856386E+04</rscale>
<asrwt>0</asrwt>
<pdfrwt beam="2">  1        2 0.42414024E+00 0.27856386E+04</pdfrwt>
<pdfrwt beam="1">  1       -2 0.10825635E+00 0.27856386E+04</pdfrwt>
<totfact> 0.14601405E+00</totfact>
</mgrwt>
</event>
<event>
 4    1  0.2069825E-008  0.2367206E+04  0.7816531E-02  0.8451884E-01
         -2   -1    0    0    0  501 -0.00000000000E+00  0.00000000000E+00  0.51077524094E+03  0.51077524094E+03  0.00000000000E+00 0. -1.
          2   -1    0    0  501    0  0.00000000000E+00 -0.00000000000E+00 -0.27427243515E+04  0.27427243515E+04  0.00000000000E+00 0.  1.
    2000013    1    1    2    0    0 -0.42177878020E+03 -0.48710926998E+03 -0.15125158233E+04  0.18987830039E+04  0.95000000000E+03 0.  0.
   -2000013    1    1    2    0    0  0.42177878020E+03  0.48710926998E+03 -0.71943328726E+03  0.13547165885E+04  0.95000000000E+03 0.  0.
<mgrwt>
<rscale>  0 0.23672057E+04</rscale>
<asrwt>0</asrwt>
<pdfrwt beam="2">  1        2 0.42195760E+00 0.23672057E+04</pdfrwt>
<pdfrwt beam="1">  1       -2 0.78580805E-01 0.23672057E+04</pdfrwt>
<totfact> 0.32490296E+00</totfact>
</mgrwt>
</event>
<event>
 4    1  0.2069825E-008  0.3331750E+04  0.7816531E-02  0.8154863E-01
          2   -1    0    0  501    0  0.00000000000E+00  0.00000000000E+00  0.28795582510E+04  0.28795582510E+04  0.00000000000E+00 0.  1.
         -2   -1    0    0    0  501 -0.00000000000E+00 -0.00000000000E+00 -0.96373773371E+03  0.96373773371E+03  0.00000000000E+00 0. -1.
    2000013    1    1    2    0    0  0.11782583209E+04  0.52243277637E+03  0.42752126007E+03  0.16572577061E+04  0.95000000000E+03 0.  0.
   -2000013    1    1    2    0    0 -0.11782583209E+04 -0.52243277637E+03  0.14882992572E+04  0.21860382786E+04  0.95000000000E+03 0.  0.
<mgrwt>
<rscale>  0 0.33317497E+04</rscale>
<asrwt>0</asrwt>
<pdfrwt beam="1">  1        2 0.44300896E+00 0.33317497E+04</pdfrwt>
<pdfrwt beam="2">  1       -2 0.14826735E+00 0.33317497E+04</pdfrwt>
<totfact> 0.53201538E-01</totfact>
</mgrwt>
</event>
<event>
 4    1  0.2069825E-008  0.2602005E+04  0.7816531E-02  0.8367520E-01
          2   -1    0    0  501    0  0.00000000000E+00  0.00000000000E+00  0.17500810514E+04  0.17500810514E+04  0.00000000000E+00 0.  1.
         -2   -1    0    0    0  501 -0.00000000000E+00 -0.00000000000E+00 -0.96715945569E+03  0.96715945569E+03  0.00000000000E+00 0. -1.
    2000013    1    1    2    0    0  0.64066173891E+03  0.37804669351E+03  0.89956922649E+03  0.15050221126E+04  0.95000000000E+03 0.  0.
   -2000013    1    1    2    0    0 -0.64066173891E+03 -0.37804669351E+03 -0.11664763077E+03  0.12122183945E+04  0.95000000000E+03 0.  0.
<mgrwt>
<rscale>  0 0.26020049E+04</rscale>
<asrwt>0</asrwt>
<pdfrwt beam="1">  1        2 0.26924324E+00 0.26020049E+04</pdfrwt>
<pdfrwt beam="2">  1       -2 0.14879376E+00 0.26020049E+04</pdfrwt>
<totfact> 0.24903517E+00</totfact>
</mgrwt>
</event>
<event>
 4    1  0.2069825E-008  0.2204359E+04  0.7816531E-02  0.8516616E-01
         -2   -1    0    0    0  501 -0.00000000000E+00  0.00000000000E+00  0.45934743346E+03  0.45934743346E+03  0.00000000000E+00 0. -1.
          2   -1    0    0  501    0  0.00000000000E+00 -0.00000000000E+00 -0.26446208184E+04  0.26446208184E+04  0.00000000000E+00 0.  1.
    2000013    1    1    2    0    0 -0.53110585964E+03  0.10728917231E+03 -0.90000208964E+03  0.14163644171E+04  0.95000000000E+03 0.  0.
   -2000013    1    1    2    0    0  0.53110585964E+03 -0.10728917231E+03 -0.12852712953E+04  0.16876038348E+04  0.95000000000E+03 0.  0.
<mgrwt>
<rscale>  0 0.22043591E+04</rscale>
<asrwt>0</asrwt>
<pdfrwt beam="2">  1        2 0.40686475E+00 0.22043591E+04</pdfrwt>
<pdfrwt beam="1">  1       -2 0.70668834E-01 0.22043591E+04</pdfrwt>
<totfact> 0.47664655E+00</totfact>
</mgrwt>
</event>
<event>
 4    1  0.2069825E-008  0.2169939E+04  0.7816531E-02  0.8531045E-01
          1   -1    0    0  501    0  0.00000000000E+00  0.00000000000E+00  0.10421642795E+04  0.10421642795E+04  0.00000000000E+00 0.  1.
         -1   -1    0    0    0  501 -0.00000000000E+00 -0.00000000000E+00 -0.11295330481E+04  0.11295330481E+04  0.00000000000E+00 0. -1.
    2000013    1    1    2    0    0 -0.52393232948E+03  0.38394069982E+01 -0.55490903226E+02  0.10863236476E+04  0.95000000000E+03 0.  0.
   -2000013    1    1    2    0    0  0.52393232948E+03 -0.38394069982E+01 -0.31877865400E+02  0.10853736800E+04  0.95000000000E+03 0.  0.
<mgrwt>
<rscale>  0 0.21699392E+04</rscale>
<asrwt>0</asrwt>
<pdfrwt beam="1">  1        1 0.16033297E+00 0.21699392E+04</pdfrwt>
<pdfrwt beam="2">  1       -1 0.17377432E+00 0.21699392E+04</pdfrwt>
<totfact> 0.29618080E+00</totfact>
</mgrwt>
</event>
<event>
 4    1  0.2069825E-008  0.2039943E+04  0.7816531E-02  0.8588171E-01
         -2   -1    0    0    0  501 -0.00000000000E+00  0.00000000000E+00  0.66065972544E+03  0.66065972544E+03  0.00000000000E+00 0. -1.
          2   -1    0    0  501    0  0.00000000000E+00 -0.00000000000E+00 -0.15747010687E+04  0.15747010687E+04  0.00000000000E+00 0.  1.
    2000013    1    1    2    0    0 -0.20977403950E+03 -0.25500709248E+03 -0.64300861189E+03  0.11937310584E+04  0.95000000000E+03 0.  0.
   -2000013    1    1    2    0    0  0.20977403950E+03  0.25500709248E+03 -0.27103273136E+03  0.10416297357E+04  0.95000000000E+03 0.  0.
<mgrwt>
<rscale>  0 0.20399427E+04</rscale>
<asrwt>0</asrwt>
<pdfrwt beam="2">  1        2 0.24226170E+00 0.20399427E+04</pdfrwt>
<pdfrwt beam="1">  1       -2 0.10163996E+00 0.20399427E+04</pdfrwt>
<totfact> 0.84795104E+00</totfact>
</mgrwt>
</event>
<event>
 4    1  0.2069825E-008  0.2290584E+04  0.7816531E-02  0.8481643E-01
         -2   -1    0    0    0  501 -0.00000000000E+00  0.00000000000E+00  0.19051409522E+04  0.19051409522E+04  0.00000000000E+00 0. -1.
          2   -1    0    0  501    0  0.00000000000E+00 -0.00000000000E+00 -0.68850206628E+03  0.68850206628E+03  0.00000000000E+00 0.  1.
    2000013    1    1    2    0    0 -0.40544610794E+03 -0.43508887003E+02  0.50247460908E+02  0.10350383457E+04  0.95000000000E+03 0.  0.
   -2000013    1    1    2    0    0  0.40544610794E+03  0.43508887003E+02  0.11663914250E+04  0.15586046728E+04  0.95000000000E+03 0.  0.
<mgrwt>
<rscale>  0 0.22905838E+04</rscale>
<asrwt>0</asrwt>
<pdfrwt beam="2">  1        2 0.10592340E+00 0.22905838E+04</pdfrwt>
<pdfrwt beam="1">  1       -2 0.29309861E+00 0.22905838E+04</pdfrwt>
<totfact> 0.13301828E+00</totfact>
</mgrwt>
</event>
<event>
 4    1  0.2069825E-008  0.2058979E+04  0.7816531E-02  0.8579532E-01
         -2   -1    0    0    0  501 -0.00000000000E+00  0.00000000000E+00  0.11778488443E+04  0.11778488443E+04  0.00000000000E+00 0. -1.
          2   -1    0    0  501    0  0.00000000000E+00 -0.00000000000E+00 -0.89981693262E+03  0.89981693262E+03  0.00000000000E+00 0.  1.
    2000013    1    1    2    0    0 -0.37182754791E+03  0.10786938949E+03  0.22615247010E+03  0.10504934413E+04  0.95000000000E+03 0.  0.
   -2000013    1    1    2    0    0  0.37182754791E+03 -0.10786938949E+03  0.51879441606E+02  0.10271723356E+04  0.95000000000E+03 0.  0.
<mgrwt>
<rscale>  0 0.20589787E+04</rscale>
<asrwt>0</asrwt>
<pdfrwt beam="2">  1        2 0.13843337E+00 0.20589787E+04</pdfrwt>
<pdfrwt beam="1">  1       -2 0.18120751E+00 0.20589787E+04</pdfrwt>
<totfact> 0.48223010E+00</totfact>
</mgrwt>
</event>
<event>
 4    1  0.2069825E-008  0.2026253E+04  0.7816531E-02  0.8594444E-01
          1   -1    0    0  501    0  0.00000000000E+00  0.00000000000E+00  0.27973460394E+04  0.27973460394E+04  0.00000000000E+00 0.  1.
         -1   -1    0    0    0  501 -0.00000000000E+00 -0.00000000000E+00 -0.36692842426E+03  0.36692842426E+03  0.00000000000E+00 0. -1.
    2000013    1    1    2    0    0  0.32777486460E+03  0.58924823745E+02  0.13933812199E+04  0.17189879932E+04  0.95000000000E+03 0.  0.
   -2000013    1    1    2    0    0 -0.32777486460E+03 -0.58924823745E+02  0.10370363952E+04  0.14452864705E+04  0.95000000000E+03 0.  0.
<mgrwt>
<rscale>  0 0.20262535E+04</rscale>
<asrwt>0</asrwt>
<pdfrwt beam="1">  1        1 0.43036092E+00 0.20262535E+04</pdfrwt>
<pdfrwt beam="2">  1       -1 0.56450529E-01 0.20262535E+04</pdfrwt>
<totfact> 0.24630794E+00</totfact>
</mgrwt>
</event>
<event>
 4    1  0.2069825E-008  0.2071057E+04  0.7816531E-02  0.8574101E-01
         -2   -1    0    0    0  501 -0.00000000000E+00  0.00000000000E+00  0.86589891842E+03  0.86589891842E+03  0.00000000000E+00 0. -1.
          2   -1    0    0  501    0  0.00000000000E+00 -0.00000000000E+00 -0.12383885442E+04  0.12383885442E+04  0.00000000000E+00 0.  1.
    2000013    1    1    2    0    0 -0.29905716688E+03 -0.25037903661E+03 -0.32139963457E+03  0.10760681094E+04  0.95000000000E+03 0.  0.
   -2000013    1    1    2    0    0  0.29905716688E+03  0.25037903661E+03 -0.51089991190E+02  0.10282193532E+04  0.95000000000E+03 0.  0.
<mgrwt>
<rscale>  0 0.20710570E+04</rscale>
<asrwt>0</asrwt>
<pdfrwt beam="2">  1        2 0.19052131E+00 0.20710570E+04</pdfrwt>
<pdfrwt beam="1">  1       -2 0.13321522E+00 0.20710570E+04</pdfrwt>
<totfact> 0.67758995E+00</totfact>
</mgrwt>
</event>
<event>
 4    1  0.2069825E-008  0.4888981E+04  0.7816531E-02  0.7845865E-01
          2   -1    0    0  501    0  0.00000000000E+00  0.00000000000E+00  0.24334485822E+04  0.24334485822E+04  0.00000000000E+00 0.  1.
         -2   -1    0    0    0  501 -0.00000000000E+00 -0.00000000000E+00 -0.24555828042E+04  0.24555828042E+04  0.00000000000E+00 0. -1.
    2000013    1    1    2    0    0 -0.15017455716E+04 -0.16250835485E+04 -0.43166408890E+03  0.24464198714E+04  0.95000000000E+03 0.  0.
   -2000013    1    1    2    0    0  0.15017455716E+04  0.16250835485E+04  0.40952986684E+03  0.24426115150E+04  0.95000000000E+03 0.  0.
<mgrwt>
<rscale>  0 0.48889813E+04</rscale>
<asrwt>0</asrwt>
<pdfrwt beam="1">  1        2 0.37437671E+00 0.48889813E+04</pdfrwt>
<pdfrwt beam="2">  1       -2 0.37778197E+00 0.48889813E+04</pdfrwt>
<totfact> 0.28913375E-02</totfact>
</mgrwt>
</event>
<event>
 4    1  0.2069825E-008  0.3255474E+04  0.7816531E-02  0.8174318E-01
          2   -1    0    0  501    0  0.00000000000E+00  0.00000000000E+00  0.14406904478E+04  0.14406904478E+04  0.00000000000E+00 0.  1.
         -2   -1    0    0    0  501 -0.00000000000E+00 -0.00000000000E+00 -0.18390681839E+04  0.18390681839E+04  0.00000000000E+00 0. -1.
    2000013    1    1    2    0    0 -0.41319700058E+03 -0.12285633821E+04  0.61445853976E+02  0.16082211720E+04  0.95000000000E+03 0.  0.
   -2000013    1    1    2    0    0  0.41319700058E+03  0.12285633821E+04 -0.45982359010E+03  0.16715374597E+04  0.95000000000E+03 0.  0.
<mgrwt>
<rscale>  0 0.32554741E+04</rscale>
<asrwt>0</asrwt>
<pdfrwt beam="1">  1        2 0.22164469E+00 0.32554741E+04</pdfrwt>
<pdfrwt beam="2">  1       -2 0.28293356E+00 0.32554741E+04</pdfrwt>
<totfact> 0.46462524E-01</totfact>
</mgrwt>
</event>
<event>
 4    1  0.2069825E-008  0.2617362E+04  0.7816531E-02  0.8362328E-01
          2   -1    0    0  501    0  0.00000000000E+00  0.00000000000E+00  0.10226485638E+04  0.10226485638E+04  0.00000000000E+00 0.  1.
         -2   -1    0    0    0  501 -0.00000000000E+00 -0.00000000000E+00 -0.16747159486E+04  0.16747159486E+04  0.00000000000E+00 0. -1.
    2000013    1    1    2    0    0  0.55645036673E+03  0.22845930901E+03  0.36399569616E+03  0.11818728922E+04  0.95000000000E+03 0.  0.
   -2000013    1    1    2    0    0 -0.55645036673E+03 -0.22845930901E+03 -0.10160630810E+04  0.15154916202E+04  0.95000000000E+03 0.  0.
<mgrwt>
<rscale>  0 0.26173619E+04</rscale>
<asrwt>0</asrwt>
<pdfrwt beam="1">  1        2 0.15733055E+00 0.26173619E+04</pdfrwt>
<pdfrwt beam="2">  1       -2 0.25764861E+00 0.26173619E+04</pdfrwt>
<totfact> 0.12409439E+00</totfact>
</mgrwt>
</event>
<event>
 4    1  0.2069825E-008  0.2883699E+04  0.7816531E-02  0.8277744E-01
          2   -1    0    0  501    0  0.00000000000E+00  0.00000000000E+00  0.17606667253E+04  0.17606667253E+04  0.00000000000E+00 0.  1.
         -2   -1    0    0    0  501 -0.00000000000E+00 -0.00000000000E+00 -0.11807625274E+04  0.11807625274E+04  0.00000000000E+00 0. -1.
    2000013    1    1    2    0    0  0.91577763761E+03  0.52523951539E+03  0.54373837167E+03  0.15207487126E+04  0.95000000000E+03 0.  0.
   -2000013    1    1    2    0    0 -0.91577763761E+03 -0.52523951539E+03  0.36165826224E+02  0.14206805401E+04  0.95000000000E+03 0.  0.
<mgrwt>
<rscale>  0 0.28836985E+04</rscale>
<asrwt>0</asrwt>
<pdfrwt beam="1">  1        2 0.27087180E+00 0.28836985E+04</pdfrwt>
<pdfrwt beam="2">  1       -2 0.18165577E+00 0.28836985E+04</pdfrwt>
<totfact> 0.13852256E+00</totfact>
</mgrwt>
</event>
<event>
 4    1  0.2069825E-008  0.2922371E+04  0.7816531E-02  0.8266252E-01
          2   -1    0    0  501    0  0.00000000000E+00  0.00000000000E+00  0.24337260935E+04  0.24337260935E+04  0.00000000000E+00 0.  1.
         -2   -1    0    0    0  501 -0.00000000000E+00 -0.00000000000E+00 -0.87728156085E+03  0.87728156085E+03  0.00000000000E+00 0. -1.
    2000013    1    1    2    0    0  0.94841017003E+03 -0.33309235254E+03  0.13122073096E+04  0.19065204928E+04  0.95000000000E+03 0.  0.
   -2000013    1    1    2    0    0 -0.94841017003E+03  0.33309235254E+03  0.24423722305E+03  0.14044871616E+04  0.95000000000E+03 0.  0.
<mgrwt>
<rscale>  0 0.29223710E+04</rscale>
<asrwt>0</asrwt>
<pdfrwt beam="1">  1        2 0.37441940E+00 0.29223710E+04</pdfrwt>
<pdfrwt beam="2">  1       -2 0.13496640E+00 0.29223710E+04</pdfrwt>
<totfact> 0.12927782E+00</totfact>
</mgrwt>
</event>
<event>
 4    1  0.2069825E-008  0.2870543E+04  0.7816531E-02  0.8281696E-01
         -2   -1    0    0    0  501 -0.00000000000E+00  0.00000000000E+00  0.85937380176E+03  0.85937380176E+03  0.00000000000E+00 0. -1.
          2   -1    0    0  501    0  0.00000000000E+00 -0.00000000000E+00 -0.23970998113E+04  0.23970998113E+04  0.00000000000E+00 0.  1.
    2000013    1    1    2    0    0  0.27836980811E+03 -0.72057865900E+02  0.40725762383E+03  0.10728657224E+04  0.95000000000E+03 0.  0.
   -2000013    1    1    2    0    0 -0.27836980811E+03  0.72057865900E+02 -0.19449836334E+04  0.21836078907E+04  0.95000000000E+03 0.  0.
<mgrwt>
<rscale>  0 0.28705433E+04</rscale>
<asrwt>0</asrwt>
<pdfrwt beam="2">  1        2 0.36878457E+00 0.28705433E+04</pdfrwt>
<pdfrwt beam="1">  1       -2 0.13221136E+00 0.28705433E+04</pdfrwt>
<totfact> 0.14363594E+00</totfact>
</mgrwt>
</event>
<event>
 4    1  0.2069825E-008  0.2752180E+04  0.7816531E-02  0.8318270E-01
         -3   -1    0    0    0  501 -0.00000000000E+00  0.00000000000E+00  0.66204864819E+03  0.66204864819E+03  0.00000000000E+00 0. -1.
          3   -1    0    0  501    0  0.00000000000E+00 -0.00000000000E+00 -0.28602490851E+04  0.28602490851E+04  0.00000000000E+00 0.  1.
    2000013    1    1    2    0    0 -0.48837624490E+03 -0.30203811054E+03 -0.58277946835E+02  0.11115910650E+04  0.95000000000E+03 0.  0.
   -2000013    1    1    2    0    0  0.48837624490E+03  0.30203811054E+03 -0.21399224901E+04  0.24107066683E+04  0.95000000000E+03 0.  0.
<mgrwt>
<rscale>  0 0.27521803E+04</rscale>
<asrwt>0</asrwt>
<pdfrwt beam="2">  1        3 0.44003833E+00 0.27521803E+04</pdfrwt>
<pdfrwt beam="1">  1       -3 0.10185364E+00 0.27521803E+04</pdfrwt>
<totfact> 0.13058800E-02</totfact>
</mgrwt>
</event>
<event>
 4    1  0.2069825E-008  0.3574123E+04  0.7816531E-02  0.8096445E-01
          2   -1    0    0  501    0  0.00000000000E+00  0.00000000000E+00  0.33569295173E+04  0.33569295173E+04  0.00000000000E+00 0.  1.
         -2   -1    0    0    0  501 -0.00000000000E+00 -0.00000000000E+00 -0.95134241094E+03  0.95134241094E+03  0.00000000000E+00 0. -1.
    2000013    1    1    2    0    0 -0.12187285182E+04  0.84111393215E+03  0.82483067774E+03  0.19430948240E+04  0.95000000000E+03 0.  0.
   -2000013    1    1    2    0    0  0.12187285182E+04 -0.84111393215E+03  0.15807564286E+04  0.23651771042E+04  0.95000000000E+03 0.  0.
<mgrwt>
<rscale>  0 0.35741233E+04</rscale>
<asrwt>0</asrwt>
<pdfrwt beam="1">  1        2 0.51645069E+00 0.35741233E+04</pdfrwt>
<pdfrwt beam="2">  1       -2 0.14636037E+00 0.35741233E+04</pdfrwt>
<totfact> 0.26597666E-01</totfact>
</mgrwt>
</event>
<event>
 4    1  0.2069825E-008  0.2722727E+04  0.7816531E-02  0.8327668E-01
          2   -1    0    0  501    0  0.00000000000E+00  0.00000000000E+00  0.32171824578E+04  0.32171824578E+04  0.00000000000E+00 0.  1.
         -2   -1    0    0    0  501 -0.00000000000E+00 -0.00000000000E+00 -0.57606646643E+03  0.57606646643E+03  0.00000000000E+00 0. -1.
    2000013    1    1    2    0    0  0.70270552683E+03  0.59100048164E+03  0.17778401029E+04  0.22150151373E+04  0.95000000000E+03 0.  0.
   -2000013    1    1    2    0    0 -0.70270552683E+03 -0.59100048164E+03  0.86327588844E+03  0.15782337870E+04  0.95000000000E+03 0.  0.
<mgrwt>
<rscale>  0 0.27227273E+04</rscale>
<asrwt>0</asrwt>
<pdfrwt beam="1">  1        2 0.49495114E+00 0.27227273E+04</pdfrwt>
<pdfrwt beam="2">  1       -2 0.88625612E-01 0.27227273E+04</pdfrwt>
<totfact> 0.12113650E+00</totfact>
</mgrwt>
</event>
<event>
 4    1  0.2069825E-008  0.2306234E+04  0.7816531E-02  0.8475467E-01
         -2   -1    0    0    0  501 -0.00000000000E+00  0.00000000000E+00  0.91002571027E+03  0.91002571027E+03  0.00000000000E+00 0.  1.
          2   -1    0    0  501    0  0.00000000000E+00 -0.00000000000E+00 -0.14611440129E+04  0.14611440129E+04  0.00000000000E+00 0. -1.
    2000013    1    1    2    0    0 -0.51147600032E+03  0.40386085722E+03 -0.22448834886E+03  0.11737147480E+04  0.95000000000E+03 0.  0.
   -2000013    1    1    2    0    0  0.51147600032E+03 -0.40386085722E+03 -0.32662995378E+03  0.11974549752E+04  0.95000000000E+03 0.  0.
<mgrwt>
<rscale>  0 0.23062338E+04</rscale>
<asrwt>0</asrwt>
<pdfrwt beam="2">  1        2 0.22479138E+00 0.23062338E+04</pdfrwt>
<pdfrwt beam="1">  1       -2 0.14000396E+00 0.23062338E+04</pdfrwt>
<totfact> 0.43465339E+00</totfact>
</mgrwt>
</event>
<event>
 4    1  0.2069825E-008  0.2263686E+04  0.7816531E-02  0.8492379E-01
          2   -1    0    0  501    0  0.00000000000E+00  0.00000000000E+00  0.70838216433E+03  0.70838216433E+03  0.00000000000E+00 0.  1.
         -2   -1    0    0    0  501 -0.00000000000E+00 -0.00000000000E+00 -0.18084419391E+04  0.18084419391E+04  0.00000000000E+00 0. -1.
    2000013    1    1    2    0    0 -0.48856532359E+03 -0.37366020561E+03 -0.56760905405E+03  0.12660955979E+04  0.95000000000E+03 0.  0.
   -2000013    1    1    2    0    0  0.48856532359E+03  0.37366020561E+03 -0.53245072072E+03  0.12507285056E+04  0.95000000000E+03 0.  0.
<mgrwt>
<rscale>  0 0.22636855E+04</rscale>
<asrwt>0</asrwt>
<pdfrwt beam="1">  1        2 0.10898187E+00 0.22636855E+04</pdfrwt>
<pdfrwt beam="2">  1       -2 0.27822184E+00 0.22636855E+04</pdfrwt>
<totfact> 0.15846938E+00</totfact>
</mgrwt>
</event>
<event>
 4    1  0.2069825E-008  0.2213520E+04  0.7816531E-02  0.8512822E-01
          2   -1    0    0  501    0  0.00000000000E+00  0.00000000000E+00  0.17387600977E+04  0.17387600977E+04  0.00000000000E+00 0.  1.
         -2   -1    0    0    0  501 -0.00000000000E+00 -0.00000000000E+00 -0.70447758292E+03  0.70447758292E+03  0.00000000000E+00 0. -1.
    2000013    1    1    2    0    0  0.44042364100E+03  0.30393388861E+03  0.72676846920E+03  0.13103591874E+04  0.95000000000E+03 0.  0.
   -2000013    1    1    2    0    0 -0.44042364100E+03 -0.30393388861E+03  0.30751404561E+03  0.11328784932E+04  0.95000000000E+03 0.  0.
<mgrwt>
<rscale>  0 0.22135198E+04</rscale>
<asrwt>0</asrwt>
<pdfrwt beam="1">  1        2 0.26750155E+00 0.22135198E+04</pdfrwt>
<pdfrwt beam="2">  1       -2 0.10838117E+00 0.22135198E+04</pdfrwt>
<totfact> 0.58028617E+00</totfact>
</mgrwt>
</event>
<event>
 4    1  0.2069825E-008  0.2685857E+04  0.7816531E-02  0.8339608E-01
          2   -1    0    0  501    0  0.00000000000E+00  0.00000000000E+00  0.15088219475E+04  0.15088219475E+04  0.00000000000E+00 0.  1.
         -2   -1    0    0    0  501 -0.00000000000E+00 -0.00000000000E+00 -0.11952751079E+04  0.11952751079E+04  0.00000000000E+00 0. -1.
    2000013    1    1    2    0    0 -0.17979828563E+03 -0.92909678428E+03  0.82727664201E+02  0.13434627365E+04  0.95000000000E+03 0.  0.
   -2000013    1    1    2    0    0  0.17979828563E+03  0.92909678428E+03  0.23081917536E+03  0.13606343189E+04  0.95000000000E+03 0.  0.
<mgrwt>
<rscale>  0 0.26858573E+04</rscale>
<asrwt>0</asrwt>
<pdfrwt beam="1">  1        2 0.23212645E+00 0.26858573E+04</pdfrwt>
<pdfrwt beam="2">  1       -2 0.18388848E+00 0.26858573E+04</pdfrwt>
<totfact> 0.18795334E+00</totfact>
</mgrwt>
</event>
<event>
 4    1  0.2069825E-008  0.2471502E+04  0.7816531E-02  0.8413209E-01
         -2   -1    0    0    0  501 -0.00000000000E+00  0.00000000000E+00  0.57643325918E+03  0.57643325918E+03  0.00000000000E+00 0. -1.
          2   -1    0    0  501    0  0.00000000000E+00 -0.00000000000E+00 -0.26491878657E+04  0.26491878657E+04  0.00000000000E+00 0.  1.
    2000013    1    1    2    0    0  0.54779010443E+03  0.38907534347E+03 -0.49333447588E+03  0.12638562127E+04  0.95000000000E+03 0.  0.
   -2000013    1    1    2    0    0 -0.54779010443E+03 -0.38907534347E+03 -0.15794201307E+04  0.19617649122E+04  0.95000000000E+03 0.  0.
<mgrwt>
<rscale>  0 0.24715016E+04</rscale>
<asrwt>0</asrwt>
<pdfrwt beam="2">  1        2 0.40756737E+00 0.24715016E+04</pdfrwt>
<pdfrwt beam="1">  1       -2 0.88682039E-01 0.24715016E+04</pdfrwt>
<totfact> 0.27821095E+00</totfact>
</mgrwt>
</event>
<event>
 4    1  0.2069825E-008  0.2736359E+04  0.7816531E-02  0.8323303E-01
          2   -1    0    0  501    0  0.00000000000E+00  0.00000000000E+00  0.13706170929E+04  0.13706170929E+04  0.00000000000E+00 0.  1.
         -2   -1    0    0    0  501 -0.00000000000E+00 -0.00000000000E+00 -0.13657458967E+04  0.13657458967E+04  0.00000000000E+00 0. -1.
    2000013    1    1    2    0    0 -0.83183316921E+03  0.51780706641E+03 -0.94229394522E+02  0.13680094145E+04  0.95000000000E+03 0.  0.
   -2000013    1    1    2    0    0  0.83183316921E+03 -0.51780706641E+03  0.99100590686E+02  0.13683535751E+04  0.95000000000E+03 0.  0.
<mgrwt>
<rscale>  0 0.27363587E+04</rscale>
<asrwt>0</asrwt>
<pdfrwt beam="1">  1        2 0.21086417E+00 0.27363587E+04</pdfrwt>
<pdfrwt beam="2">  1       -2 0.21011475E+00 0.27363587E+04</pdfrwt>
<totfact> 0.15043638E+00</totfact>
</mgrwt>
</event>
<event>
 4    1  0.2069825E-008  0.2148225E+04  0.7816531E-02  0.8540292E-01
         -2   -1    0    0    0  501 -0.00000000000E+00  0.00000000000E+00  0.34694610202E+03  0.34694610202E+03  0.00000000000E+00 0. -1.
          2   -1    0    0  501    0  0.00000000000E+00 -0.00000000000E+00 -0.33253523731E+04  0.33253523731E+04  0.00000000000E+00 0.  1.
    2000013    1    1    2    0    0  0.30835503079E+03  0.32914241572E+03 -0.11154590719E+04  0.15330252757E+04  0.95000000000E+03 0.  0.
   -2000013    1    1    2    0    0 -0.30835503079E+03 -0.32914241572E+03 -0.18629471991E+04  0.21392731994E+04  0.95000000000E+03 0.  0.
<mgrwt>
<rscale>  0 0.21482254E+04</rscale>
<asrwt>0</asrwt>
<pdfrwt beam="2">  1        2 0.51159270E+00 0.21482254E+04</pdfrwt>
<pdfrwt beam="1">  1       -2 0.53376320E-01 0.21482254E+04</pdfrwt>
<totfact> 0.32628103E+00</totfact>
</mgrwt>
</event>
<event>
 4    1  0.2069825E-008  0.2284623E+04  0.7816531E-02  0.8484009E-01
          2   -1    0    0  501    0  0.00000000000E+00  0.00000000000E+00  0.10046175550E+04  0.10046175550E+04  0.00000000000E+00 0.  1.
         -2   -1    0    0    0  501 -0.00000000000E+00 -0.00000000000E+00 -0.12988779177E+04  0.12988779177E+04  0.00000000000E+00 0. -1.
    2000013    1    1    2    0    0  0.33594153278E+03  0.49622149161E+03 -0.35689462579E+03  0.11785441256E+04  0.95000000000E+03 0.  0.
   -2000013    1    1    2    0    0 -0.33594153278E+03 -0.49622149161E+03  0.62634263089E+02  0.11249513470E+04  0.95000000000E+03 0.  0.
<mgrwt>
<rscale>  0 0.22846230E+04</rscale>
<asrwt>0</asrwt>
<pdfrwt beam="1">  1        2 0.15455655E+00 0.22846230E+04</pdfrwt>
<pdfrwt beam="2">  1       -2 0.19982737E+00 0.22846230E+04</pdfrwt>
<totfact> 0.30275344E+00</totfact>
</mgrwt>
</event>
<event>
 4    1  0.2069825E-008  0.3147723E+04  0.7816531E-02  0.8202761E-01
         -2   -1    0    0    0  501 -0.00000000000E+00  0.00000000000E+00  0.11062424992E+04  0.11062424992E+04  0.00000000000E+00 0. -1.
          2   -1    0    0  501    0  0.00000000000E+00 -0.00000000000E+00 -0.22391472397E+04  0.22391472397E+04  0.00000000000E+00 0.  1.
    2000013    1    1    2    0    0  0.53268015655E+03  0.10734019232E+04 -0.17078353464E+03  0.15387029777E+04  0.95000000000E+03 0.  0.
   -2000013    1    1    2    0    0 -0.53268015655E+03 -0.10734019232E+04 -0.96212120587E+03  0.18066867611E+04  0.95000000000E+03 0.  0.
<mgrwt>
<rscale>  0 0.31477229E+04</rscale>
<asrwt>0</asrwt>
<pdfrwt beam="2">  1        2 0.34448419E+00 0.31477229E+04</pdfrwt>
<pdfrwt beam="1">  1       -2 0.17019116E+00 0.31477229E+04</pdfrwt>
<totfact> 0.88184344E-01</totfact>
</mgrwt>
</event>
<event>
 4    1  0.2069825E-008  0.2474426E+04  0.7816531E-02  0.8412153E-01
          2   -1    0    0  501    0  0.00000000000E+00  0.00000000000E+00  0.81430923973E+03  0.81430923973E+03  0.00000000000E+00 0.  1.
         -2   -1    0    0    0  501 -0.00000000000E+00 -0.00000000000E+00 -0.18797484499E+04  0.18797484499E+04  0.00000000000E+00 0. -1.
    2000013    1    1    2    0    0 -0.65297760224E+03  0.31279129355E+03 -0.88379782555E+03  0.14858723831E+04  0.95000000000E+03 0.  0.
   -2000013    1    1    2    0    0  0.65297760224E+03 -0.31279129355E+03 -0.18164138460E+03  0.12081853065E+04  0.95000000000E+03 0.  0.
<mgrwt>
<rscale>  0 0.24744264E+04</rscale>
<asrwt>0</asrwt>
<pdfrwt beam="1">  1        2 0.12527834E+00 0.24744264E+04</pdfrwt>
<pdfrwt beam="2">  1       -2 0.28919207E+00 0.24744264E+04</pdfrwt>
<totfact> 0.11127594E+00</totfact>
</mgrwt>
</event>
<event>
 4    1  0.2069825E-008  0.3783667E+04  0.7816531E-02  0.8049669E-01
         -1   -1    0    0    0  501 -0.00000000000E+00  0.00000000000E+00  0.11744472489E+04  0.11744472489E+04  0.00000000000E+00 0. -1.
          1   -1    0    0  501    0  0.00000000000E+00 -0.00000000000E+00 -0.30474199802E+04  0.30474199802E+04  0.00000000000E+00 0.  1.
    2000013    1    1    2    0    0  0.14947125256E+04  0.64050708882E+03 -0.11364604260E+04  0.21996493277E+04  0.95000000000E+03 0.  0.
   -2000013    1    1    2    0    0 -0.14947125256E+04 -0.64050708882E+03 -0.73651230528E+03  0.20222179014E+04  0.95000000000E+03 0.  0.
<mgrwt>
<rscale>  0 0.37836670E+04</rscale>
<asrwt>0</asrwt>
<pdfrwt beam="2">  1        1 0.46883383E+00 0.37836670E+04</pdfrwt>
<pdfrwt beam="1">  1       -1 0.18068420E+00 0.37836670E+04</pdfrwt>
<totfact> 0.90400395E-02</totfact>
</mgrwt>
</event>
<event>
 4    1  0.2069825E-008  0.2736019E+04  0.7816531E-02  0.8323412E-01
          2   -1    0    0  501    0  0.00000000000E+00  0.00000000000E+00  0.23157611339E+04  0.23157611339E+04  0.00000000000E+00 0.  1.
         -2   -1    0    0    0  501 -0.00000000000E+00 -0.00000000000E+00 -0.80813603981E+03  0.80813603981E+03  0.00000000000E+00 0. -1.
    2000013    1    1    2    0    0 -0.49088081803E+03  0.36620965744E+03 -0.12607202302E+03  0.11373071906E+04  0.95000000000E+03 0.  0.
   -2000013    1    1    2    0    0  0.49088081803E+03 -0.36620965744E+03  0.16336971171E+04  0.19865899832E+04  0.95000000000E+03 0.  0.
<mgrwt>
<rscale>  0 0.27360190E+04</rscale>
<asrwt>0</asrwt>
<pdfrwt beam="1">  1        2 0.35627094E+00 0.27360190E+04</pdfrwt>
<pdfrwt beam="2">  1       -2 0.12432862E+00 0.27360190E+04</pdfrwt>
<totfact> 0.18877381E+00</totfact>
</mgrwt>
</event>
<event>
 4    1  0.2069825E-008  0.3348791E+04  0.7816531E-02  0.8150590E-01
          2   -1    0    0  501    0  0.00000000000E+00  0.00000000000E+00  0.14058713831E+04  0.14058713831E+04  0.00000000000E+00 0.  1.
         -2   -1    0    0    0  501 -0.00000000000E+00 -0.00000000000E+00 -0.19942087314E+04  0.19942087314E+04  0.00000000000E+00 0. -1.
    2000013    1    1    2    0    0 -0.11417244985E+04  0.40332162196E+03 -0.96373664511E+03  0.18158996345E+04  0.95000000000E+03 0.  0.
   -2000013    1    1    2    0    0  0.11417244985E+04 -0.40332162196E+03  0.37539929681E+03  0.15841804800E+04  0.95000000000E+03 0.  0.
<mgrwt>
<rscale>  0 0.33487914E+04</rscale>
<asrwt>0</asrwt>
<pdfrwt beam="1">  1        2 0.21628791E+00 0.33487914E+04</pdfrwt>
<pdfrwt beam="2">  1       -2 0.30680134E+00 0.33487914E+04</pdfrwt>
<totfact> 0.34484486E-01</totfact>
</mgrwt>
</event>
<event>
 4    1  0.2069825E-008  0.2328695E+04  0.7816531E-02  0.8466692E-01
         -2   -1    0    0    0  501 -0.00000000000E+00  0.00000000000E+00  0.10194633858E+04  0.10194633858E+04  0.00000000000E+00 0. -1.
          2   -1    0    0  501    0  0.00000000000E+00 -0.00000000000E+00 -0.13298219035E+04  0.13298219035E+04  0.00000000000E+00 0.  1.
    2000013    1    1    2    0    0 -0.63514198939E+03  0.17464739584E+03 -0.15034853714E+02  0.11561284991E+04  0.95000000000E+03 0.  0.
   -2000013    1    1    2    0    0  0.63514198939E+03 -0.17464739584E+03 -0.29532366392E+03  0.11931567902E+04  0.95000000000E+03 0.  0.
<mgrwt>
<rscale>  0 0.23286947E+04</rscale>
<asrwt>0</asrwt>
<pdfrwt beam="2">  1        2 0.20458798E+00 0.23286947E+04</pdfrwt>
<pdfrwt beam="1">  1       -2 0.15684052E+00 0.23286947E+04</pdfrwt>
<totfact> 0.38207676E+00</totfact>
</mgrwt>
</event>
<event>
 4    1  0.2069825E-008  0.3404567E+04  0.7816531E-02  0.8136786E-01
         -2   -1    0    0    0  501 -0.00000000000E+00  0.00000000000E+00  0.25208134449E+04  0.25208134449E+04  0.00000000000E+00 0. -1.
          2   -1    0    0  501    0  0.00000000000E+00 -0.00000000000E+00 -0.11495372996E+04  0.11495372996E+04  0.00000000000E+00 0.  1.
    2000013    1    1    2    0    0 -0.94012155472E+03 -0.90118281070E+03  0.12754402344E+04  0.20555307800E+04  0.95000000000E+03 0.  0.
   -2000013    1    1    2    0    0  0.94012155472E+03  0.90118281070E+03  0.95835910849E+02  0.16148199645E+04  0.95000000000E+03 0.  0.
<mgrwt>
<rscale>  0 0.34045670E+04</rscale>
<asrwt>0</asrwt>
<pdfrwt beam="2">  1        2 0.17685189E+00 0.34045670E+04</pdfrwt>
<pdfrwt beam="1">  1       -2 0.38781745E+00 0.34045670E+04</pdfrwt>
<totfact> 0.14980276E-01</totfact>
</mgrwt>
</event>
<event>
 4    1  0.2069825E-008  0.2868735E+04  0.7816531E-02  0.8282241E-01
         -2   -1    0    0    0  501 -0.00000000000E+00  0.00000000000E+00  0.95056999242E+03  0.95056999242E+03  0.00000000000E+00 0. -1.
          2   -1    0    0  501    0  0.00000000000E+00 -0.00000000000E+00 -0.21643961041E+04  0.21643961041E+04  0.00000000000E+00 0.  1.
    2000013    1    1    2    0    0 -0.10261884663E+04 -0.22026944741E+03 -0.35616189109E+03  0.14597714514E+04  0.95000000000E+03 0.  0.
   -2000013    1    1    2    0    0  0.10261884663E+04  0.22026944741E+03 -0.85766422057E+03  0.16551946451E+04  0.95000000000E+03 0.  0.
<mgrwt>
<rscale>  0 0.28687349E+04</rscale>
<asrwt>0</asrwt>
<pdfrwt beam="2">  1        2 0.33298402E+00 0.28687349E+04</pdfrwt>
<pdfrwt beam="1">  1       -2 0.14624154E+00 0.28687349E+04</pdfrwt>
<totfact> 0.14991388E+00</totfact>
</mgrwt>
</event>
<event>
 4    1  0.2069825E-008  0.2222025E+04  0.7816531E-02  0.8509316E-01
         -2   -1    0    0    0  501 -0.00000000000E+00  0.00000000000E+00  0.18003140172E+04  0.18003140172E+04  0.00000000000E+00 0. -1.
          2   -1    0    0  501    0  0.00000000000E+00 -0.00000000000E+00 -0.68562967982E+03  0.68562967982E+03  0.00000000000E+00 0.  1.
    2000013    1    1    2    0    0 -0.17089200975E+01 -0.38308303988E+03  0.76018106202E+02  0.10271486204E+04  0.95000000000E+03 0.  0.
   -2000013    1    1    2    0    0  0.17089200975E+01  0.38308303988E+03  0.10386662312E+04  0.14587950766E+04  0.95000000000E+03 0.  0.
<mgrwt>
<rscale>  0 0.22220250E+04</rscale>
<asrwt>0</asrwt>
<pdfrwt beam="2">  1        2 0.10548149E+00 0.22220250E+04</pdfrwt>
<pdfrwt beam="1">  1       -2 0.27697139E+00 0.22220250E+04</pdfrwt>
<totfact> 0.16865992E+00</totfact>
</mgrwt>
</event>
<event>
 4    1  0.2069825E-008  0.3076386E+04  0.7816531E-02  0.8222249E-01
          2   -1    0    0  501    0  0.00000000000E+00  0.00000000000E+00  0.20706938510E+04  0.20706938510E+04  0.00000000000E+00 0.  1.
         -2   -1    0    0    0  501 -0.00000000000E+00 -0.00000000000E+00 -0.11426300526E+04  0.11426300526E+04  0.00000000000E+00 0. -1.
    2000013    1    1    2    0    0 -0.25127690557E+03  0.11297816764E+04  0.96235389196E+02  0.15004359266E+04  0.95000000000E+03 0.  0.
   -2000013    1    1    2    0    0  0.25127690557E+03 -0.11297816764E+04  0.83182840925E+03  0.17128879771E+04  0.95000000000E+03 0.  0.
<mgrwt>
<rscale>  0 0.30763856E+04</rscale>
<asrwt>0</asrwt>
<pdfrwt beam="1">  1        2 0.31856828E+00 0.30763856E+04</pdfrwt>
<pdfrwt beam="2">  1       -2 0.17578924E+00 0.30763856E+04</pdfrwt>
<totfact> 0.10069517E+00</totfact>
</mgrwt>
</event>
<event>
 4    1  0.2069825E-008  0.2390880E+04  0.7816531E-02  0.8442926E-01
          2   -1    0    0  501    0  0.00000000000E+00  0.00000000000E+00  0.11132405372E+04  0.11132405372E+04  0.00000000000E+00 0.  1.
         -2   -1    0    0    0  501 -0.00000000000E+00 -0.00000000000E+00 -0.12837088124E+04  0.12837088124E+04  0.00000000000E+00 0. -1.
    2000013    1    1    2    0    0  0.53847521683E+03  0.44305087682E+03  0.11609160847E+03  0.11841566198E+04  0.95000000000E+03 0.  0.
   -2000013    1    1    2    0    0 -0.53847521683E+03 -0.44305087682E+03 -0.28655988366E+03  0.12127927298E+04  0.95000000000E+03 0.  0.
<mgrwt>
<rscale>  0 0.23908799E+04</rscale>
<asrwt>0</asrwt>
<pdfrwt beam="1">  1        2 0.17126778E+00 0.23908799E+04</pdfrwt>
<pdfrwt beam="2">  1       -2 0.19749366E+00 0.23908799E+04</pdfrwt>
<totfact> 0.26579080E+00</totfact>
</mgrwt>
</event>
<event>
 4    1  0.2069825E-008  0.2338383E+04  0.7816531E-02  0.8462939E-01
         -2   -1    0    0    0  501 -0.00000000000E+00  0.00000000000E+00  0.64510874396E+03  0.64510874396E+03  0.00000000000E+00 0. -1.
          2   -1    0    0  501    0  0.00000000000E+00 -0.00000000000E+00 -0.21190360801E+04  0.21190360801E+04  0.00000000000E+00 0.  1.
    2000013    1    1    2    0    0 -0.21690438691E+03  0.64605583653E+03 -0.72686075480E+03  0.13766852269E+04  0.95000000000E+03 0.  0.
   -2000013    1    1    2    0    0  0.21690438691E+03 -0.64605583653E+03 -0.74706658139E+03  0.13874595972E+04  0.95000000000E+03 0.  0.
<mgrwt>
<rscale>  0 0.23383829E+04</rscale>
<asrwt>0</asrwt>
<pdfrwt beam="2">  1        2 0.32600555E+00 0.23383829E+04</pdfrwt>
<pdfrwt beam="1">  1       -2 0.99247499E-01 0.23383829E+04</pdfrwt>
<totfact> 0.43570031E+00</totfact>
</mgrwt>
</event>
<event>
 4    1  0.2069825E-008  0.2632827E+04  0.7816531E-02  0.8357135E-01
         -2   -1    0    0    0  501 -0.00000000000E+00  0.00000000000E+00  0.73467824368E+03  0.73467824368E+03  0.00000000000E+00 0. -1.
          2   -1    0    0  501    0  0.00000000000E+00 -0.00000000000E+00 -0.23587801448E+04  0.23587801448E+04  0.00000000000E+00 0.  1.
    2000013    1    1    2    0    0 -0.42071160474E+03 -0.55112191963E+03 -0.15068776561E+04  0.19115213562E+04  0.95000000000E+03 0.  0.
   -2000013    1    1    2    0    0  0.42071160474E+03  0.55112191963E+03 -0.11722424499E+03  0.11819370323E+04  0.95000000000E+03 0.  0.
<mgrwt>
<rscale>  0 0.26328270E+04</rscale>
<asrwt>0</asrwt>
<pdfrwt beam="2">  1        2 0.36288926E+00 0.26328270E+04</pdfrwt>
<pdfrwt beam="1">  1       -2 0.11302742E+00 0.26328270E+04</pdfrwt>
<totfact> 0.22770797E+00</totfact>
</mgrwt>
</event>
<event>
 4    1  0.2069825E-008  0.2434675E+04  0.7816531E-02  0.8426635E-01
          2   -1    0    0  501    0  0.00000000000E+00  0.00000000000E+00  0.26938213590E+04  0.26938213590E+04  0.00000000000E+00 0.  1.
         -2   -1    0    0    0  501 -0.00000000000E+00 -0.00000000000E+00 -0.55011472180E+03  0.55011472180E+03  0.00000000000E+00 0. -1.
    2000013    1    1    2    0    0 -0.33035122804E+03 -0.23536259812E+03  0.21364199550E+03  0.10548319244E+04  0.95000000000E+03 0.  0.
   -2000013    1    1    2    0    0  0.33035122804E+03  0.23536259812E+03  0.19300646417E+04  0.21891041564E+04  0.95000000000E+03 0.  0.
<mgrwt>
<rscale>  0 0.24346752E+04</rscale>
<asrwt>0</asrwt>
<pdfrwt beam="1">  1        2 0.41443405E+00 0.24346752E+04</pdfrwt>
<pdfrwt beam="2">  1       -2 0.84633035E-01 0.24346752E+04</pdfrwt>
<totfact> 0.29220556E+00</totfact>
</mgrwt>
</event>
<event>
 4    1  0.2069825E-008  0.4066870E+04  0.7816531E-02  0.7991191E-01
         -2   -1    0    0    0  501 -0.00000000000E+00  0.00000000000E+00  0.19080272038E+04  0.19080272038E+04  0.00000000000E+00 0. -1.
          2   -1    0    0  501    0  0.00000000000E+00 -0.00000000000E+00 -0.21670857694E+04  0.21670857694E+04  0.00000000000E+00 0.  1.
    2000013    1    1    2    0    0 -0.74759995712E+03 -0.15427406625E+04  0.41323649227E+03  0.20030523823E+04  0.95000000000E+03 0.  0.
   -2000013    1    1    2    0    0  0.74759995712E+03  0.15427406625E+04 -0.67229505788E+03  0.20720605909E+04  0.95000000000E+03 0.  0.
<mgrwt>
<rscale>  0 0.40668703E+04</rscale>
<asrwt>0</asrwt>
<pdfrwt beam="2">  1        2 0.33339781E+00 0.40668703E+04</pdfrwt>
<pdfrwt beam="1">  1       -2 0.29354265E+00 0.40668703E+04</pdfrwt>
<totfact> 0.14718967E-01</totfact>
</mgrwt>
</event>
<event>
 4    1  0.2069825E-008  0.2826320E+04  0.7816531E-02  0.8295143E-01
         -1   -1    0    0    0  501 -0.00000000000E+00  0.00000000000E+00  0.82078266540E+03  0.82078266540E+03  0.00000000000E+00 0. -1.
          1   -1    0    0  501    0  0.00000000000E+00 -0.00000000000E+00 -0.24330700759E+04  0.24330700759E+04  0.00000000000E+00 0.  1.
    2000013    1    1    2    0    0 -0.99984847416E+03  0.29519761189E+03 -0.70523098938E+03  0.15769240152E+04  0.95000000000E+03 0.  0.
   -2000013    1    1    2    0    0  0.99984847416E+03 -0.29519761189E+03 -0.90705642116E+03  0.16769287261E+04  0.95000000000E+03 0.  0.
<mgrwt>
<rscale>  0 0.28263204E+04</rscale>
<asrwt>0</asrwt>
<pdfrwt beam="2">  1        1 0.37431847E+00 0.28263204E+04</pdfrwt>
<pdfrwt beam="1">  1       -1 0.12627426E+00 0.28263204E+04</pdfrwt>
<totfact> 0.71014948E-01</totfact>
</mgrwt>
</event>
<event>
 4    1  0.2069825E-008  0.2853344E+04  0.7816531E-02  0.8286896E-01
         -4   -1    0    0    0  501 -0.00000000000E+00  0.00000000000E+00  0.21368336939E+04  0.21368336939E+04  0.00000000000E+00 0. -1.
          4   -1    0    0  501    0  0.00000000000E+00 -0.00000000000E+00 -0.95252764827E+03  0.95252764827E+03  0.00000000000E+00 0.  1.
    2000013    1    1    2    0    0 -0.45248936062E+03 -0.92572482302E+03  0.30328872812E+03  0.14339446022E+04  0.95000000000E+03 0.  0.
   -2000013    1    1    2    0    0  0.45248936062E+03  0.92572482302E+03  0.88101731756E+03  0.16554167401E+04  0.95000000000E+03 0.  0.
<mgrwt>
<rscale>  0 0.28533441E+04</rscale>
<asrwt>0</asrwt>
<pdfrwt beam="2">  1        4 0.14654272E+00 0.28533441E+04</pdfrwt>
<pdfrwt beam="1">  1       -4 0.32874364E+00 0.28533441E+04</pdfrwt>
<totfact> 0.11102623E-02</totfact>
</mgrwt>
</event>
<event>
 4    1  0.2069825E-008  0.2538484E+04  0.7816531E-02  0.8389402E-01
         -2   -1    0    0    0  501 -0.00000000000E+00  0.00000000000E+00  0.63201647276E+03  0.63201647276E+03  0.00000000000E+00 0. -1.
          2   -1    0    0  501    0  0.00000000000E+00 -0.00000000000E+00 -0.25489454032E+04  0.25489454032E+04  0.00000000000E+00 0.  1.
    2000013    1    1    2    0    0 -0.18837190689E+03 -0.42287869228E+03 -0.18393511525E+04  0.21213257708E+04  0.95000000000E+03 0.  0.
   -2000013    1    1    2    0    0  0.18837190689E+03  0.42287869228E+03 -0.77577777933E+02  0.10596361051E+04  0.95000000000E+03 0.  0.
<mgrwt>
<rscale>  0 0.25384842E+04</rscale>
<asrwt>0</asrwt>
<pdfrwt beam="2">  1        2 0.39214544E+00 0.25384842E+04</pdfrwt>
<pdfrwt beam="1">  1       -2 0.97233306E-01 0.25384842E+04</pdfrwt>
<totfact> 0.25576046E+00</totfact>
</mgrwt>
</event>
<event>
 4    1  0.2069825E-008  0.3798861E+04  0.7816531E-02  0.8046399E-01
         -2   -1    0    0    0  501 -0.00000000000E+00  0.00000000000E+00  0.24103509256E+04  0.24103509256E+04  0.00000000000E+00 0. -1.
          2   -1    0    0  501    0  0.00000000000E+00 -0.00000000000E+00 -0.14968098411E+04  0.14968098411E+04  0.00000000000E+00 0.  1.
    2000013    1    1    2    0    0  0.10084522236E+04 -0.12847281013E+04  0.25671362214E+03  0.19068046741E+04  0.95000000000E+03 0.  0.
   -2000013    1    1    2    0    0 -0.10084522236E+04  0.12847281013E+04  0.65682746240E+03  0.20003560925E+04  0.95000000000E+03 0.  0.
<mgrwt>
<rscale>  0 0.37988614E+04</rscale>
<asrwt>0</asrwt>
<pdfrwt beam="2">  1        2 0.23027844E+00 0.37988614E+04</pdfrwt>
<pdfrwt beam="1">  1       -2 0.37082322E+00 0.37988614E+04</pdfrwt>
<totfact> 0.11717750E-01</totfact>
</mgrwt>
</event>
<event>
 4    1  0.2069825E-008  0.2289048E+04  0.7816531E-02  0.8482252E-01
         -1   -1    0    0    0  501 -0.00000000000E+00  0.00000000000E+00  0.94425801283E+03  0.94425801283E+03  0.00000000000E+00 0. -1.
          1   -1    0    0  501    0  0.00000000000E+00 -0.00000000000E+00 -0.13872642016E+04  0.13872642016E+04  0.00000000000E+00 0.  1.
    2000013    1    1    2    0    0 -0.32138551068E+03 -0.52712036034E+03 -0.38665617465E+03  0.11971413944E+04  0.95000000000E+03 0.  0.
   -2000013    1    1    2    0    0  0.32138551068E+03  0.52712036034E+03 -0.56350014102E+02  0.11343808200E+04  0.95000000000E+03 0.  0.
<mgrwt>
<rscale>  0 0.22890481E+04</rscale>
<asrwt>0</asrwt>
<pdfrwt beam="2">  1        1 0.21342526E+00 0.22890481E+04</pdfrwt>
<pdfrwt beam="1">  1       -1 0.14527046E+00 0.22890481E+04</pdfrwt>
<totfact> 0.26979749E+00</totfact>
</mgrwt>
</event>
<event>
 4    1  0.2069825E-008  0.2699906E+04  0.7816531E-02  0.8335035E-01
         -2   -1    0    0    0  501 -0.00000000000E+00  0.00000000000E+00  0.95283968344E+03  0.95283968344E+03  0.00000000000E+00 0. -1.
          2   -1    0    0  501    0  0.00000000000E+00 -0.00000000000E+00 -0.19125704786E+04  0.19125704786E+04  0.00000000000E+00 0.  1.
    2000013    1    1    2    0    0  0.58735171096E+03  0.42553848982E+02 -0.12832913495E+04  0.17018018540E+04  0.95000000000E+03 0.  0.
   -2000013    1    1    2    0    0 -0.58735171096E+03 -0.42553848982E+02  0.32356055430E+03  0.11636083081E+04  0.95000000000E+03 0.  0.
<mgrwt>
<rscale>  0 0.26999060E+04</rscale>
<asrwt>0</asrwt>
<pdfrwt beam="2">  1        2 0.29424161E+00 0.26999060E+04</pdfrwt>
<pdfrwt beam="1">  1       -2 0.14659072E+00 0.26999060E+04</pdfrwt>
<totfact> 0.20875098E+00</totfact>
</mgrwt>
</event>
<event>
 4    1  0.2069825E-008  0.2084643E+04  0.7816531E-02  0.8568039E-01
          2   -1    0    0  501    0  0.00000000000E+00  0.00000000000E+00  0.62004400211E+03  0.62004400211E+03  0.00000000000E+00 0.  1.
         -2   -1    0    0    0  501 -0.00000000000E+00 -0.00000000000E+00 -0.17521884689E+04  0.17521884689E+04  0.00000000000E+00 0. -1.
    2000013    1    1    2    0    0 -0.37159675703E+03  0.17840229925E+03 -0.70082481022E+03  0.12504267051E+04  0.95000000000E+03 0.  0.
   -2000013    1    1    2    0    0  0.37159675703E+03 -0.17840229925E+03 -0.43131965653E+03  0.11218057659E+04  0.95000000000E+03 0.  0.
<mgrwt>
<rscale>  0 0.20846428E+04</rscale>
<asrwt>0</asrwt>
<pdfrwt beam="1">  1        2 0.95391384E-01 0.20846428E+04</pdfrwt>
<pdfrwt beam="2">  1       -2 0.26956746E+00 0.20846428E+04</pdfrwt>
<totfact> 0.21442772E+00</totfact>
</mgrwt>
</event>
<event>
 4    1  0.2069825E-008  0.2358156E+04  0.7816531E-02  0.8455338E-01
          2   -1    0    0  501    0  0.00000000000E+00  0.00000000000E+00  0.17924516794E+04  0.17924516794E+04  0.00000000000E+00 0.  1.
         -2   -1    0    0    0  501 -0.00000000000E+00 -0.00000000000E+00 -0.77559943719E+03  0.77559943719E+03  0.00000000000E+00 0. -1.
    2000013    1    1    2    0    0  0.51838609413E+03  0.19913934757E+02  0.10175928968E+04  0.14856365676E+04  0.95000000000E+03 0.  0.
   -2000013    1    1    2    0    0 -0.51838609413E+03 -0.19913934757E+02 -0.74065454343E+00  0.10824145490E+04  0.95000000000E+03 0.  0.
<mgrwt>
<rscale>  0 0.23581556E+04</rscale>
<asrwt>0</asrwt>
<pdfrwt beam="1">  1        2 0.27576180E+00 0.23581556E+04</pdfrwt>
<pdfrwt beam="2">  1       -2 0.11932299E+00 0.23581556E+04</pdfrwt>
<totfact> 0.42339055E+00</totfact>
</mgrwt>
</event>
<event>
 4    1  0.2069825E-008  0.4103322E+04  0.7816531E-02  0.7984021E-01
          2   -1    0    0  501    0  0.00000000000E+00  0.00000000000E+00  0.21651283855E+04  0.21651283855E+04  0.00000000000E+00 0.  1.
         -2   -1    0    0    0  501 -0.00000000000E+00 -0.00000000000E+00 -0.19441404697E+04  0.19441404697E+04  0.00000000000E+00 0. -1.
    2000013    1    1    2    0    0  0.68840297089E+03  0.13052209420E+04  0.11747255485E+04  0.21118665848E+04  0.95000000000E+03 0.  0.
   -2000013    1    1    2    0    0 -0.68840297089E+03 -0.13052209420E+04 -0.95373763264E+03  0.19974022704E+04  0.95000000000E+03 0.  0.
<mgrwt>
<rscale>  0 0.41033224E+04</rscale>
<asrwt>0</asrwt>
<pdfrwt beam="1">  1        2 0.33309667E+00 0.41033224E+04</pdfrwt>
<pdfrwt beam="2">  1       -2 0.29909853E+00 0.41033224E+04</pdfrwt>
<totfact> 0.13605378E-01</totfact>
</mgrwt>
</event>
<event>
 4    1  0.2069825E-008  0.3451464E+04  0.7816531E-02  0.8125390E-01
         -1   -1    0    0    0  501 -0.00000000000E+00  0.00000000000E+00  0.11070664798E+04  0.11070664798E+04  0.00000000000E+00 0. -1.
          1   -1    0    0  501    0  0.00000000000E+00 -0.00000000000E+00 -0.26901291289E+04  0.26901291289E+04  0.00000000000E+00 0.  1.
    2000013    1    1    2    0    0 -0.93199791848E+02 -0.14049460579E+04 -0.45585855720E+03  0.17586547845E+04  0.95000000000E+03 0.  0.
   -2000013    1    1    2    0    0  0.93199791848E+02  0.14049460579E+04 -0.11272040919E+04  0.20385408242E+04  0.95000000000E+03 0.  0.
<mgrwt>
<rscale>  0 0.34514645E+04</rscale>
<asrwt>0</asrwt>
<pdfrwt beam="2">  1        1 0.41386601E+00 0.34514645E+04</pdfrwt>
<pdfrwt beam="1">  1       -1 0.17031792E+00 0.34514645E+04</pdfrwt>
<totfact> 0.19985575E-01</totfact>
</mgrwt>
</event>
<event>
 4    1  0.2069825E-008  0.2785682E+04  0.7816531E-02  0.8307727E-01
         -2   -1    0    0    0  501 -0.00000000000E+00  0.00000000000E+00  0.13494689078E+04  0.13494689078E+04  0.00000000000E+00 0. -1.
          2   -1    0    0  501    0  0.00000000000E+00 -0.00000000000E+00 -0.14376073138E+04  0.14376073138E+04  0.00000000000E+00 0.  1.
    2000013    1    1    2    0    0 -0.61791188002E+03  0.27523241899E+03  0.71784874422E+03  0.13694432429E+04  0.95000000000E+03 0.  0.
   -2000013    1    1    2    0    0  0.61791188002E+03 -0.27523241899E+03 -0.80598715029E+03  0.14176329787E+04  0.95000000000E+03 0.  0.
<mgrwt>
<rscale>  0 0.27856822E+04</rscale>
<asrwt>0</asrwt>
<pdfrwt beam="2">  1        2 0.22117036E+00 0.27856822E+04</pdfrwt>
<pdfrwt beam="1">  1       -2 0.20761060E+00 0.27856822E+04</pdfrwt>
<totfact> 0.14236112E+00</totfact>
</mgrwt>
</event>
<event>
 4    1  0.2069825E-008  0.2921186E+04  0.7816531E-02  0.8266602E-01
          1   -1    0    0  501    0  0.00000000000E+00  0.00000000000E+00  0.13535468428E+04  0.13535468428E+04  0.00000000000E+00 0. -1.
         -1   -1    0    0    0  501 -0.00000000000E+00 -0.00000000000E+00 -0.15761051227E+04  0.15761051227E+04  0.00000000000E+00 0.  1.
    2000013    1    1    2    0    0  0.89729686083E+03  0.54502772137E+02 -0.76333251639E+03  0.15143608352E+04  0.95000000000E+03 0.  0.
   -2000013    1    1    2    0    0 -0.89729686083E+03 -0.54502772137E+02  0.54077423647E+03  0.14152911303E+04  0.95000000000E+03 0.  0.
<mgrwt>
<rscale>  0 0.29211861E+04</rscale>
<asrwt>0</asrwt>
<pdfrwt beam="1">  1        1 0.20823798E+00 0.29211861E+04</pdfrwt>
<pdfrwt beam="2">  1       -1 0.24247771E+00 0.29211861E+04</pdfrwt>
<totfact> 0.55436605E-01</totfact>
</mgrwt>
</event>
<event>
 4    1  0.2069825E-008  0.4076259E+04  0.7816531E-02  0.7989337E-01
          1   -1    0    0  501    0  0.00000000000E+00  0.00000000000E+00  0.23748081092E+04  0.23748081092E+04  0.00000000000E+00 0.  1.
         -1   -1    0    0    0  501 -0.00000000000E+00 -0.00000000000E+00 -0.17491822593E+04  0.17491822593E+04  0.00000000000E+00 0. -1.
    2000013    1    1    2    0    0  0.10255910815E+04 -0.14754612390E+04  0.16055389811E+03  0.20388968803E+04  0.95000000000E+03 0.  0.
   -2000013    1    1    2    0    0 -0.10255910815E+04  0.14754612390E+04  0.46507195186E+03  0.20850934882E+04  0.95000000000E+03 0.  0.
<mgrwt>
<rscale>  0 0.40762592E+04</rscale>
<asrwt>0</asrwt>
<pdfrwt beam="1">  1        1 0.36535510E+00 0.40762592E+04</pdfrwt>
<pdfrwt beam="2">  1       -1 0.26910496E+00 0.40762592E+04</pdfrwt>
<totfact> 0.67347465E-02</totfact>
</mgrwt>
</event>
<event>
 4    1  0.2069825E-008  0.3015094E+04  0.7816531E-02  0.8239434E-01
         -2   -1    0    0    0  501 -0.00000000000E+00  0.00000000000E+00  0.74817179363E+03  0.74817179363E+03  0.00000000000E+00 0. -1.
          2   -1    0    0  501    0  0.00000000000E+00 -0.00000000000E+00 -0.30376677312E+04  0.30376677312E+04  0.00000000000E+00 0.  1.
    2000013    1    1    2    0    0 -0.10235683290E+04 -0.56718882287E+03 -0.11091883841E+04  0.18714150145E+04  0.95000000000E+03 0.  0.
   -2000013    1    1    2    0    0  0.10235683290E+04  0.56718882287E+03 -0.11803075535E+04  0.19144245103E+04  0.95000000000E+03 0.  0.
<mgrwt>
<rscale>  0 0.30150936E+04</rscale>
<asrwt>0</asrwt>
<pdfrwt beam="2">  1        2 0.46733350E+00 0.30150936E+04</pdfrwt>
<pdfrwt beam="1">  1       -2 0.11510335E+00 0.30150936E+04</pdfrwt>
<totfact> 0.82875975E-01</totfact>
</mgrwt>
</event>
<event>
 4    1  0.2069825E-008  0.2269534E+04  0.7816531E-02  0.8490031E-01
         -2   -1    0    0    0  501 -0.00000000000E+00  0.00000000000E+00  0.99959190931E+03  0.99959190931E+03  0.00000000000E+00 0. -1.
          2   -1    0    0  501    0  0.00000000000E+00 -0.00000000000E+00 -0.12882220471E+04  0.12882220471E+04  0.00000000000E+00 0.  1.
    2000013    1    1    2    0    0 -0.59335137933E+03  0.44440216943E+02 -0.32224607914E+03  0.11663547178E+04  0.95000000000E+03 0.  0.
   -2000013    1    1    2    0    0  0.59335137933E+03 -0.44440216943E+02  0.33615941389E+02  0.11214592386E+04  0.95000000000E+03 0.  0.
<mgrwt>
<rscale>  0 0.22695342E+04</rscale>
<asrwt>0</asrwt>
<pdfrwt beam="2">  1        2 0.19818801E+00 0.22695342E+04</pdfrwt>
<pdfrwt beam="1">  1       -2 0.15378337E+00 0.22695342E+04</pdfrwt>
<totfact> 0.42805140E+00</totfact>
</mgrwt>
</event>
<event>
 4    1  0.2069825E-008  0.2403805E+04  0.7816531E-02  0.8438080E-01
         -1   -1    0    0    0  501 -0.00000000000E+00  0.00000000000E+00  0.83445339038E+03  0.83445339038E+03  0.00000000000E+00 0. -1.
          1   -1    0    0  501    0  0.00000000000E+00 -0.00000000000E+00 -0.17311564361E+04  0.17311564361E+04  0.00000000000E+00 0.  1.
    2000013    1    1    2    0    0  0.41097697837E+03  0.20649001496E+03 -0.10619669951E+04  0.14972688809E+04  0.95000000000E+03 0.  0.
   -2000013    1    1    2    0    0 -0.41097697837E+03 -0.20649001496E+03  0.16526394939E+03  0.10683409456E+04  0.95000000000E+03 0.  0.
<mgrwt>
<rscale>  0 0.24038048E+04</rscale>
<asrwt>0</asrwt>
<pdfrwt beam="2">  1        1 0.26633176E+00 0.24038048E+04</pdfrwt>
<pdfrwt beam="1">  1       -1 0.12837744E+00 0.24038048E+04</pdfrwt>
<totfact> 0.21280830E+00</totfact>
</mgrwt>
</event>
