<event>
 4    1  0.2482334E-008  0.3193094E+04  0.7816531E-02  0.8190643E-01
          1   -1    0    0  501    0  0.00000000000E+00  0.00000000000E+00  0.13287781400E+04  0.13287781400E+04  0.00000000000E+00 0. -1.
         -1   -1    0    0    0  501 -0.00000000000E+00 -0.00000000000E+00 -0.19182751078E+04  0.19182751078E+04  0.00000000000E+00 0.  1.
    2000013    1    1    2    0    0  0.77390274387E+03 -0.10199342831E+04 -0.38145740446E+03  0.16392684802E+04  0.95000000000E+03 0.  0.
   -2000013    1    1    2    0    0 -0.77390274387E+03  0.10199342831E+04 -0.20803956333E+03  0.16077847675E+04  0.95000000000E+03 0.  0.
<mgrwt>
<rscale>  0 0.31930938E+04</rscale>
<asrwt>0</asrwt>
<pdfrwt beam="1">  1        1 0.20442740E+00 0.31930938E+04</pdfrwt>
<pdfrwt beam="2">  1       -1 0.29511925E+00 0.31930938E+04</pdfrwt>
<totfact> 0.25652403E-01</totfact>
</mgrwt>
</event>
<event>
 4    1  0.2482334E-008  0.2430060E+04  0.7816531E-02  0.8428335E-01
          1   -1    0    0  501    0  0.00000000000E+00  0.00000000000E+00  0.58529900581E+03  0.58529900581E+03  0.00000000000E+00 0.  1.
         -1   -1    0    0    0  501 -0.00000000000E+00 -0.00000000000E+00 -0.25222964537E+04  0.25222964537E+04  0.00000000000E+00 0. -1.
    2000013    1    1    2    0    0  0.12260006004E+03  0.73690297700E+03 -0.80805549232E+03  0.14537917495E+04  0.95000000000E+03 0.  0.
   -2000013    1    1    2    0    0 -0.12260006004E+03 -0.73690297700E+03 -0.11289419556E+04  0.16538037100E+04  0.95000000000E+03 0.  0.
<mgrwt>
<rscale>  0 0.24300598E+04</rscale>
<asrwt>0</asrwt>
<pdfrwt beam="1">  1        1 0.90045998E-01 0.24300598E+04</pdfrwt>
<pdfrwt beam="2">  1       -1 0.38804562E+00 0.24300598E+04</pdfrwt>
<totfact> 0.27389035E-01</totfact>
</mgrwt>
</event>
<event>
 4    1  0.2482334E-008  0.3029397E+04  0.7816531E-02  0.8235386E-01
         -2   -1    0    0    0  501 -0.00000000000E+00  0.00000000000E+00  0.80300141665E+03  0.80300141665E+03  0.00000000000E+00 0.  1.
          2   -1    0    0  501    0  0.00000000000E+00 -0.00000000000E+00 -0.28571697079E+04  0.28571697079E+04  0.00000000000E+00 0. -1.
    2000013    1    1    2    0    0 -0.57369460483E+03  0.78348602905E+03 -0.18365318650E+04  0.22843653711E+04  0.95000000000E+03 0.  0.
   -2000013    1    1    2    0    0  0.57369460483E+03 -0.78348602905E+03 -0.21763642626E+03  0.13758057535E+04  0.95000000000E+03 0.  0.
<mgrwt>
<rscale>  0 0.30293969E+04</rscale>
<asrwt>0</asrwt>
<pdfrwt beam="2">  1        2 0.43956458E+00 0.30293969E+04</pdfrwt>
<pdfrwt beam="1">  1       -2 0.12353868E+00 0.30293969E+04</pdfrwt>
<totfact> 0.89965854E-01</totfact>
</mgrwt>
</event>
<event>
 4    1  0.2482334E-008  0.3561984E+04  0.7816531E-02  0.8099256E-01
          2   -1    0    0  501    0  0.00000000000E+00  0.00000000000E+00  0.18662869495E+04  0.18662869495E+04  0.00000000000E+00 0. -1.
         -2   -1    0    0    0  501 -0.00000000000E+00 -0.00000000000E+00 -0.16995956147E+04  0.16995956147E+04  0.00000000000E+00 0.  1.
    2000013    1    1    2    0    0  0.14235886335E+04 -0.64851269939E+02  0.57237062792E+03  0.18058013236E+04  0.95000000000E+03 0.  0.
   -2000013    1    1    2    0    0 -0.14235886335E+04  0.64851269939E+02 -0.40567929316E+03  0.17600812406E+04  0.95000000000E+03 0.  0.
<mgrwt>
<rscale>  0 0.35619843E+04</rscale>
<asrwt>0</asrwt>
<pdfrwt beam="1">  1        2 0.28712107E+00 0.35619843E+04</pdfrwt>
<pdfrwt beam="2">  1       -2 0.26147625E+00 0.35619843E+04</pdfrwt>
<totfact> 0.35419585E-01</totfact>
</mgrwt>
</event>
<event>
 4    1  0.2482334E-008  0.2867672E+04  0.7816531E-02  0.8282561E-01
         -2   -1    0    0    0  501 -0.00000000000E+00  0.00000000000E+00  0.63680194415E+03  0.63680194415E+03  0.00000000000E+00 0. -1.
          2   -1    0    0  501    0  0.00000000000E+00 -0.00000000000E+00 -0.32284545304E+04  0.32284545304E+04  0.00000000000E+00 0.  1.
    2000013    1    1    2    0    0 -0.72477026854E+03  0.76614254088E+03 -0.15691480593E+04  0.21158903486E+04  0.95000000000E+03 0.  0.
   -2000013    1    1    2    0    0  0.72477026854E+03 -0.76614254088E+03 -0.10225045269E+04  0.17493661260E+04  0.95000000000E+03 0.  0.
<mgrwt>
<rscale>  0 0.28676723E+04</rscale>
<asrwt>0</asrwt>
<pdfrwt beam="2">  1        2 0.49668532E+00 0.28676723E+04</pdfrwt>
<pdfrwt beam="1">  1       -2 0.97969529E-01 0.28676723E+04</pdfrwt>
<totfact> 0.93160125E-01</totfact>
</mgrwt>
</event>
<event>
 4    1  0.2482334E-008  0.2753273E+04  0.7816531E-02  0.8317924E-01
         -2   -1    0    0    0  501 -0.00000000000E+00  0.00000000000E+00  0.13121596240E+04  0.13121596240E+04  0.00000000000E+00 0. -1.
          2   -1    0    0  501    0  0.00000000000E+00 -0.00000000000E+00 -0.14442814230E+04  0.14442814230E+04  0.00000000000E+00 0.  1.
    2000013    1    1    2    0    0  0.24802416901E+03  0.33171538197E+03  0.84111462726E+03  0.13347377642E+04  0.95000000000E+03 0.  0.
   -2000013    1    1    2    0    0 -0.24802416901E+03 -0.33171538197E+03 -0.97323642625E+03  0.14217032828E+04  0.95000000000E+03 0.  0.
<mgrwt>
<rscale>  0 0.27532728E+04</rscale>
<asrwt>0</asrwt>
<pdfrwt beam="2">  1        2 0.22219714E+00 0.27532728E+04</pdfrwt>
<pdfrwt beam="1">  1       -2 0.20187071E+00 0.27532728E+04</pdfrwt>
<totfact> 0.15419713E+00</totfact>
</mgrwt>
</event>
<event>
 4    1  0.2482334E-008  0.2554142E+04  0.7816531E-02  0.8383947E-01
         -2   -1    0    0    0  501 -0.00000000000E+00  0.00000000000E+00  0.59304548165E+03  0.59304548165E+03  0.00000000000E+00 0. -1.
          2   -1    0    0  501    0  0.00000000000E+00 -0.00000000000E+00 -0.27500599669E+04  0.27500599669E+04  0.00000000000E+00 0.  1.
    2000013    1    1    2    0    0  0.57393829013E+03  0.59276020311E+03 -0.79281752915E+03  0.14872220593E+04  0.95000000000E+03 0.  0.
   -2000013    1    1    2    0    0 -0.57393829013E+03 -0.59276020311E+03 -0.13641969561E+04  0.18558833892E+04  0.95000000000E+03 0.  0.
<mgrwt>
<rscale>  0 0.25541422E+04</rscale>
<asrwt>0</asrwt>
<pdfrwt beam="2">  1        2 0.42308615E+00 0.25541422E+04</pdfrwt>
<pdfrwt beam="1">  1       -2 0.91237766E-01 0.25541422E+04</pdfrwt>
<totfact> 0.22530146E+00</totfact>
</mgrwt>
</event>
<event>
 4    1  0.2482334E-008  0.2573882E+04  0.7816531E-02  0.8377127E-01
         -2   -1    0    0    0  501 -0.00000000000E+00  0.00000000000E+00  0.11724192991E+04  0.11724192991E+04  0.00000000000E+00 0. -1.
          2   -1    0    0  501    0  0.00000000000E+00 -0.00000000000E+00 -0.14126491062E+04  0.14126491062E+04  0.00000000000E+00 0.  1.
    2000013    1    1    2    0    0  0.85619013668E+03  0.12682722740E+03 -0.52216504662E+02  0.12862244202E+04  0.95000000000E+03 0.  0.
   -2000013    1    1    2    0    0 -0.85619013668E+03 -0.12682722740E+03 -0.18801330242E+03  0.12988439851E+04  0.95000000000E+03 0.  0.
<mgrwt>
<rscale>  0 0.25738820E+04</rscale>
<asrwt>0</asrwt>
<pdfrwt beam="2">  1        2 0.21733063E+00 0.25738820E+04</pdfrwt>
<pdfrwt beam="1">  1       -2 0.18037220E+00 0.25738820E+04</pdfrwt>
<totfact> 0.22743198E+00</totfact>
</mgrwt>
</event>
<event>
 4    1  0.2482334E-008  0.2607188E+04  0.7816531E-02  0.8365764E-01
         -2   -1    0    0    0  501 -0.00000000000E+00  0.00000000000E+00  0.15878759577E+04  0.15878759577E+04  0.00000000000E+00 0. -1.
          2   -1    0    0  501    0  0.00000000000E+00 -0.00000000000E+00 -0.10702081013E+04  0.10702081013E+04  0.00000000000E+00 0.  1.
    2000013    1    1    2    0    0 -0.84387324065E+03 -0.29098187294E+03  0.26706728654E+03  0.13306454946E+04  0.95000000000E+03 0.  0.
   -2000013    1    1    2    0    0  0.84387324065E+03  0.29098187294E+03  0.25060056985E+03  0.13274385644E+04  0.95000000000E+03 0.  0.
<mgrwt>
<rscale>  0 0.26071883E+04</rscale>
<asrwt>0</asrwt>
<pdfrwt beam="2">  1        2 0.16464740E+00 0.26071883E+04</pdfrwt>
<pdfrwt beam="1">  1       -2 0.24428861E+00 0.26071883E+04</pdfrwt>
<totfact> 0.14004967E+00</totfact>
</mgrwt>
</event>
<event>
 4    1  0.2482334E-008  0.2186614E+04  0.7816531E-02  0.8524020E-01
          2   -1    0    0  501    0  0.00000000000E+00  0.00000000000E+00  0.17676049880E+04  0.17676049880E+04  0.00000000000E+00 0.  1.
         -2   -1    0    0    0  501 -0.00000000000E+00 -0.00000000000E+00 -0.67623744968E+03  0.67623744968E+03  0.00000000000E+00 0. -1.
    2000013    1    1    2    0    0  0.44648102248E+03 -0.22509093452E+03  0.77692796833E+03  0.13251899110E+04  0.95000000000E+03 0.  0.
   -2000013    1    1    2    0    0 -0.44648102248E+03  0.22509093452E+03  0.31443956996E+03  0.11186525267E+04  0.95000000000E+03 0.  0.
<mgrwt>
<rscale>  0 0.21866145E+04</rscale>
<asrwt>0</asrwt>
<pdfrwt beam="1">  1        2 0.27193923E+00 0.21866145E+04</pdfrwt>
<pdfrwt beam="2">  1       -2 0.10403653E+00 0.21866145E+04</pdfrwt>
<totfact> 0.61850673E+00</totfact>
</mgrwt>
</event>
<event>
 4    1  0.2482334E-008  0.3098600E+04  0.7816531E-02  0.8216122E-01
          2   -1    0    0  501    0  0.00000000000E+00  0.00000000000E+00  0.10257986435E+04  0.10257986435E+04  0.00000000000E+00 0.  1.
         -2   -1    0    0    0  501 -0.00000000000E+00 -0.00000000000E+00 -0.23399626308E+04  0.23399626308E+04  0.00000000000E+00 0. -1.
    2000013    1    1    2    0    0 -0.10948904051E+04  0.54277185298E+03 -0.58466924617E+03  0.16546070262E+04  0.95000000000E+03 0.  0.
   -2000013    1    1    2    0    0  0.10948904051E+04 -0.54277185298E+03 -0.72949474116E+03  0.17111542482E+04  0.95000000000E+03 0.  0.
<mgrwt>
<rscale>  0 0.30986000E+04</rscale>
<asrwt>0</asrwt>
<pdfrwt beam="1">  1        2 0.15781518E+00 0.30986000E+04</pdfrwt>
<pdfrwt beam="2">  1       -2 0.35999425E+00 0.30986000E+04</pdfrwt>
<totfact> 0.27679537E-01</totfact>
</mgrwt>
</event>
<event>
 4    1  0.2482334E-008  0.2931312E+04  0.7816531E-02  0.8263622E-01
          2   -1    0    0  501    0  0.00000000000E+00  0.00000000000E+00  0.12045734084E+04  0.12045734084E+04  0.00000000000E+00 0.  1.
         -2   -1    0    0    0  501 -0.00000000000E+00 -0.00000000000E+00 -0.17833258760E+04  0.17833258760E+04  0.00000000000E+00 0. -1.
    2000013    1    1    2    0    0 -0.44908861452E+03  0.71617439809E+03 -0.10321832522E+04  0.16378304608E+04  0.95000000000E+03 0.  0.
   -2000013    1    1    2    0    0  0.44908861452E+03 -0.71617439809E+03  0.45343078464E+03  0.13500688237E+04  0.95000000000E+03 0.  0.
<mgrwt>
<rscale>  0 0.29313116E+04</rscale>
<asrwt>0</asrwt>
<pdfrwt beam="1">  1        2 0.18531899E+00 0.29313116E+04</pdfrwt>
<pdfrwt beam="2">  1       -2 0.27435782E+00 0.29313116E+04</pdfrwt>
<totfact> 0.73861287E-01</totfact>
</mgrwt>
</event>
<event>
 4    1  0.2482334E-008  0.2284613E+04  0.7816531E-02  0.8484013E-01
         -2   -1    0    0    0  501 -0.00000000000E+00  0.00000000000E+00  0.12786041418E+04  0.12786041418E+04  0.00000000000E+00 0. -1.
          2   -1    0    0  501    0  0.00000000000E+00 -0.00000000000E+00 -0.10205379139E+04  0.10205379139E+04  0.00000000000E+00 0.  1.
    2000013    1    1    2    0    0 -0.27079334501E+03  0.55635237215E+03  0.26958882377E+03  0.11653476441E+04  0.95000000000E+03 0.  0.
   -2000013    1    1    2    0    0  0.27079334501E+03 -0.55635237215E+03 -0.11522595852E+02  0.11337944117E+04  0.95000000000E+03 0.  0.
<mgrwt>
<rscale>  0 0.22846129E+04</rscale>
<asrwt>0</asrwt>
<pdfrwt beam="2">  1        2 0.15700583E+00 0.22846129E+04</pdfrwt>
<pdfrwt beam="1">  1       -2 0.19670833E+00 0.22846129E+04</pdfrwt>
<totfact> 0.31009250E+00</totfact>
</mgrwt>
</event>
<event>
 4    1  0.2482334E-008  0.2136505E+04  0.7816531E-02  0.8545331E-01
         -2   -1    0    0    0  501 -0.00000000000E+00  0.00000000000E+00  0.91058477861E+03  0.91058477861E+03  0.00000000000E+00 0.  1.
          2   -1    0    0  501    0  0.00000000000E+00 -0.00000000000E+00 -0.12532206522E+04  0.12532206522E+04  0.00000000000E+00 0. -1.
    2000013    1    1    2    0    0  0.36112199584E+03 -0.27915718424E+03 -0.34768623631E+03  0.11098304142E+04  0.95000000000E+03 0.  0.
   -2000013    1    1    2    0    0 -0.36112199584E+03  0.27915718424E+03  0.50503627537E+01  0.10539750166E+04  0.95000000000E+03 0.  0.
<mgrwt>
<rscale>  0 0.21365052E+04</rscale>
<asrwt>0</asrwt>
<pdfrwt beam="2">  1        2 0.19280318E+00 0.21365052E+04</pdfrwt>
<pdfrwt beam="1">  1       -2 0.14008997E+00 0.21365052E+04</pdfrwt>
<totfact> 0.58025186E+00</totfact>
</mgrwt>
</event>
<event>
 4    1  0.2482334E-008  0.2962677E+04  0.7816531E-02  0.8254470E-01
         -2   -1    0    0    0  501 -0.00000000000E+00  0.00000000000E+00  0.15584244762E+04  0.15584244762E+04  0.00000000000E+00 0. -1.
          2   -1    0    0  501    0  0.00000000000E+00 -0.00000000000E+00 -0.14080652968E+04  0.14080652968E+04  0.00000000000E+00 0.  1.
    2000013    1    1    2    0    0 -0.56529658785E+03  0.22562619186E+03 -0.88594955365E+03  0.14345291988E+04  0.95000000000E+03 0.  0.
   -2000013    1    1    2    0    0  0.56529658785E+03 -0.22562619186E+03  0.10363087330E+04  0.15319605742E+04  0.95000000000E+03 0.  0.
<mgrwt>
<rscale>  0 0.29626768E+04</rscale>
<asrwt>0</asrwt>
<pdfrwt beam="2">  1        2 0.21662543E+00 0.29626768E+04</pdfrwt>
<pdfrwt beam="1">  1       -2 0.23975761E+00 0.29626768E+04</pdfrwt>
<totfact> 0.91383965E-01</totfact>
</mgrwt>
</event>
<event>
 4    1  0.2482334E-008  0.2866799E+04  0.7816531E-02  0.8282825E-01
          2   -1    0    0  501    0  0.00000000000E+00  0.00000000000E+00  0.19135314813E+04  0.19135314813E+04  0.00000000000E+00 0.  1.
         -2   -1    0    0    0  501 -0.00000000000E+00 -0.00000000000E+00 -0.10737393284E+04  0.10737393284E+04  0.00000000000E+00 0. -1.
    2000013    1    1    2    0    0 -0.67696953944E+03  0.39460498504E+03  0.11842988232E+04  0.17085270130E+04  0.95000000000E+03 0.  0.
   -2000013    1    1    2    0    0  0.67696953944E+03 -0.39460498504E+03 -0.34450667041E+03  0.12787437967E+04  0.95000000000E+03 0.  0.
<mgrwt>
<rscale>  0 0.28667989E+04</rscale>
<asrwt>0</asrwt>
<pdfrwt beam="1">  1        2 0.29438946E+00 0.28667989E+04</pdfrwt>
<pdfrwt beam="2">  1       -2 0.16519067E+00 0.28667989E+04</pdfrwt>
<totfact> 0.14907306E+00</totfact>
</mgrwt>
</event>
<event>
 4    1  0.2482334E-008  0.2549975E+04  0.7816531E-02  0.8385395E-01
          2   -1    0    0  501    0  0.00000000000E+00  0.00000000000E+00  0.11055412881E+04  0.11055412881E+04  0.00000000000E+00 0.  1.
         -2   -1    0    0    0  501 -0.00000000000E+00 -0.00000000000E+00 -0.14704044585E+04  0.14704044585E+04  0.00000000000E+00 0. -1.
    2000013    1    1    2    0    0 -0.73990505082E+03  0.41165996477E+03 -0.10308590506E+03  0.12767341597E+04  0.95000000000E+03 0.  0.
   -2000013    1    1    2    0    0  0.73990505082E+03 -0.41165996477E+03 -0.26177726540E+03  0.12992115869E+04  0.95000000000E+03 0.  0.
<mgrwt>
<rscale>  0 0.25499748E+04</rscale>
<asrwt>0</asrwt>
<pdfrwt beam="1">  1        2 0.17008327E+00 0.25499748E+04</pdfrwt>
<pdfrwt beam="2">  1       -2 0.22621607E+00 0.25499748E+04</pdfrwt>
<totfact> 0.17335082E+00</totfact>
</mgrwt>
</event>
<event>
 4    1  0.2482334E-008  0.2018378E+04  0.7816531E-02  0.8598076E-01
          2   -1    0    0  501    0  0.00000000000E+00  0.00000000000E+00  0.11180717243E+04  0.11180717243E+04  0.00000000000E+00 0.  1.
         -2   -1    0    0    0  501 -0.00000000000E+00 -0.00000000000E+00 -0.91090935960E+03  0.91090935960E+03  0.00000000000E+00 0. -1.
    2000013    1    1    2    0    0 -0.28496817632E+03 -0.16227319636E+03  0.19583775124E+03  0.10239100920E+04  0.95000000000E+03 0.  0.
   -2000013    1    1    2    0    0  0.28496817632E+03  0.16227319636E+03  0.11324613436E+02  0.10050709918E+04  0.95000000000E+03 0.  0.
<mgrwt>
<rscale>  0 0.20183776E+04</rscale>
<asrwt>0</asrwt>
<pdfrwt beam="1">  1        2 0.17201104E+00 0.20183776E+04</pdfrwt>
<pdfrwt beam="2">  1       -2 0.14013990E+00 0.20183776E+04</pdfrwt>
<totfact> 0.70571676E+00</totfact>
</mgrwt>
</event>
<event>
 4    1  0.2482334E-008  0.2937358E+04  0.7816531E-02  0.8261849E-01
          2   -1    0    0  501    0  0.00000000000E+00  0.00000000000E+00  0.28984276674E+04  0.28984276674E+04  0.00000000000E+00 0.  1.
         -2   -1    0    0    0  501 -0.00000000000E+00 -0.00000000000E+00 -0.74420258093E+03  0.74420258093E+03  0.00000000000E+00 0. -1.
    2000013    1    1    2    0    0 -0.40080917311E+03  0.68017382516E+03  0.20623776364E+04  0.24039937481E+04  0.95000000000E+03 0.  0.
   -2000013    1    1    2    0    0  0.40080917311E+03 -0.68017382516E+03  0.91847450086E+02  0.12386365003E+04  0.95000000000E+03 0.  0.
<mgrwt>
<rscale>  0 0.29373576E+04</rscale>
<asrwt>0</asrwt>
<pdfrwt beam="1">  1        2 0.44591194E+00 0.29373576E+04</pdfrwt>
<pdfrwt beam="2">  1       -2 0.11449271E+00 0.29373576E+04</pdfrwt>
<totfact> 0.10321530E+00</totfact>
</mgrwt>
</event>
<event>
 4    1  0.2482334E-008  0.2354697E+04  0.7816531E-02  0.8456662E-01
          2   -1    0    0  501    0  0.00000000000E+00  0.00000000000E+00  0.21350635421E+04  0.21350635421E+04  0.00000000000E+00 0.  1.
         -2   -1    0    0    0  501 -0.00000000000E+00 -0.00000000000E+00 -0.64923098358E+03  0.64923098358E+03  0.00000000000E+00 0. -1.
    2000013    1    1    2    0    0  0.69200261209E+03 -0.85689423193E+01  0.82405255263E+03  0.14354454540E+04  0.95000000000E+03 0.  0.
   -2000013    1    1    2    0    0 -0.69200261209E+03  0.85689423193E+01  0.66178000585E+03  0.13488490716E+04  0.95000000000E+03 0.  0.
<mgrwt>
<rscale>  0 0.23546969E+04</rscale>
<asrwt>0</asrwt>
<pdfrwt beam="1">  1        2 0.32847131E+00 0.23546969E+04</pdfrwt>
<pdfrwt beam="2">  1       -2 0.99881691E-01 0.23546969E+04</pdfrwt>
<totfact> 0.41984167E+00</totfact>
</mgrwt>
</event>
<event>
 4    1  0.2482334E-008  0.2353741E+04  0.7816531E-02  0.8457028E-01
          1   -1    0    0  501    0  0.00000000000E+00  0.00000000000E+00  0.28019446432E+04  0.28019446432E+04  0.00000000000E+00 0.  1.
         -1   -1    0    0    0  501 -0.00000000000E+00 -0.00000000000E+00 -0.49430815942E+03  0.49430815942E+03  0.00000000000E+00 0. -1.
    2000013    1    1    2    0    0 -0.56581344784E+03 -0.29048873995E+03  0.76271022505E+03  0.13743199966E+04  0.95000000000E+03 0.  0.
   -2000013    1    1    2    0    0  0.56581344784E+03  0.29048873995E+03  0.15449262588E+04  0.19219328060E+04  0.95000000000E+03 0.  0.
<mgrwt>
<rscale>  0 0.23537409E+04</rscale>
<asrwt>0</asrwt>
<pdfrwt beam="1">  1        1 0.43106840E+00 0.23537409E+04</pdfrwt>
<pdfrwt beam="2">  1       -1 0.76047411E-01 0.23537409E+04</pdfrwt>
<totfact> 0.12980821E+00</totfact>
</mgrwt>
</event>
<event>
 4    1  0.2482334E-008  0.3607404E+04  0.7816531E-02  0.8088798E-01
         -2   -1    0    0    0  501 -0.00000000000E+00  0.00000000000E+00  0.11444715175E+04  0.11444715175E+04  0.00000000000E+00 0. -1.
          2   -1    0    0  501    0  0.00000000000E+00 -0.00000000000E+00 -0.28426570544E+04  0.28426570544E+04  0.00000000000E+00 0.  1.
    2000013    1    1    2    0    0  0.14050754342E+04 -0.46411680324E+03 -0.40533474703E+03  0.18045602345E+04  0.95000000000E+03 0.  0.
   -2000013    1    1    2    0    0 -0.14050754342E+04  0.46411680324E+03 -0.12928507898E+04  0.21825683374E+04  0.95000000000E+03 0.  0.
<mgrwt>
<rscale>  0 0.36074035E+04</rscale>
<asrwt>0</asrwt>
<pdfrwt beam="2">  1        2 0.43733185E+00 0.36074035E+04</pdfrwt>
<pdfrwt beam="1">  1       -2 0.17607254E+00 0.36074035E+04</pdfrwt>
<totfact> 0.34249205E-01</totfact>
</mgrwt>
</event>
<event>
 4    1  0.2482334E-008  0.2858714E+04  0.7816531E-02  0.8285268E-01
         -2   -1    0    0    0  501 -0.00000000000E+00  0.00000000000E+00  0.17626304061E+04  0.17626304061E+04  0.00000000000E+00 0. -1.
          2   -1    0    0  501    0  0.00000000000E+00 -0.00000000000E+00 -0.11590981951E+04  0.11590981951E+04  0.00000000000E+00 0.  1.
    2000013    1    1    2    0    0 -0.65672152049E+03  0.59089575927E+03  0.91509470575E+03  0.15875576444E+04  0.95000000000E+03 0.  0.
   -2000013    1    1    2    0    0  0.65672152049E+03 -0.59089575927E+03 -0.31156249470E+03  0.13341709568E+04  0.95000000000E+03 0.  0.
<mgrwt>
<rscale>  0 0.28587142E+04</rscale>
<asrwt>0</asrwt>
<pdfrwt beam="2">  1        2 0.17832280E+00 0.28587142E+04</pdfrwt>
<pdfrwt beam="1">  1       -2 0.27117391E+00 0.28587142E+04</pdfrwt>
<totfact> 0.82756518E-01</totfact>
</mgrwt>
</event>
<event>
 4    1  0.2482334E-008  0.2174379E+04  0.7816531E-02  0.8529168E-01
          2   -1    0    0  501    0  0.00000000000E+00  0.00000000000E+00  0.22165789382E+04  0.22165789382E+04  0.00000000000E+00 0.  1.
         -2   -1    0    0    0  501 -0.00000000000E+00 -0.00000000000E+00 -0.53324552190E+03  0.53324552190E+03  0.00000000000E+00 0. -1.
    2000013    1    1    2    0    0  0.54714451094E+02 -0.47818423189E+03  0.56509601201E+03  0.12056066247E+04  0.95000000000E+03 0.  0.
   -2000013    1    1    2    0    0 -0.54714451094E+02  0.47818423189E+03  0.11182374043E+04  0.15442178354E+04  0.95000000000E+03 0.  0.
<mgrwt>
<rscale>  0 0.21743788E+04</rscale>
<asrwt>0</asrwt>
<pdfrwt beam="1">  1        2 0.34101214E+00 0.21743788E+04</pdfrwt>
<pdfrwt beam="2">  1       -2 0.82037774E-01 0.21743788E+04</pdfrwt>
<totfact> 0.60451849E+00</totfact>
</mgrwt>
</event>
<event>
 4    1  0.2482334E-008  0.3029927E+04  0.7816531E-02  0.8235236E-01
          2   -1    0    0  501    0  0.00000000000E+00  0.00000000000E+00  0.38430394456E+04  0.38430394456E+04  0.00000000000E+00 0.  1.
         -2   -1    0    0    0  501 -0.00000000000E+00 -0.00000000000E+00 -0.59721328873E+03  0.59721328873E+03  0.00000000000E+00 0. -1.
    2000013    1    1    2    0    0  0.46514547994E+03 -0.10731927679E+04  0.13934790908E+04  0.20524100495E+04  0.95000000000E+03 0.  0.
   -2000013    1    1    2    0    0 -0.46514547994E+03  0.10731927679E+04  0.18523470661E+04  0.23878426849E+04  0.95000000000E+03 0.  0.
<mgrwt>
<rscale>  0 0.30299269E+04</rscale>
<asrwt>0</asrwt>
<pdfrwt beam="1">  1        2 0.59123682E+00 0.30299269E+04</pdfrwt>
<pdfrwt beam="2">  1       -2 0.91878970E-01 0.30299269E+04</pdfrwt>
<totfact> 0.39128677E-01</totfact>
</mgrwt>
</event>
<event>
 4    1  0.2482334E-008  0.2820855E+04  0.7816531E-02  0.8296823E-01
          2   -1    0    0  501    0  0.00000000000E+00  0.00000000000E+00  0.18132415834E+04  0.18132415834E+04  0.00000000000E+00 0.  1.
         -2   -1    0    0    0  501 -0.00000000000E+00 -0.00000000000E+00 -0.10970992174E+04  0.10970992174E+04  0.00000000000E+00 0. -1.
    2000013    1    1    2    0    0 -0.96993688808E+03 -0.12082058892E+03 -0.15963213155E+02  0.13631324241E+04  0.95000000000E+03 0.  0.
   -2000013    1    1    2    0    0  0.96993688808E+03  0.12082058892E+03  0.73210557918E+03  0.15472083766E+04  0.95000000000E+03 0.  0.
<mgrwt>
<rscale>  0 0.28208551E+04</rscale>
<asrwt>0</asrwt>
<pdfrwt beam="1">  1        2 0.27896024E+00 0.28208551E+04</pdfrwt>
<pdfrwt beam="2">  1       -2 0.16878449E+00 0.28208551E+04</pdfrwt>
<totfact> 0.16026596E+00</totfact>
</mgrwt>
</event>
<event>
 4    1  0.2482334E-008  0.3147759E+04  0.7816531E-02  0.8202752E-01
          2   -1    0    0  501    0  0.00000000000E+00  0.00000000000E+00  0.29082914061E+04  0.29082914061E+04  0.00000000000E+00 0.  1.
         -2   -1    0    0    0  501 -0.00000000000E+00 -0.00000000000E+00 -0.85173620463E+03  0.85173620463E+03  0.00000000000E+00 0. -1.
    2000013    1    1    2    0    0  0.69882919621E+02 -0.10409535958E+04  0.18611247850E+04  0.23355413669E+04  0.95000000000E+03 0.  0.
   -2000013    1    1    2    0    0 -0.69882919621E+02  0.10409535958E+04  0.19543041646E+03  0.14244862438E+04  0.95000000000E+03 0.  0.
<mgrwt>
<rscale>  0 0.31477593E+04</rscale>
<asrwt>0</asrwt>
<pdfrwt beam="1">  1        2 0.44742944E+00 0.31477593E+04</pdfrwt>
<pdfrwt beam="2">  1       -2 0.13103634E+00 0.31477593E+04</pdfrwt>
<totfact> 0.71429684E-01</totfact>
</mgrwt>
</event>
<event>
 4    1  0.2482334E-008  0.2412384E+04  0.7816531E-02  0.8434882E-01
         -2   -1    0    0    0  501 -0.00000000000E+00  0.00000000000E+00  0.19819086705E+04  0.19819086705E+04  0.00000000000E+00 0. -1.
          2   -1    0    0  501    0  0.00000000000E+00 -0.00000000000E+00 -0.73408967501E+03  0.73408967501E+03  0.00000000000E+00 0.  1.
    2000013    1    1    2    0    0  0.66748471709E+03  0.83115316080E+02  0.26796300854E+03  0.11944656451E+04  0.95000000000E+03 0.  0.
   -2000013    1    1    2    0    0 -0.66748471709E+03 -0.83115316080E+02  0.97985598694E+03  0.15215327004E+04  0.95000000000E+03 0.  0.
<mgrwt>
<rscale>  0 0.24123836E+04</rscale>
<asrwt>0</asrwt>
<pdfrwt beam="2">  1        2 0.11293687E+00 0.24123836E+04</pdfrwt>
<pdfrwt beam="1">  1       -2 0.30490902E+00 0.24123836E+04</pdfrwt>
<totfact> 0.10274580E+00</totfact>
</mgrwt>
</event>
<event>
 4    1  0.2482334E-008  0.3725962E+04  0.7816531E-02  0.8062233E-01
          2   -1    0    0  501    0  0.00000000000E+00  0.00000000000E+00  0.22658789730E+04  0.22658789730E+04  0.00000000000E+00 0.  1.
         -2   -1    0    0    0  501 -0.00000000000E+00 -0.00000000000E+00 -0.15317223526E+04  0.15317223526E+04  0.00000000000E+00 0. -1.
    2000013    1    1    2    0    0  0.10093478357E+04  0.96797737271E+03 -0.43055029536E+03  0.17446021909E+04  0.95000000000E+03 0.  0.
   -2000013    1    1    2    0    0 -0.10093478357E+04 -0.96797737271E+03  0.11647069158E+04  0.20529991347E+04  0.95000000000E+03 0.  0.
<mgrwt>
<rscale>  0 0.37259616E+04</rscale>
<asrwt>0</asrwt>
<pdfrwt beam="1">  1        2 0.34859677E+00 0.37259616E+04</pdfrwt>
<pdfrwt beam="2">  1       -2 0.23564959E+00 0.37259616E+04</pdfrwt>
<totfact> 0.30143841E-01</totfact>
</mgrwt>
</event>
<event>
 4    1  0.2482334E-008  0.2451353E+04  0.7816531E-02  0.8420524E-01
         -2   -1    0    0    0  501 -0.00000000000E+00  0.00000000000E+00  0.20365468836E+04  0.20365468836E+04  0.00000000000E+00 0.  1.
          2   -1    0    0  501    0  0.00000000000E+00 -0.00000000000E+00 -0.73766164904E+03  0.73766164904E+03  0.00000000000E+00 0. -1.
    2000013    1    1    2    0    0  0.44213880349E+03  0.26642421911E+03 -0.39286643828E+01  0.10811956439E+04  0.95000000000E+03 0.  0.
   -2000013    1    1    2    0    0 -0.44213880349E+03 -0.26642421911E+03  0.13028138990E+04  0.16930128887E+04  0.95000000000E+03 0.  0.
<mgrwt>
<rscale>  0 0.24513527E+04</rscale>
<asrwt>0</asrwt>
<pdfrwt beam="2">  1        2 0.11348641E+00 0.24513527E+04</pdfrwt>
<pdfrwt beam="1">  1       -2 0.31331490E+00 0.24513527E+04</pdfrwt>
<totfact> 0.90363328E-01</totfact>
</mgrwt>
</event>
<event>
 4    1  0.2482334E-008  0.2376095E+04  0.7816531E-02  0.8448508E-01
          2   -1    0    0  501    0  0.00000000000E+00  0.00000000000E+00  0.19746289836E+04  0.19746289836E+04  0.00000000000E+00 0. -1.
         -2   -1    0    0    0  501 -0.00000000000E+00 -0.00000000000E+00 -0.71479603428E+03  0.71479603428E+03  0.00000000000E+00 0.  1.
    2000013    1    1    2    0    0 -0.59621523115E+03  0.28132911621E+03  0.32131221473E+03  0.12001500793E+04  0.95000000000E+03 0.  0.
   -2000013    1    1    2    0    0  0.59621523115E+03 -0.28132911621E+03  0.93852073463E+03  0.14892749386E+04  0.95000000000E+03 0.  0.
<mgrwt>
<rscale>  0 0.23760951E+04</rscale>
<asrwt>0</asrwt>
<pdfrwt beam="1">  1        2 0.30378907E+00 0.23760951E+04</pdfrwt>
<pdfrwt beam="2">  1       -2 0.10996862E+00 0.23760951E+04</pdfrwt>
<totfact> 0.40884614E+00</totfact>
</mgrwt>
</event>
<event>
 4    1  0.2482334E-008  0.2239555E+04  0.7816531E-02  0.8502143E-01
          2   -1    0    0  501    0  0.00000000000E+00  0.00000000000E+00  0.27886417478E+04  0.27886417478E+04  0.00000000000E+00 0.  1.
         -2   -1    0    0    0  501 -0.00000000000E+00 -0.00000000000E+00 -0.44964587022E+03  0.44964587022E+03  0.00000000000E+00 0. -1.
    2000013    1    1    2    0    0  0.44329276994E+03  0.29886182496E+03  0.15397699092E+04  0.18865890500E+04  0.95000000000E+03 0.  0.
   -2000013    1    1    2    0    0 -0.44329276994E+03 -0.29886182496E+03  0.79922596842E+03  0.13516985681E+04  0.95000000000E+03 0.  0.
<mgrwt>
<rscale>  0 0.22395546E+04</rscale>
<asrwt>0</asrwt>
<pdfrwt beam="1">  1        2 0.42902180E+00 0.22395546E+04</pdfrwt>
<pdfrwt beam="2">  1       -2 0.69176290E-01 0.22395546E+04</pdfrwt>
<totfact> 0.40850948E+00</totfact>
</mgrwt>
</event>
<event>
 4    1  0.2482334E-008  0.3544464E+04  0.7816531E-02  0.8103333E-01
         -2   -1    0    0    0  501 -0.00000000000E+00  0.00000000000E+00  0.90360347034E+03  0.90360347034E+03  0.00000000000E+00 0. -1.
          2   -1    0    0  501    0  0.00000000000E+00 -0.00000000000E+00 -0.34758678995E+04  0.34758678995E+04  0.00000000000E+00 0.  1.
    2000013    1    1    2    0    0  0.10001258077E+04  0.10443962734E+04 -0.17603298198E+04  0.24682536907E+04  0.95000000000E+03 0.  0.
   -2000013    1    1    2    0    0 -0.10001258077E+04 -0.10443962734E+04 -0.81193460927E+03  0.19112176791E+04  0.95000000000E+03 0.  0.
<mgrwt>
<rscale>  0 0.35444640E+04</rscale>
<asrwt>0</asrwt>
<pdfrwt beam="2">  1        2 0.53474892E+00 0.35444640E+04</pdfrwt>
<pdfrwt beam="1">  1       -2 0.13901592E+00 0.35444640E+04</pdfrwt>
<totfact> 0.25271977E-01</totfact>
</mgrwt>
</event>
<event>
 4    1  0.2482334E-008  0.2900609E+04  0.7816531E-02  0.8272696E-01
         -2   -1    0    0    0  501 -0.00000000000E+00  0.00000000000E+00  0.22654232295E+04  0.22654232295E+04  0.00000000000E+00 0. -1.
          2   -1    0    0  501    0  0.00000000000E+00 -0.00000000000E+00 -0.92847259619E+03  0.92847259619E+03  0.00000000000E+00 0.  1.
    2000013    1    1    2    0    0 -0.85072176468E+03  0.38620939455E+03  0.12990945928E+04  0.18609223461E+04  0.95000000000E+03 0.  0.
   -2000013    1    1    2    0    0  0.85072176468E+03 -0.38620939455E+03  0.37856040526E+02  0.13329734795E+04  0.95000000000E+03 0.  0.
<mgrwt>
<rscale>  0 0.29006092E+04</rscale>
<asrwt>0</asrwt>
<pdfrwt beam="2">  1        2 0.14284194E+00 0.29006092E+04</pdfrwt>
<pdfrwt beam="1">  1       -2 0.34852665E+00 0.29006092E+04</pdfrwt>
<totfact> 0.38480891E-01</totfact>
</mgrwt>
</event>
<event>
 4    1  0.2482334E-008  0.3000181E+04  0.7816531E-02  0.8243679E-01
         -2   -1    0    0    0  501 -0.00000000000E+00  0.00000000000E+00  0.10463922553E+04  0.10463922553E+04  0.00000000000E+00 0. -1.
          2   -1    0    0  501    0  0.00000000000E+00 -0.00000000000E+00 -0.21505043206E+04  0.21505043206E+04  0.00000000000E+00 0.  1.
    2000013    1    1    2    0    0  0.10948153471E+04 -0.37237614567E+03 -0.66117367267E+03  0.16361342437E+04  0.95000000000E+03 0.  0.
   -2000013    1    1    2    0    0 -0.10948153471E+04  0.37237614567E+03 -0.44293839263E+03  0.15607623322E+04  0.95000000000E+03 0.  0.
<mgrwt>
<rscale>  0 0.30001807E+04</rscale>
<asrwt>0</asrwt>
<pdfrwt beam="2">  1        2 0.33084681E+00 0.30001807E+04</pdfrwt>
<pdfrwt beam="1">  1       -2 0.16098343E+00 0.30001807E+04</pdfrwt>
<totfact> 0.11673972E+00</totfact>
</mgrwt>
</event>
<event>
 4    1  0.2482334E-008  0.4582904E+04  0.7816531E-02  0.7896281E-01
         -2   -1    0    0    0  501 -0.00000000000E+00  0.00000000000E+00  0.19553753836E+04  0.19553753836E+04  0.00000000000E+00 0. -1.
          2   -1    0    0  501    0  0.00000000000E+00 -0.00000000000E+00 -0.26852906265E+04  0.26852906265E+04  0.00000000000E+00 0.  1.
    2000013    1    1    2    0    0  0.69279003803E+03 -0.15855986603E+04 -0.15433127560E+04  0.25056726465E+04  0.95000000000E+03 0.  0.
   -2000013    1    1    2    0    0 -0.69279003803E+03  0.15855986603E+04  0.81339751314E+03  0.21349933636E+04  0.95000000000E+03 0.  0.
<mgrwt>
<rscale>  0 0.45829035E+04</rscale>
<asrwt>0</asrwt>
<pdfrwt beam="2">  1        2 0.41312163E+00 0.45829035E+04</pdfrwt>
<pdfrwt beam="1">  1       -2 0.30082698E+00 0.45829035E+04</pdfrwt>
<totfact> 0.64062406E-02</totfact>
</mgrwt>
</event>
<event>
 4    1  0.2482334E-008  0.3662149E+04  0.7816531E-02  0.8076402E-01
          2   -1    0    0  501    0  0.00000000000E+00  0.00000000000E+00  0.20505250111E+04  0.20505250111E+04  0.00000000000E+00 0.  1.
         -2   -1    0    0    0  501 -0.00000000000E+00 -0.00000000000E+00 -0.16351102818E+04  0.16351102818E+04  0.00000000000E+00 0. -1.
    2000013    1    1    2    0    0 -0.11867506693E+04  0.10196671839E+04  0.16011549397E+03  0.18374534792E+04  0.95000000000E+03 0.  0.
   -2000013    1    1    2    0    0  0.11867506693E+04 -0.10196671839E+04  0.25529923536E+03  0.18481818137E+04  0.95000000000E+03 0.  0.
<mgrwt>
<rscale>  0 0.36621494E+04</rscale>
<asrwt>0</asrwt>
<pdfrwt beam="1">  1        2 0.31546539E+00 0.36621494E+04</pdfrwt>
<pdfrwt beam="2">  1       -2 0.25155543E+00 0.36621494E+04</pdfrwt>
<totfact> 0.31921650E-01</totfact>
</mgrwt>
</event>
<event>
 4    1  0.2482334E-008  0.2622982E+04  0.7816531E-02  0.8360436E-01
         -2   -1    0    0    0  501 -0.00000000000E+00  0.00000000000E+00  0.18438826734E+04  0.18438826734E+04  0.00000000000E+00 0. -1.
          2   -1    0    0  501    0  0.00000000000E+00 -0.00000000000E+00 -0.93281925078E+03  0.93281925078E+03  0.00000000000E+00 0.  1.
    2000013    1    1    2    0    0 -0.64493937848E+03  0.63145591044E+03  0.51180614401E+03  0.14068151612E+04  0.95000000000E+03 0.  0.
   -2000013    1    1    2    0    0  0.64493937848E+03 -0.63145591044E+03  0.39925727856E+03  0.13698867629E+04  0.95000000000E+03 0.  0.
<mgrwt>
<rscale>  0 0.26229825E+04</rscale>
<asrwt>0</asrwt>
<pdfrwt beam="2">  1        2 0.14351065E+00 0.26229825E+04</pdfrwt>
<pdfrwt beam="1">  1       -2 0.28367426E+00 0.26229825E+04</pdfrwt>
<totfact> 0.98413142E-01</totfact>
</mgrwt>
</event>
<event>
 4    1  0.2482334E-008  0.3171534E+04  0.7816531E-02  0.8196376E-01
         -2   -1    0    0    0  501 -0.00000000000E+00  0.00000000000E+00  0.45967042012E+03  0.45967042012E+03  0.00000000000E+00 0. -1.
          2   -1    0    0  501    0  0.00000000000E+00 -0.00000000000E+00 -0.54705654605E+04  0.54705654605E+04  0.00000000000E+00 0.  1.
    2000013    1    1    2    0    0  0.18029197954E+03 -0.12478483619E+04 -0.27860867606E+04  0.32022507975E+04  0.95000000000E+03 0.  0.
   -2000013    1    1    2    0    0 -0.18029197954E+03  0.12478483619E+04 -0.22248082798E+04  0.27279850832E+04  0.95000000000E+03 0.  0.
<mgrwt>
<rscale>  0 0.31715341E+04</rscale>
<asrwt>0</asrwt>
<pdfrwt beam="2">  1        2 0.84162546E+00 0.31715341E+04</pdfrwt>
<pdfrwt beam="1">  1       -2 0.70718526E-01 0.31715341E+04</pdfrwt>
<totfact> 0.10348801E-02</totfact>
</mgrwt>
</event>
<event>
 4    1  0.2482334E-008  0.3004093E+04  0.7816531E-02  0.8242563E-01
         -2   -1    0    0    0  501 -0.00000000000E+00  0.00000000000E+00  0.20907912792E+04  0.20907912792E+04  0.00000000000E+00 0. -1.
          2   -1    0    0  501    0  0.00000000000E+00 -0.00000000000E+00 -0.10790863009E+04  0.10790863009E+04  0.00000000000E+00 0.  1.
    2000013    1    1    2    0    0  0.86728977236E+02 -0.10416254224E+04  0.10450709591E+04  0.17570369221E+04  0.95000000000E+03 0.  0.
   -2000013    1    1    2    0    0 -0.86728977236E+02  0.10416254224E+04 -0.33365980846E+02  0.14128406580E+04  0.95000000000E+03 0.  0.
<mgrwt>
<rscale>  0 0.30040934E+04</rscale>
<asrwt>0</asrwt>
<pdfrwt beam="2">  1        2 0.16601328E+00 0.30040934E+04</pdfrwt>
<pdfrwt beam="1">  1       -2 0.32166020E+00 0.30040934E+04</pdfrwt>
<totfact> 0.44912419E-01</totfact>
</mgrwt>
</event>
<event>
 4    1  0.2482334E-008  0.3101470E+04  0.7816531E-02  0.8215335E-01
         -2   -1    0    0    0  501 -0.00000000000E+00  0.00000000000E+00  0.14125841743E+04  0.14125841743E+04  0.00000000000E+00 0. -1.
          2   -1    0    0  501    0  0.00000000000E+00 -0.00000000000E+00 -0.17023973656E+04  0.17023973656E+04  0.00000000000E+00 0.  1.
    2000013    1    1    2    0    0 -0.55593225726E+03 -0.10915918014E+04 -0.10415593787E+03  0.15536993901E+04  0.95000000000E+03 0.  0.
   -2000013    1    1    2    0    0  0.55593225726E+03  0.10915918014E+04 -0.18565725341E+03  0.15612821498E+04  0.95000000000E+03 0.  0.
<mgrwt>
<rscale>  0 0.31014703E+04</rscale>
<asrwt>0</asrwt>
<pdfrwt beam="2">  1        2 0.26190729E+00 0.31014703E+04</pdfrwt>
<pdfrwt beam="1">  1       -2 0.21732064E+00 0.31014703E+04</pdfrwt>
<totfact> 0.85316942E-01</totfact>
</mgrwt>
</event>
<event>
 4    1  0.2482334E-008  0.3077512E+04  0.7816531E-02  0.8221937E-01
         -2   -1    0    0    0  501 -0.00000000000E+00  0.00000000000E+00  0.14512053868E+04  0.14512053868E+04  0.00000000000E+00 0. -1.
          2   -1    0    0  501    0  0.00000000000E+00 -0.00000000000E+00 -0.16315883698E+04  0.16315883698E+04  0.00000000000E+00 0.  1.
    2000013    1    1    2    0    0 -0.57760749331E+03 -0.99976922785E+03 -0.45427217011E+03  0.15627002687E+04  0.95000000000E+03 0.  0.
   -2000013    1    1    2    0    0  0.57760749331E+03  0.99976922785E+03  0.27388918706E+03  0.15200934879E+04  0.95000000000E+03 0.  0.
<mgrwt>
<rscale>  0 0.30775119E+04</rscale>
<asrwt>0</asrwt>
<pdfrwt beam="2">  1        2 0.25101360E+00 0.30775119E+04</pdfrwt>
<pdfrwt beam="1">  1       -2 0.22326237E+00 0.30775119E+04</pdfrwt>
<totfact> 0.85845055E-01</totfact>
</mgrwt>
</event>
<event>
 4    1  0.2482334E-008  0.3106401E+04  0.7816531E-02  0.8213983E-01
          2   -1    0    0  501    0  0.00000000000E+00  0.00000000000E+00  0.44157077787E+04  0.44157077787E+04  0.00000000000E+00 0. -1.
         -2   -1    0    0    0  501 -0.00000000000E+00 -0.00000000000E+00 -0.54632972800E+03  0.54632972800E+03  0.00000000000E+00 0.  1.
    2000013    1    1    2    0    0  0.93478584936E+03  0.42207671789E+03  0.30156644229E+04  0.33239592735E+04  0.95000000000E+03 0.  0.
   -2000013    1    1    2    0    0 -0.93478584936E+03 -0.42207671789E+03  0.85371362776E+03  0.16380782332E+04  0.95000000000E+03 0.  0.
<mgrwt>
<rscale>  0 0.31064014E+04</rscale>
<asrwt>0</asrwt>
<pdfrwt beam="1">  1        2 0.67933963E+00 0.31064014E+04</pdfrwt>
<pdfrwt beam="2">  1       -2 0.84050730E-01 0.31064014E+04</pdfrwt>
<totfact> 0.15532973E-01</totfact>
</mgrwt>
</event>
<event>
 4    1  0.2482334E-008  0.1909657E+04  0.7816531E-02  0.8650065E-01
          3   -1    0    0  501    0  0.00000000000E+00  0.00000000000E+00  0.65498459072E+03  0.65498459072E+03  0.00000000000E+00 0.  1.
         -3   -1    0    0    0  501 -0.00000000000E+00 -0.00000000000E+00 -0.13919366592E+04  0.13919366592E+04  0.00000000000E+00 0. -1.
    2000013    1    1    2    0    0  0.84892257792E+02  0.42567786281E+02 -0.38279078530E+03  0.10286143578E+04  0.95000000000E+03 0.  0.
   -2000013    1    1    2    0    0 -0.84892257792E+02 -0.42567786281E+02 -0.35416128314E+03  0.10183068920E+04  0.95000000000E+03 0.  0.
<mgrwt>
<rscale>  0 0.19096566E+04</rscale>
<asrwt>0</asrwt>
<pdfrwt beam="1">  1        3 0.10076686E+00 0.19096566E+04</pdfrwt>
<pdfrwt beam="2">  1       -3 0.21414410E+00 0.19096566E+04</pdfrwt>
<totfact> 0.25131544E-01</totfact>
</mgrwt>
</event>
<event>
 4    1  0.2482334E-008  0.2844521E+04  0.7816531E-02  0.8289578E-01
          2   -1    0    0  501    0  0.00000000000E+00  0.00000000000E+00  0.21956501041E+04  0.21956501041E+04  0.00000000000E+00 0.  1.
         -2   -1    0    0    0  501 -0.00000000000E+00 -0.00000000000E+00 -0.92128734947E+03  0.92128734947E+03  0.00000000000E+00 0. -1.
    2000013    1    1    2    0    0  0.24673039517E+03 -0.10203916988E+04  0.48915294345E+03  0.14979471650E+04  0.95000000000E+03 0.  0.
   -2000013    1    1    2    0    0 -0.24673039517E+03  0.10203916988E+04  0.78520981114E+03  0.16189902886E+04  0.95000000000E+03 0.  0.
<mgrwt>
<rscale>  0 0.28445208E+04</rscale>
<asrwt>0</asrwt>
<pdfrwt beam="1">  1        2 0.33779232E+00 0.28445208E+04</pdfrwt>
<pdfrwt beam="2">  1       -2 0.14173652E+00 0.28445208E+04</pdfrwt>
<totfact> 0.15658729E+00</totfact>
</mgrwt>
</event>
<event>
 4    1  0.2482334E-008  0.2385256E+04  0.7816531E-02  0.8445044E-01
         -2   -1    0    0    0  501 -0.00000000000E+00  0.00000000000E+00  0.52163073278E+03  0.52163073278E+03  0.00000000000E+00 0. -1.
          2   -1    0    0  501    0  0.00000000000E+00 -0.00000000000E+00 -0.27267604133E+04  0.27267604133E+04  0.00000000000E+00 0.  1.
    2000013    1    1    2    0    0  0.34124203175E+03  0.46613556457E+03 -0.51501384024E+03  0.12253439290E+04  0.95000000000E+03 0.  0.
   -2000013    1    1    2    0    0 -0.34124203175E+03 -0.46613556457E+03 -0.16901158403E+04  0.20230472170E+04  0.95000000000E+03 0.  0.
<mgrwt>
<rscale>  0 0.23852564E+04</rscale>
<asrwt>0</asrwt>
<pdfrwt beam="2">  1        2 0.41950160E+00 0.23852564E+04</pdfrwt>
<pdfrwt beam="1">  1       -2 0.80250883E-01 0.23852564E+04</pdfrwt>
<totfact> 0.31632301E+00</totfact>
</mgrwt>
</event>
<event>
 4    1  0.2482334E-008  0.2736761E+04  0.7816531E-02  0.8323175E-01
          2   -1    0    0  501    0  0.00000000000E+00  0.00000000000E+00  0.17122139863E+04  0.17122139863E+04  0.00000000000E+00 0.  1.
         -2   -1    0    0    0  501 -0.00000000000E+00 -0.00000000000E+00 -0.10935928826E+04  0.10935928826E+04  0.00000000000E+00 0. -1.
    2000013    1    1    2    0    0  0.19539448087E+03  0.79092616558E+03 -0.25802368391E+03  0.12778182281E+04  0.95000000000E+03 0.  0.
   -2000013    1    1    2    0    0 -0.19539448087E+03 -0.79092616558E+03  0.87664478762E+03  0.15279886407E+04  0.95000000000E+03 0.  0.
<mgrwt>
<rscale>  0 0.27367609E+04</rscale>
<asrwt>0</asrwt>
<pdfrwt beam="1">  1        2 0.26341754E+00 0.27367609E+04</pdfrwt>
<pdfrwt beam="2">  1       -2 0.16824506E+00 0.27367609E+04</pdfrwt>
<totfact> 0.18528196E+00</totfact>
</mgrwt>
</event>
<event>
 4    1  0.2482334E-008  0.2957680E+04  0.7816531E-02  0.8255920E-01
         -2   -1    0    0    0  501 -0.00000000000E+00  0.00000000000E+00  0.80539953802E+03  0.80539953802E+03  0.00000000000E+00 0. -1.
          2   -1    0    0  501    0  0.00000000000E+00 -0.00000000000E+00 -0.27153828259E+04  0.27153828259E+04  0.00000000000E+00 0.  1.
    2000013    1    1    2    0    0 -0.71948578762E+03  0.60589979368E+03 -0.20241346368E+03  0.13521263139E+04  0.95000000000E+03 0.  0.
   -2000013    1    1    2    0    0  0.71948578762E+03 -0.60589979368E+03 -0.17075698242E+04  0.21686560500E+04  0.95000000000E+03 0.  0.
<mgrwt>
<rscale>  0 0.29576802E+04</rscale>
<asrwt>0</asrwt>
<pdfrwt beam="2">  1        2 0.41775121E+00 0.29576802E+04</pdfrwt>
<pdfrwt beam="1">  1       -2 0.12390762E+00 0.29576802E+04</pdfrwt>
<totfact> 0.10942862E+00</totfact>
</mgrwt>
</event>
<event>
 4    1  0.2482334E-008  0.2547881E+04  0.7816531E-02  0.8386123E-01
         -2   -1    0    0    0  501 -0.00000000000E+00  0.00000000000E+00  0.48779592741E+03  0.48779592741E+03  0.00000000000E+00 0. -1.
          2   -1    0    0  501    0  0.00000000000E+00 -0.00000000000E+00 -0.33270571642E+04  0.33270571642E+04  0.00000000000E+00 0.  1.
    2000013    1    1    2    0    0  0.69404087997E+03  0.45150310533E+03 -0.11400101078E+04  0.16993148157E+04  0.95000000000E+03 0.  0.
   -2000013    1    1    2    0    0 -0.69404087997E+03 -0.45150310533E+03 -0.16992511290E+04  0.21155382758E+04  0.95000000000E+03 0.  0.
<mgrwt>
<rscale>  0 0.25478814E+04</rscale>
<asrwt>0</asrwt>
<pdfrwt beam="2">  1        2 0.51185494E+00 0.25478814E+04</pdfrwt>
<pdfrwt beam="1">  1       -2 0.75045528E-01 0.25478814E+04</pdfrwt>
<totfact> 0.15143267E+00</totfact>
</mgrwt>
</event>
<event>
 4    1  0.2482334E-008  0.2171187E+04  0.7816531E-02  0.8530517E-01
          2   -1    0    0  501    0  0.00000000000E+00  0.00000000000E+00  0.12293999593E+04  0.12293999593E+04  0.00000000000E+00 0.  1.
         -2   -1    0    0    0  501 -0.00000000000E+00 -0.00000000000E+00 -0.95860891454E+03  0.95860891454E+03  0.00000000000E+00 0. -1.
    2000013    1    1    2    0    0 -0.36990619780E+03 -0.31113862665E+03  0.34284451323E+03  0.11196786148E+04  0.95000000000E+03 0.  0.
   -2000013    1    1    2    0    0  0.36990619780E+03  0.31113862665E+03 -0.72053468426E+02  0.10683302591E+04  0.95000000000E+03 0.  0.
<mgrwt>
<rscale>  0 0.21711875E+04</rscale>
<asrwt>0</asrwt>
<pdfrwt beam="1">  1        2 0.18913846E+00 0.21711875E+04</pdfrwt>
<pdfrwt beam="2">  1       -2 0.14747829E+00 0.21711875E+04</pdfrwt>
<totfact> 0.52236013E+00</totfact>
</mgrwt>
</event>
<event>
 4    1  0.2482334E-008  0.2676008E+04  0.7816531E-02  0.8342832E-01
         -2   -1    0    0    0  501 -0.00000000000E+00  0.00000000000E+00  0.63598722490E+03  0.63598722490E+03  0.00000000000E+00 0. -1.
          2   -1    0    0  501    0  0.00000000000E+00 -0.00000000000E+00 -0.28149222323E+04  0.28149222323E+04  0.00000000000E+00 0.  1.
    2000013    1    1    2    0    0  0.72416560734E+03  0.49988613339E+03 -0.15238310895E+04  0.19997157704E+04  0.95000000000E+03 0.  0.
   -2000013    1    1    2    0    0 -0.72416560734E+03 -0.49988613339E+03 -0.65510391788E+03  0.14511936867E+04  0.95000000000E+03 0.  0.
<mgrwt>
<rscale>  0 0.26760079E+04</rscale>
<asrwt>0</asrwt>
<pdfrwt beam="2">  1        2 0.43306497E+00 0.26760079E+04</pdfrwt>
<pdfrwt beam="1">  1       -2 0.97844186E-01 0.26760079E+04</pdfrwt>
<totfact> 0.17307580E+00</totfact>
</mgrwt>
</event>
<event>
 4    1  0.2482334E-008  0.4379503E+04  0.7816531E-02  0.7932079E-01
         -2   -1    0    0    0  501 -0.00000000000E+00  0.00000000000E+00  0.19361765675E+04  0.19361765675E+04  0.00000000000E+00 0. -1.
          2   -1    0    0  501    0  0.00000000000E+00 -0.00000000000E+00 -0.24765362943E+04  0.24765362943E+04  0.00000000000E+00 0.  1.
    2000013    1    1    2    0    0  0.26684546336E+03  0.19228105431E+04  0.84776430429E+02  0.21628901796E+04  0.95000000000E+03 0.  0.
   -2000013    1    1    2    0    0 -0.26684546336E+03 -0.19228105431E+04 -0.62513615730E+03  0.22498226822E+04  0.95000000000E+03 0.  0.
<mgrwt>
<rscale>  0 0.43795030E+04</rscale>
<asrwt>0</asrwt>
<pdfrwt beam="2">  1        2 0.38100558E+00 0.43795030E+04</pdfrwt>
<pdfrwt beam="1">  1       -2 0.29787332E+00 0.43795030E+04</pdfrwt>
<totfact> 0.90004133E-02</totfact>
</mgrwt>
</event>
<event>
 4    1  0.2482334E-008  0.2431593E+04  0.7816531E-02  0.8427770E-01
          1   -1    0    0  501    0  0.00000000000E+00  0.00000000000E+00  0.78371852065E+03  0.78371852065E+03  0.00000000000E+00 0.  1.
         -1   -1    0    0    0  501 -0.00000000000E+00 -0.00000000000E+00 -0.18860865961E+04  0.18860865961E+04  0.00000000000E+00 0. -1.
    2000013    1    1    2    0    0  0.64708640153E+03  0.18924550932E+03 -0.16905682808E+03  0.11771214402E+04  0.95000000000E+03 0.  0.
   -2000013    1    1    2    0    0 -0.64708640153E+03 -0.18924550932E+03 -0.93331124741E+03  0.14926836766E+04  0.95000000000E+03 0.  0.
<mgrwt>
<rscale>  0 0.24315929E+04</rscale>
<asrwt>0</asrwt>
<pdfrwt beam="1">  1        1 0.12057208E+00 0.24315929E+04</pdfrwt>
<pdfrwt beam="2">  1       -1 0.29016717E+00 0.24315929E+04</pdfrwt>
<totfact> 0.78104546E-01</totfact>
</mgrwt>
</event>
<event>
 4    1  0.2482334E-008  0.2238138E+04  0.7816531E-02  0.8502720E-01
         -2   -1    0    0    0  501 -0.00000000000E+00  0.00000000000E+00  0.53662310732E+03  0.53662310732E+03  0.00000000000E+00 0. -1.
          2   -1    0    0  501    0  0.00000000000E+00 -0.00000000000E+00 -0.23336955395E+04  0.23336955395E+04  0.00000000000E+00 0.  1.
    2000013    1    1    2    0    0  0.10210134429E+03 -0.54473102374E+03 -0.11634139846E+04  0.16009961500E+04  0.95000000000E+03 0.  0.
   -2000013    1    1    2    0    0 -0.10210134429E+03  0.54473102374E+03 -0.63365844757E+03  0.12693224968E+04  0.95000000000E+03 0.  0.
<mgrwt>
<rscale>  0 0.22381376E+04</rscale>
<asrwt>0</asrwt>
<pdfrwt beam="2">  1        2 0.35903009E+00 0.22381376E+04</pdfrwt>
<pdfrwt beam="1">  1       -2 0.82557400E-01 0.22381376E+04</pdfrwt>
<totfact> 0.50884395E+00</totfact>
</mgrwt>
</event>
<event>
 4    1  0.2482334E-008  0.2491173E+04  0.7816531E-02  0.8406137E-01
          2   -1    0    0  501    0  0.00000000000E+00  0.00000000000E+00  0.15286411525E+04  0.15286411525E+04  0.00000000000E+00 0.  1.
         -2   -1    0    0    0  501 -0.00000000000E+00 -0.00000000000E+00 -0.10149445113E+04  0.10149445113E+04  0.00000000000E+00 0. -1.
    2000013    1    1    2    0    0 -0.64591118352E+03  0.20998848502E+03 -0.18549805085E+03  0.11824575881E+04  0.95000000000E+03 0.  0.
   -2000013    1    1    2    0    0  0.64591118352E+03 -0.20998848502E+03  0.69919469204E+03  0.13611280756E+04  0.95000000000E+03 0.  0.
<mgrwt>
<rscale>  0 0.24911732E+04</rscale>
<asrwt>0</asrwt>
<pdfrwt beam="1">  1        2 0.23517556E+00 0.24911732E+04</pdfrwt>
<pdfrwt beam="2">  1       -2 0.15614531E+00 0.24911732E+04</pdfrwt>
<totfact> 0.29381823E+00</totfact>
</mgrwt>
</event>
<event>
 4    1  0.2482334E-008  0.3439502E+04  0.7816531E-02  0.8128279E-01
         -2   -1    0    0    0  501 -0.00000000000E+00  0.00000000000E+00  0.17562602231E+04  0.17562602231E+04  0.00000000000E+00 0. -1.
          2   -1    0    0  501    0  0.00000000000E+00 -0.00000000000E+00 -0.16840007083E+04  0.16840007083E+04  0.00000000000E+00 0.  1.
    2000013    1    1    2    0    0 -0.13911667235E+04  0.18580815653E+03 -0.25578038114E+03  0.17139991619E+04  0.95000000000E+03 0.  0.
   -2000013    1    1    2    0    0  0.13911667235E+04 -0.18580815653E+03  0.32803989591E+03  0.17262617695E+04  0.95000000000E+03 0.  0.
<mgrwt>
<rscale>  0 0.34395020E+04</rscale>
<asrwt>0</asrwt>
<pdfrwt beam="2">  1        2 0.25907703E+00 0.34395020E+04</pdfrwt>
<pdfrwt beam="1">  1       -2 0.27019388E+00 0.34395020E+04</pdfrwt>
<totfact> 0.39954717E-01</totfact>
</mgrwt>
</event>
<event>
 4    1  0.2482334E-008  0.2969353E+04  0.7816531E-02  0.8252537E-01
         -2   -1    0    0    0  501 -0.00000000000E+00  0.00000000000E+00  0.87048782394E+03  0.87048782394E+03  0.00000000000E+00 0. -1.
          2   -1    0    0  501    0  0.00000000000E+00 -0.00000000000E+00 -0.25322166253E+04  0.25322166253E+04  0.00000000000E+00 0.  1.
    2000013    1    1    2    0    0 -0.80395951610E+03  0.79809149756E+03 -0.98657250318E+03  0.17773931040E+04  0.95000000000E+03 0.  0.
   -2000013    1    1    2    0    0  0.80395951610E+03 -0.79809149756E+03 -0.67515629814E+03  0.16253113452E+04  0.95000000000E+03 0.  0.
<mgrwt>
<rscale>  0 0.29693526E+04</rscale>
<asrwt>0</asrwt>
<pdfrwt beam="2">  1        2 0.38957179E+00 0.29693526E+04</pdfrwt>
<pdfrwt beam="1">  1       -2 0.13392120E+00 0.29693526E+04</pdfrwt>
<totfact> 0.11519342E+00</totfact>
</mgrwt>
</event>
<event>
 4    1  0.2482334E-008  0.3641993E+04  0.7816531E-02  0.8080940E-01
         -2   -1    0    0    0  501 -0.00000000000E+00  0.00000000000E+00  0.17351902949E+04  0.17351902949E+04  0.00000000000E+00 0. -1.
          2   -1    0    0  501    0  0.00000000000E+00 -0.00000000000E+00 -0.19110463969E+04  0.19110463969E+04  0.00000000000E+00 0.  1.
    2000013    1    1    2    0    0 -0.10080748119E+04 -0.11791825763E+04 -0.51105372782E+01  0.18191241002E+04  0.95000000000E+03 0.  0.
   -2000013    1    1    2    0    0  0.10080748119E+04  0.11791825763E+04 -0.17074556472E+03  0.18271125916E+04  0.95000000000E+03 0.  0.
<mgrwt>
<rscale>  0 0.36419935E+04</rscale>
<asrwt>0</asrwt>
<pdfrwt beam="2">  1        2 0.29400714E+00 0.36419935E+04</pdfrwt>
<pdfrwt beam="1">  1       -2 0.26695235E+00 0.36419935E+04</pdfrwt>
<totfact> 0.30766707E-01</totfact>
</mgrwt>
</event>
<event>
 4    1  0.2482334E-008  0.2704536E+04  0.7816531E-02  0.8333535E-01
          2   -1    0    0  501    0  0.00000000000E+00  0.00000000000E+00  0.18719321755E+04  0.18719321755E+04  0.00000000000E+00 0.  1.
         -2   -1    0    0    0  501 -0.00000000000E+00 -0.00000000000E+00 -0.97686713010E+03  0.97686713010E+03  0.00000000000E+00 0. -1.
    2000013    1    1    2    0    0 -0.37835959595E+03  0.88091762259E+03  0.35967370075E+03  0.13967952651E+04  0.95000000000E+03 0.  0.
   -2000013    1    1    2    0    0  0.37835959595E+03 -0.88091762259E+03  0.53539134463E+03  0.14520040405E+04  0.95000000000E+03 0.  0.
<mgrwt>
<rscale>  0 0.27045362E+04</rscale>
<asrwt>0</asrwt>
<pdfrwt beam="1">  1        2 0.28798956E+00 0.27045362E+04</pdfrwt>
<pdfrwt beam="2">  1       -2 0.15028725E+00 0.27045362E+04</pdfrwt>
<totfact> 0.20578854E+00</totfact>
</mgrwt>
</event>
<event>
 4    1  0.2482334E-008  0.2329849E+04  0.7816531E-02  0.8466244E-01
          2   -1    0    0  501    0  0.00000000000E+00  0.00000000000E+00  0.31192196200E+04  0.31192196200E+04  0.00000000000E+00 0.  1.
         -2   -1    0    0    0  501 -0.00000000000E+00 -0.00000000000E+00 -0.43506032848E+03  0.43506032848E+03  0.00000000000E+00 0. -1.
    2000013    1    1    2    0    0  0.19804672399E+03 -0.45534336670E+03  0.20378144189E+04  0.23025524298E+04  0.95000000000E+03 0.  0.
   -2000013    1    1    2    0    0 -0.19804672399E+03  0.45534336670E+03  0.64634487266E+03  0.12517275186E+04  0.95000000000E+03 0.  0.
<mgrwt>
<rscale>  0 0.23298487E+04</rscale>
<asrwt>0</asrwt>
<pdfrwt beam="1">  1        2 0.47987993E+00 0.23298487E+04</pdfrwt>
<pdfrwt beam="2">  1       -2 0.66932360E-01 0.23298487E+04</pdfrwt>
<totfact> 0.27139166E+00</totfact>
</mgrwt>
</event>
<event>
 4    1  0.2482334E-008  0.2954382E+04  0.7816531E-02  0.8256879E-01
          2   -1    0    0  501    0  0.00000000000E+00  0.00000000000E+00  0.28538567394E+04  0.28538567394E+04  0.00000000000E+00 0.  1.
         -2   -1    0    0    0  501 -0.00000000000E+00 -0.00000000000E+00 -0.76461226543E+03  0.76461226543E+03  0.00000000000E+00 0. -1.
    2000013    1    1    2    0    0  0.11192229612E+04  0.16281539879E+03  0.10193734655E+04  0.17946562771E+04  0.95000000000E+03 0.  0.
   -2000013    1    1    2    0    0 -0.11192229612E+04 -0.16281539879E+03  0.10698710085E+04  0.18238127277E+04  0.95000000000E+03 0.  0.
<mgrwt>
<rscale>  0 0.29543824E+04</rscale>
<asrwt>0</asrwt>
<pdfrwt beam="1">  1        2 0.43905488E+00 0.29543824E+04</pdfrwt>
<pdfrwt beam="2">  1       -2 0.11763266E+00 0.29543824E+04</pdfrwt>
<totfact> 0.10273611E+00</totfact>
</mgrwt>
</event>
<event>
 4    1  0.2482334E-008  0.2037569E+04  0.7816531E-02  0.8589255E-01
         -2   -1    0    0    0  501 -0.00000000000E+00  0.00000000000E+00  0.11168657633E+04  0.11168657633E+04  0.00000000000E+00 0. -1.
          2   -1    0    0  501    0  0.00000000000E+00 -0.00000000000E+00 -0.92931647677E+03  0.92931647677E+03  0.00000000000E+00 0.  1.
    2000013    1    1    2    0    0  0.19151630953E+03 -0.30859087067E+03  0.34237143731E+02  0.10176340228E+04  0.95000000000E+03 0.  0.
   -2000013    1    1    2    0    0 -0.19151630953E+03  0.30859087067E+03  0.15331214285E+03  0.10285482174E+04  0.95000000000E+03 0.  0.
<mgrwt>
<rscale>  0 0.20375689E+04</rscale>
<asrwt>0</asrwt>
<pdfrwt beam="2">  1        2 0.14297177E+00 0.20375689E+04</pdfrwt>
<pdfrwt beam="1">  1       -2 0.17182550E+00 0.20375689E+04</pdfrwt>
<totfact> 0.53675191E+00</totfact>
</mgrwt>
</event>
<event>
 4    1  0.2482334E-008  0.2643628E+04  0.7816531E-02  0.8353531E-01
         -2   -1    0    0    0  501 -0.00000000000E+00  0.00000000000E+00  0.55027656512E+03  0.55027656512E+03  0.00000000000E+00 0. -1.
          2   -1    0    0  501    0  0.00000000000E+00 -0.00000000000E+00 -0.31751155460E+04  0.31751155460E+04  0.00000000000E+00 0.  1.
    2000013    1    1    2    0    0 -0.57503494469E+03  0.43563686441E+03 -0.21148542069E+04  0.24280759835E+04  0.95000000000E+03 0.  0.
   -2000013    1    1    2    0    0  0.57503494469E+03 -0.43563686441E+03 -0.50998477397E+03  0.12973161276E+04  0.95000000000E+03 0.  0.
<mgrwt>
<rscale>  0 0.26436276E+04</rscale>
<asrwt>0</asrwt>
<pdfrwt beam="2">  1        2 0.48847932E+00 0.26436276E+04</pdfrwt>
<pdfrwt beam="1">  1       -2 0.84657933E-01 0.26436276E+04</pdfrwt>
<totfact> 0.14426651E+00</totfact>
</mgrwt>
</event>
<event>
 4    1  0.2482334E-008  0.2830209E+04  0.7816531E-02  0.8293951E-01
         -1   -1    0    0    0  501 -0.00000000000E+00  0.00000000000E+00  0.13665644449E+04  0.13665644449E+04  0.00000000000E+00 0. -1.
          1   -1    0    0  501    0  0.00000000000E+00 -0.00000000000E+00 -0.14653682731E+04  0.14653682731E+04  0.00000000000E+00 0.  1.
    2000013    1    1    2    0    0 -0.36140789329E+02 -0.58090860037E+03 -0.92243513130E+03  0.14464257776E+04  0.95000000000E+03 0.  0.
   -2000013    1    1    2    0    0  0.36140789329E+02  0.58090860037E+03  0.82363130311E+03  0.13855069405E+04  0.95000000000E+03 0.  0.
<mgrwt>
<rscale>  0 0.28302086E+04</rscale>
<asrwt>0</asrwt>
<pdfrwt beam="2">  1        1 0.22544127E+00 0.28302086E+04</pdfrwt>
<pdfrwt beam="1">  1       -1 0.21024068E+00 0.28302086E+04</pdfrwt>
<totfact> 0.76475032E-01</totfact>
</mgrwt>
</event>
<event>
 4    1  0.2482334E-008  0.2521476E+04  0.7816531E-02  0.8395374E-01
         -2   -1    0    0    0  501 -0.00000000000E+00  0.00000000000E+00  0.58697023087E+03  0.58697023087E+03  0.00000000000E+00 0. -1.
          2   -1    0    0  501    0  0.00000000000E+00 -0.00000000000E+00 -0.27079063824E+04  0.27079063824E+04  0.00000000000E+00 0.  1.
    2000013    1    1    2    0    0 -0.41334400161E+03 -0.49804427852E+03 -0.17370175336E+04  0.20829381362E+04  0.95000000000E+03 0.  0.
   -2000013    1    1    2    0    0  0.41334400161E+03  0.49804427852E+03 -0.38391861788E+03  0.12119384771E+04  0.95000000000E+03 0.  0.
<mgrwt>
<rscale>  0 0.25214761E+04</rscale>
<asrwt>0</asrwt>
<pdfrwt beam="2">  1        2 0.41660098E+00 0.25214761E+04</pdfrwt>
<pdfrwt beam="1">  1       -2 0.90303113E-01 0.25214761E+04</pdfrwt>
<totfact> 0.24520750E+00</totfact>
</mgrwt>
</event>
<event>
 4    1  0.2482334E-008  0.3383226E+04  0.7816531E-02  0.8142036E-01
         -2   -1    0    0    0  501 -0.00000000000E+00  0.00000000000E+00  0.97167713878E+03  0.97167713878E+03  0.00000000000E+00 0. -1.
          2   -1    0    0  501    0  0.00000000000E+00 -0.00000000000E+00 -0.29449640156E+04  0.29449640156E+04  0.00000000000E+00 0.  1.
    2000013    1    1    2    0    0 -0.54699235371E+03  0.11127425357E+04 -0.17383749861E+04  0.23370588735E+04  0.95000000000E+03 0.  0.
   -2000013    1    1    2    0    0  0.54699235371E+03 -0.11127425357E+04 -0.23491189074E+03  0.15795822809E+04  0.95000000000E+03 0.  0.
<mgrwt>
<rscale>  0 0.33832258E+04</rscale>
<asrwt>0</asrwt>
<pdfrwt beam="2">  1        2 0.45307138E+00 0.33832258E+04</pdfrwt>
<pdfrwt beam="1">  1       -2 0.14948879E+00 0.33832258E+04</pdfrwt>
<totfact> 0.47234282E-01</totfact>
</mgrwt>
</event>
<event>
 4    1  0.2482334E-008  0.2688572E+04  0.7816531E-02  0.8338723E-01
         -2   -1    0    0    0  501 -0.00000000000E+00  0.00000000000E+00  0.16320231891E+04  0.16320231891E+04  0.00000000000E+00 0. -1.
          2   -1    0    0  501    0  0.00000000000E+00 -0.00000000000E+00 -0.11072786216E+04  0.11072786216E+04  0.00000000000E+00 0.  1.
    2000013    1    1    2    0    0 -0.17109922027E+03  0.82148360932E+03  0.71858679254E+03  0.14570440082E+04  0.95000000000E+03 0.  0.
   -2000013    1    1    2    0    0  0.17109922027E+03 -0.82148360932E+03 -0.19384222503E+03  0.12822578024E+04  0.95000000000E+03 0.  0.
<mgrwt>
<rscale>  0 0.26885717E+04</rscale>
<asrwt>0</asrwt>
<pdfrwt beam="2">  1        2 0.17035056E+00 0.26885717E+04</pdfrwt>
<pdfrwt beam="1">  1       -2 0.25108049E+00 0.26885717E+04</pdfrwt>
<totfact> 0.11981776E+00</totfact>
</mgrwt>
</event>
<event>
 4    1  0.2482334E-008  0.2654014E+04  0.7816531E-02  0.8350082E-01
         -2   -1    0    0    0  501 -0.00000000000E+00  0.00000000000E+00  0.58226497428E+03  0.58226497428E+03  0.00000000000E+00 0. -1.
          2   -1    0    0  501    0  0.00000000000E+00 -0.00000000000E+00 -0.30243056653E+04  0.30243056653E+04  0.00000000000E+00 0.  1.
    2000013    1    1    2    0    0  0.74847306594E+03  0.47379471775E+03 -0.15900691086E+04  0.20531714821E+04  0.95000000000E+03 0.  0.
   -2000013    1    1    2    0    0 -0.74847306594E+03 -0.47379471775E+03 -0.85197158242E+03  0.15533991574E+04  0.95000000000E+03 0.  0.
<mgrwt>
<rscale>  0 0.26540138E+04</rscale>
<asrwt>0</asrwt>
<pdfrwt beam="2">  1        2 0.46527779E+00 0.26540138E+04</pdfrwt>
<pdfrwt beam="1">  1       -2 0.89579228E-01 0.26540138E+04</pdfrwt>
<totfact> 0.15810918E+00</totfact>
</mgrwt>
</event>
<event>
 4    1  0.2482334E-008  0.3414235E+04  0.7816531E-02  0.8134421E-01
          2   -1    0    0  501    0  0.00000000000E+00  0.00000000000E+00  0.23564898659E+04  0.23564898659E+04  0.00000000000E+00 0.  1.
         -2   -1    0    0    0  501 -0.00000000000E+00 -0.00000000000E+00 -0.12366909017E+04  0.12366909017E+04  0.00000000000E+00 0. -1.
    2000013    1    1    2    0    0  0.84334201128E+03  0.11278730962E+04  0.38246239524E+03  0.17412928970E+04  0.95000000000E+03 0.  0.
   -2000013    1    1    2    0    0 -0.84334201128E+03 -0.11278730962E+04  0.73733656897E+03  0.18518878706E+04  0.95000000000E+03 0.  0.
<mgrwt>
<rscale>  0 0.34142347E+04</rscale>
<asrwt>0</asrwt>
<pdfrwt beam="1">  1        2 0.36253690E+00 0.34142347E+04</pdfrwt>
<pdfrwt beam="2">  1       -2 0.19026014E+00 0.34142347E+04</pdfrwt>
<totfact> 0.53778587E-01</totfact>
</mgrwt>
</event>
<event>
 4    1  0.2482334E-008  0.3027602E+04  0.7816531E-02  0.8235893E-01
         -2   -1    0    0    0  501 -0.00000000000E+00  0.00000000000E+00  0.28157602700E+04  0.28157602700E+04  0.00000000000E+00 0. -1.
          2   -1    0    0  501    0  0.00000000000E+00 -0.00000000000E+00 -0.81384520387E+03  0.81384520387E+03  0.00000000000E+00 0.  1.
    2000013    1    1    2    0    0 -0.40480406758E+03 -0.83317830585E+03  0.18745814860E+04  0.22966515125E+04  0.95000000000E+03 0.  0.
   -2000013    1    1    2    0    0  0.40480406758E+03  0.83317830585E+03  0.12733358018E+03  0.13329539614E+04  0.95000000000E+03 0.  0.
<mgrwt>
<rscale>  0 0.30276017E+04</rscale>
<asrwt>0</asrwt>
<pdfrwt beam="2">  1        2 0.12520696E+00 0.30276017E+04</pdfrwt>
<pdfrwt beam="1">  1       -2 0.43319388E+00 0.30276017E+04</pdfrwt>
<totfact> 0.12878818E-01</totfact>
</mgrwt>
</event>
<event>
 4    1  0.2482334E-008  0.2312188E+04  0.7816531E-02  0.8473131E-01
         -2   -1    0    0    0  501 -0.00000000000E+00  0.00000000000E+00  0.76123694287E+03  0.76123694287E+03  0.00000000000E+00 0.  1.
          2   -1    0    0  501    0  0.00000000000E+00 -0.00000000000E+00 -0.17557651875E+04  0.17557651875E+04  0.00000000000E+00 0. -1.
    2000013    1    1    2    0    0 -0.40350859951E+03  0.42851520980E+03 -0.17505752445E+03  0.11311894677E+04  0.95000000000E+03 0.  0.
   -2000013    1    1    2    0    0  0.40350859951E+03 -0.42851520980E+03 -0.81947072022E+03  0.13858126627E+04  0.95000000000E+03 0.  0.
<mgrwt>
<rscale>  0 0.23121880E+04</rscale>
<asrwt>0</asrwt>
<pdfrwt beam="2">  1        2 0.27011772E+00 0.23121880E+04</pdfrwt>
<pdfrwt beam="1">  1       -2 0.11711338E+00 0.23121880E+04</pdfrwt>
<totfact> 0.46642056E+00</totfact>
</mgrwt>
</event>
<event>
 4    1  0.2482334E-008  0.2823470E+04  0.7816531E-02  0.8296019E-01
          2   -1    0    0  501    0  0.00000000000E+00  0.00000000000E+00  0.24206124249E+04  0.24206124249E+04  0.00000000000E+00 0.  1.
         -2   -1    0    0    0  501 -0.00000000000E+00 -0.00000000000E+00 -0.82334377681E+03  0.82334377681E+03  0.00000000000E+00 0. -1.
    2000013    1    1    2    0    0 -0.71724009436E+03 -0.73107914788E+03  0.10329308581E+04  0.17373417140E+04  0.95000000000E+03 0.  0.
   -2000013    1    1    2    0    0  0.71724009436E+03  0.73107914788E+03  0.56433778995E+03  0.15066144877E+04  0.95000000000E+03 0.  0.
<mgrwt>
<rscale>  0 0.28234703E+04</rscale>
<asrwt>0</asrwt>
<pdfrwt beam="1">  1        2 0.37240191E+00 0.28234703E+04</pdfrwt>
<pdfrwt beam="2">  1       -2 0.12666827E+00 0.28234703E+04</pdfrwt>
<totfact> 0.15578548E+00</totfact>
</mgrwt>
</event>
<event>
 4    1  0.2482334E-008  0.2448405E+04  0.7816531E-02  0.8421601E-01
         -2   -1    0    0    0  501 -0.00000000000E+00  0.00000000000E+00  0.14853841120E+04  0.14853841120E+04  0.00000000000E+00 0. -1.
          2   -1    0    0  501    0  0.00000000000E+00 -0.00000000000E+00 -0.10089454704E+04  0.10089454704E+04  0.00000000000E+00 0.  1.
    2000013    1    1    2    0    0  0.72128501029E+03  0.12273420345E+03 -0.13097565203E+02  0.11991610805E+04  0.95000000000E+03 0.  0.
   -2000013    1    1    2    0    0 -0.72128501029E+03 -0.12273420345E+03  0.48953620680E+03  0.12951685020E+04  0.95000000000E+03 0.  0.
<mgrwt>
<rscale>  0 0.24484048E+04</rscale>
<asrwt>0</asrwt>
<pdfrwt beam="2">  1        2 0.15522238E+00 0.24484048E+04</pdfrwt>
<pdfrwt beam="1">  1       -2 0.22852063E+00 0.24484048E+04</pdfrwt>
<totfact> 0.19442977E+00</totfact>
</mgrwt>
</event>
<event>
 4    1  0.2482334E-008  0.2335460E+04  0.7816531E-02  0.8464070E-01
         -2   -1    0    0    0  501 -0.00000000000E+00  0.00000000000E+00  0.14245336665E+04  0.14245336665E+04  0.00000000000E+00 0. -1.
          2   -1    0    0  501    0  0.00000000000E+00 -0.00000000000E+00 -0.95722068089E+03  0.95722068089E+03  0.00000000000E+00 0.  1.
    2000013    1    1    2    0    0 -0.23438561898E+03 -0.63014118535E+03  0.33082665437E+03  0.12099424809E+04  0.95000000000E+03 0.  0.
   -2000013    1    1    2    0    0  0.23438561898E+03  0.63014118535E+03  0.13648633126E+03  0.11718118665E+04  0.95000000000E+03 0.  0.
<mgrwt>
<rscale>  0 0.23354598E+04</rscale>
<asrwt>0</asrwt>
<pdfrwt beam="2">  1        2 0.14726472E+00 0.23354598E+04</pdfrwt>
<pdfrwt beam="1">  1       -2 0.21915903E+00 0.23354598E+04</pdfrwt>
<totfact> 0.24284041E+00</totfact>
</mgrwt>
</event>
<event>
 4    1  0.2482334E-008  0.3665472E+04  0.7816531E-02  0.8075657E-01
         -2   -1    0    0    0  501 -0.00000000000E+00  0.00000000000E+00  0.15311559057E+04  0.15311559057E+04  0.00000000000E+00 0. -1.
          2   -1    0    0  501    0  0.00000000000E+00 -0.00000000000E+00 -0.21937160786E+04  0.21937160786E+04  0.00000000000E+00 0.  1.
    2000013    1    1    2    0    0 -0.84933638652E+03 -0.69100801061E+03 -0.14708612777E+04  0.20651385587E+04  0.95000000000E+03 0.  0.
   -2000013    1    1    2    0    0  0.84933638652E+03  0.69100801061E+03  0.80830110482E+03  0.16597334257E+04  0.95000000000E+03 0.  0.
<mgrwt>
<rscale>  0 0.36654720E+04</rscale>
<asrwt>0</asrwt>
<pdfrwt beam="2">  1        2 0.33749478E+00 0.36654720E+04</pdfrwt>
<pdfrwt beam="1">  1       -2 0.23556245E+00 0.36654720E+04</pdfrwt>
<totfact> 0.33312972E-01</totfact>
</mgrwt>
</event>
<event>
 4    1  0.2482334E-008  0.2150749E+04  0.7816531E-02  0.8539212E-01
          2   -1    0    0  501    0  0.00000000000E+00  0.00000000000E+00  0.23549104639E+04  0.23549104639E+04  0.00000000000E+00 0.  1.
         -2   -1    0    0    0  501 -0.00000000000E+00 -0.00000000000E+00 -0.49107194942E+03  0.49107194942E+03  0.00000000000E+00 0. -1.
    2000013    1    1    2    0    0  0.41155522886E+03  0.17299038088E+03  0.12411954579E+04  0.16255366938E+04  0.95000000000E+03 0.  0.
   -2000013    1    1    2    0    0 -0.41155522886E+03 -0.17299038088E+03  0.62264305655E+03  0.12204457195E+04  0.95000000000E+03 0.  0.
<mgrwt>
<rscale>  0 0.21507491E+04</rscale>
<asrwt>0</asrwt>
<pdfrwt beam="1">  1        2 0.36229391E+00 0.21507491E+04</pdfrwt>
<pdfrwt beam="2">  1       -2 0.75549532E-01 0.21507491E+04</pdfrwt>
<totfact> 0.60830519E+00</totfact>
</mgrwt>
</event>
<event>
 4    1  0.2482334E-008  0.2604177E+04  0.7816531E-02  0.8366784E-01
         -1   -1    0    0    0  501 -0.00000000000E+00  0.00000000000E+00  0.15646101513E+04  0.15646101513E+04  0.00000000000E+00 0.  1.
          1   -1    0    0  501    0  0.00000000000E+00 -0.00000000000E+00 -0.10836142561E+04  0.10836142561E+04  0.00000000000E+00 0. -1.
    2000013    1    1    2    0    0  0.69264005921E+03 -0.47578183725E+03 -0.59130047816E+02  0.12696908958E+04  0.95000000000E+03 0.  0.
   -2000013    1    1    2    0    0 -0.69264005921E+03  0.47578183725E+03  0.54012594298E+03  0.13785335116E+04  0.95000000000E+03 0.  0.
<mgrwt>
<rscale>  0 0.26041765E+04</rscale>
<asrwt>0</asrwt>
<pdfrwt beam="2">  1        1 0.16670988E+00 0.26041765E+04</pdfrwt>
<pdfrwt beam="1">  1       -1 0.24070926E+00 0.26041765E+04</pdfrwt>
<totfact> 0.92121320E-01</totfact>
</mgrwt>
</event>
<event>
 4    1  0.2482334E-008  0.3449300E+04  0.7816531E-02  0.8125911E-01
         -2   -1    0    0    0  501 -0.00000000000E+00  0.00000000000E+00  0.13841490992E+04  0.13841490992E+04  0.00000000000E+00 0.  1.
          2   -1    0    0  501    0  0.00000000000E+00 -0.00000000000E+00 -0.21489140673E+04  0.21489140673E+04  0.00000000000E+00 0. -1.
    2000013    1    1    2    0    0  0.11657112283E+04  0.25921687816E+03  0.44077586898E+03  0.15883511653E+04  0.95000000000E+03 0.  0.
   -2000013    1    1    2    0    0 -0.11657112283E+04 -0.25921687816E+03 -0.12055408371E+04  0.19447120012E+04  0.95000000000E+03 0.  0.
<mgrwt>
<rscale>  0 0.34492999E+04</rscale>
<asrwt>0</asrwt>
<pdfrwt beam="2">  1        2 0.33060216E+00 0.34492999E+04</pdfrwt>
<pdfrwt beam="1">  1       -2 0.21294602E+00 0.34492999E+04</pdfrwt>
<totfact> 0.49900581E-01</totfact>
</mgrwt>
</event>
<event>
 4    1  0.2482334E-008  0.2913315E+04  0.7816531E-02  0.8268927E-01
         -2   -1    0    0    0  501 -0.00000000000E+00  0.00000000000E+00  0.59070418084E+03  0.59070418084E+03  0.00000000000E+00 0. -1.
          2   -1    0    0  501    0  0.00000000000E+00 -0.00000000000E+00 -0.35920694888E+04  0.35920694888E+04  0.00000000000E+00 0.  1.
    2000013    1    1    2    0    0 -0.93052946387E+03 -0.48214042533E+03 -0.10012459901E+04  0.17330141389E+04  0.95000000000E+03 0.  0.
   -2000013    1    1    2    0    0  0.93052946387E+03  0.48214042533E+03 -0.20001193179E+04  0.24497595308E+04  0.95000000000E+03 0.  0.
<mgrwt>
<rscale>  0 0.29133146E+04</rscale>
<asrwt>0</asrwt>
<pdfrwt beam="2">  1        2 0.55262607E+00 0.29133146E+04</pdfrwt>
<pdfrwt beam="1">  1       -2 0.90877566E-01 0.29133146E+04</pdfrwt>
<totfact> 0.62287841E-01</totfact>
</mgrwt>
</event>
<event>
 4    1  0.2482334E-008  0.2325376E+04  0.7816531E-02  0.8467982E-01
         -2   -1    0    0    0  501 -0.00000000000E+00  0.00000000000E+00  0.38678507674E+03  0.38678507674E+03  0.00000000000E+00 0. -1.
          2   -1    0    0  501    0  0.00000000000E+00 -0.00000000000E+00 -0.34950771807E+04  0.34950771807E+04  0.00000000000E+00 0.  1.
    2000013    1    1    2    0    0 -0.66889451238E+03  0.18231450277E+02 -0.14875509678E+04  0.18876069867E+04  0.95000000000E+03 0.  0.
   -2000013    1    1    2    0    0  0.66889451238E+03 -0.18231450277E+02 -0.16207411362E+04  0.19942552708E+04  0.95000000000E+03 0.  0.
<mgrwt>
<rscale>  0 0.23253763E+04</rscale>
<asrwt>0</asrwt>
<pdfrwt beam="2">  1        2 0.53770417E+00 0.23253763E+04</pdfrwt>
<pdfrwt beam="1">  1       -2 0.59505398E-01 0.23253763E+04</pdfrwt>
<totfact> 0.19589268E+00</totfact>
</mgrwt>
</event>
<event>
 4    1  0.2482334E-008  0.2080293E+04  0.7816531E-02  0.8569974E-01
         -2   -1    0    0    0  501 -0.00000000000E+00  0.00000000000E+00  0.93453112264E+03  0.93453112264E+03  0.00000000000E+00 0. -1.
          2   -1    0    0  501    0  0.00000000000E+00 -0.00000000000E+00 -0.11576981530E+04  0.11576981530E+04  0.00000000000E+00 0.  1.
    2000013    1    1    2    0    0 -0.10457517081E+03 -0.33176320406E+03 -0.35463551385E+03  0.10720397090E+04  0.95000000000E+03 0.  0.
   -2000013    1    1    2    0    0  0.10457517081E+03  0.33176320406E+03  0.13146848344E+03  0.10201895667E+04  0.95000000000E+03 0.  0.
<mgrwt>
<rscale>  0 0.20802932E+04</rscale>
<asrwt>0</asrwt>
<pdfrwt beam="2">  1        2 0.17810741E+00 0.20802932E+04</pdfrwt>
<pdfrwt beam="1">  1       -2 0.14377402E+00 0.20802932E+04</pdfrwt>
<totfact> 0.62122125E+00</totfact>
</mgrwt>
</event>
<event>
 4    1  0.2482334E-008  0.4233276E+04  0.7816531E-02  0.7959072E-01
         -2   -1    0    0    0  501 -0.00000000000E+00  0.00000000000E+00  0.44735244935E+04  0.44735244935E+04  0.00000000000E+00 0. -1.
          2   -1    0    0  501    0  0.00000000000E+00 -0.00000000000E+00 -0.10014825580E+04  0.10014825580E+04  0.00000000000E+00 0.  1.
    2000013    1    1    2    0    0  0.98315606455E+03  0.11637605626E+04  0.28615540013E+03  0.18180537416E+04  0.95000000000E+03 0.  0.
   -2000013    1    1    2    0    0 -0.98315606455E+03 -0.11637605626E+04  0.31858865353E+04  0.36569533098E+04  0.95000000000E+03 0.  0.
<mgrwt>
<rscale>  0 0.42332762E+04</rscale>
<asrwt>0</asrwt>
<pdfrwt beam="2">  1        2 0.15407424E+00 0.42332762E+04</pdfrwt>
<pdfrwt beam="1">  1       -2 0.68823453E+00 0.42332762E+04</pdfrwt>
<totfact> 0.48745456E-03</totfact>
</mgrwt>
</event>
<event>
 4    1  0.2482334E-008  0.2250294E+04  0.7816531E-02  0.8497781E-01
         -1   -1    0    0    0  501 -0.00000000000E+00  0.00000000000E+00  0.29006682675E+03  0.29006682675E+03  0.00000000000E+00 0. -1.
          1   -1    0    0  501    0  0.00000000000E+00 -0.00000000000E+00 -0.43643587336E+04  0.43643587336E+04  0.00000000000E+00 0.  1.
    2000013    1    1    2    0    0  0.15137481083E+03 -0.58030109658E+03 -0.21645140276E+04  0.24387055320E+04  0.95000000000E+03 0.  0.
   -2000013    1    1    2    0    0 -0.15137481083E+03  0.58030109658E+03 -0.19097778793E+04  0.22157200284E+04  0.95000000000E+03 0.  0.
<mgrwt>
<rscale>  0 0.22502939E+04</rscale>
<asrwt>0</asrwt>
<pdfrwt beam="2">  1        1 0.67143974E+00 0.22502939E+04</pdfrwt>
<pdfrwt beam="1">  1       -1 0.44625670E-01 0.22502939E+04</pdfrwt>
<totfact> 0.20052090E-01</totfact>
</mgrwt>
</event>
<event>
 4    1  0.2482334E-008  0.2346669E+04  0.7816531E-02  0.8459744E-01
         -1   -1    0    0    0  501 -0.00000000000E+00  0.00000000000E+00  0.62249373445E+03  0.62249373445E+03  0.00000000000E+00 0.  1.
          1   -1    0    0  501    0  0.00000000000E+00 -0.00000000000E+00 -0.22116099410E+04  0.22116099410E+04  0.00000000000E+00 0. -1.
    2000013    1    1    2    0    0 -0.49981009418E+03 -0.45301955503E+03 -0.62731490358E+03  0.13232765530E+04  0.95000000000E+03 0.  0.
   -2000013    1    1    2    0    0  0.49981009418E+03  0.45301955503E+03 -0.96180130293E+03  0.15108271224E+04  0.95000000000E+03 0.  0.
<mgrwt>
<rscale>  0 0.23466686E+04</rscale>
<asrwt>0</asrwt>
<pdfrwt beam="2">  1        1 0.34024768E+00 0.23466686E+04</pdfrwt>
<pdfrwt beam="1">  1       -1 0.95768267E-01 0.23466686E+04</pdfrwt>
<totfact> 0.20245201E+00</totfact>
</mgrwt>
</event>
<event>
 4    1  0.2482334E-008  0.2701311E+04  0.7816531E-02  0.8334580E-01
         -2   -1    0    0    0  501 -0.00000000000E+00  0.00000000000E+00  0.10529877642E+04  0.10529877642E+04  0.00000000000E+00 0. -1.
          2   -1    0    0  501    0  0.00000000000E+00 -0.00000000000E+00 -0.17324699711E+04  0.17324699711E+04  0.00000000000E+00 0.  1.
    2000013    1    1    2    0    0  0.84249950383E+03  0.37964757602E+03 -0.71182344082E+02  0.13272168708E+04  0.95000000000E+03 0.  0.
   -2000013    1    1    2    0    0 -0.84249950383E+03 -0.37964757602E+03 -0.60829986274E+03  0.14582408645E+04  0.95000000000E+03 0.  0.
<mgrwt>
<rscale>  0 0.27013106E+04</rscale>
<asrwt>0</asrwt>
<pdfrwt beam="2">  1        2 0.26653384E+00 0.27013106E+04</pdfrwt>
<pdfrwt beam="1">  1       -2 0.16199812E+00 0.27013106E+04</pdfrwt>
<totfact> 0.20096749E+00</totfact>
</mgrwt>
</event>
<event>
 4    1  0.2482334E-008  0.2186032E+04  0.7816531E-02  0.8524264E-01
         -2   -1    0    0    0  501 -0.00000000000E+00  0.00000000000E+00  0.34889850795E+03  0.34889850795E+03  0.00000000000E+00 0. -1.
          2   -1    0    0  501    0  0.00000000000E+00 -0.00000000000E+00 -0.34241596926E+04  0.34241596926E+04  0.00000000000E+00 0.  1.
    2000013    1    1    2    0    0  0.14432851998E+03 -0.51922050398E+03 -0.16101127920E+04  0.19456062953E+04  0.95000000000E+03 0.  0.
   -2000013    1    1    2    0    0 -0.14432851998E+03  0.51922050398E+03 -0.14651483927E+04  0.18274519052E+04  0.95000000000E+03 0.  0.
<mgrwt>
<rscale>  0 0.21860322E+04</rscale>
<asrwt>0</asrwt>
<pdfrwt beam="2">  1        2 0.52679379E+00 0.21860322E+04</pdfrwt>
<pdfrwt beam="1">  1       -2 0.53676695E-01 0.21860322E+04</pdfrwt>
<totfact> 0.27552215E+00</totfact>
</mgrwt>
</event>
<event>
 4    1  0.2482334E-008  0.2891373E+04  0.7816531E-02  0.8275449E-01
         -2   -1    0    0    0  501 -0.00000000000E+00  0.00000000000E+00  0.75859729338E+03  0.75859729338E+03  0.00000000000E+00 0. -1.
          2   -1    0    0  501    0  0.00000000000E+00 -0.00000000000E+00 -0.27550973376E+04  0.27550973376E+04  0.00000000000E+00 0.  1.
    2000013    1    1    2    0    0 -0.69838821327E+03  0.23633438075E+03 -0.23098133514E+02  0.12027608074E+04  0.95000000000E+03 0.  0.
   -2000013    1    1    2    0    0  0.69838821327E+03 -0.23633438075E+03 -0.19734019107E+04  0.23109338236E+04  0.95000000000E+03 0.  0.
<mgrwt>
<rscale>  0 0.28913729E+04</rscale>
<asrwt>0</asrwt>
<pdfrwt beam="2">  1        2 0.42386113E+00 0.28913729E+04</pdfrwt>
<pdfrwt beam="1">  1       -2 0.11670728E+00 0.28913729E+04</pdfrwt>
<totfact> 0.12085728E+00</totfact>
</mgrwt>
</event>
<event>
 4    1  0.2482334E-008  0.2025315E+04  0.7816531E-02  0.8594876E-01
          1   -1    0    0  501    0  0.00000000000E+00  0.00000000000E+00  0.12977601207E+04  0.12977601207E+04  0.00000000000E+00 0.  1.
         -1   -1    0    0    0  501 -0.00000000000E+00 -0.00000000000E+00 -0.79018838214E+03  0.79018838214E+03  0.00000000000E+00 0. -1.
    2000013    1    1    2    0    0  0.33453730541E+03 -0.44575220696E+00  0.36220258167E+03  0.10703299106E+04  0.95000000000E+03 0.  0.
   -2000013    1    1    2    0    0 -0.33453730541E+03  0.44575220696E+00  0.14536915685E+03  0.10176185922E+04  0.95000000000E+03 0.  0.
<mgrwt>
<rscale>  0 0.20253148E+04</rscale>
<asrwt>0</asrwt>
<pdfrwt beam="1">  1        1 0.19965540E+00 0.20253148E+04</pdfrwt>
<pdfrwt beam="2">  1       -1 0.12156744E+00 0.20253148E+04</pdfrwt>
<totfact> 0.50395307E+00</totfact>
</mgrwt>
</event>
<event>
 4    1  0.2482334E-008  0.2924853E+04  0.7816531E-02  0.8265521E-01
         -2   -1    0    0    0  501 -0.00000000000E+00  0.00000000000E+00  0.94630740505E+03  0.94630740505E+03  0.00000000000E+00 0. -1.
          2   -1    0    0  501    0  0.00000000000E+00 -0.00000000000E+00 -0.22600388649E+04  0.22600388649E+04  0.00000000000E+00 0.  1.
    2000013    1    1    2    0    0  0.68429938287E+03  0.72755136651E+03 -0.12139355160E+03  0.13837749205E+04  0.95000000000E+03 0.  0.
   -2000013    1    1    2    0    0 -0.68429938287E+03 -0.72755136651E+03 -0.11923379083E+04  0.18225713494E+04  0.95000000000E+03 0.  0.
<mgrwt>
<rscale>  0 0.29248532E+04</rscale>
<asrwt>0</asrwt>
<pdfrwt beam="2">  1        2 0.34769828E+00 0.29248532E+04</pdfrwt>
<pdfrwt beam="1">  1       -2 0.14558576E+00 0.29248532E+04</pdfrwt>
<totfact> 0.13337164E+00</totfact>
</mgrwt>
</event>
<event>
 4    1  0.2482334E-008  0.2792616E+04  0.7816531E-02  0.8305564E-01
          2   -1    0    0  501    0  0.00000000000E+00  0.00000000000E+00  0.17003860903E+04  0.17003860903E+04  0.00000000000E+00 0.  1.
         -2   -1    0    0    0  501 -0.00000000000E+00 -0.00000000000E+00 -0.11466078055E+04  0.11466078055E+04  0.00000000000E+00 0. -1.
    2000013    1    1    2    0    0  0.59655300451E+03  0.65907662006E+03  0.79363023359E+03  0.15240099822E+04  0.95000000000E+03 0.  0.
   -2000013    1    1    2    0    0 -0.59655300451E+03 -0.65907662006E+03 -0.23985194879E+03  0.13229839136E+04  0.95000000000E+03 0.  0.
<mgrwt>
<rscale>  0 0.27926160E+04</rscale>
<asrwt>0</asrwt>
<pdfrwt beam="1">  1        2 0.26159786E+00 0.27926160E+04</pdfrwt>
<pdfrwt beam="2">  1       -2 0.17640120E+00 0.27926160E+04</pdfrwt>
<totfact> 0.16395919E+00</totfact>
</mgrwt>
</event>
<event>
 4    1  0.2482334E-008  0.2622064E+04  0.7816531E-02  0.8360745E-01
         -2   -1    0    0    0  501 -0.00000000000E+00  0.00000000000E+00  0.15451703627E+04  0.15451703627E+04  0.00000000000E+00 0. -1.
          2   -1    0    0  501    0  0.00000000000E+00 -0.00000000000E+00 -0.11123720558E+04  0.11123720558E+04  0.00000000000E+00 0.  1.
    2000013    1    1    2    0    0 -0.87662469735E+03 -0.16735685063E+03  0.73692141840E+02  0.13055304314E+04  0.95000000000E+03 0.  0.
   -2000013    1    1    2    0    0  0.87662469735E+03  0.16735685063E+03  0.35910616511E+03  0.13520119871E+04  0.95000000000E+03 0.  0.
<mgrwt>
<rscale>  0 0.26220636E+04</rscale>
<asrwt>0</asrwt>
<pdfrwt beam="2">  1        2 0.17113416E+00 0.26220636E+04</pdfrwt>
<pdfrwt beam="1">  1       -2 0.23771852E+00 0.26220636E+04</pdfrwt>
<totfact> 0.14463840E+00</totfact>
</mgrwt>
</event>
<event>
 4    1  0.2482334E-008  0.2470179E+04  0.7816531E-02  0.8413687E-01
          2   -1    0    0  501    0  0.00000000000E+00  0.00000000000E+00  0.20484912650E+04  0.20484912650E+04  0.00000000000E+00 0.  1.
         -2   -1    0    0    0  501 -0.00000000000E+00 -0.00000000000E+00 -0.74466808801E+03  0.74466808801E+03  0.00000000000E+00 0. -1.
    2000013    1    1    2    0    0  0.50606557734E+02 -0.67207717381E+03  0.18748039358E+03  0.11797871203E+04  0.95000000000E+03 0.  0.
   -2000013    1    1    2    0    0 -0.50606557734E+02  0.67207717381E+03  0.11163427834E+04  0.16133722327E+04  0.95000000000E+03 0.  0.
<mgrwt>
<rscale>  0 0.24701790E+04</rscale>
<asrwt>0</asrwt>
<pdfrwt beam="1">  1        2 0.31515250E+00 0.24701790E+04</pdfrwt>
<pdfrwt beam="2">  1       -2 0.11456432E+00 0.24701790E+04</pdfrwt>
<totfact> 0.33405078E+00</totfact>
</mgrwt>
</event>
<event>
 4    1  0.2482334E-008  0.2194395E+04  0.7816531E-02  0.8520765E-01
         -2   -1    0    0    0  501 -0.00000000000E+00  0.00000000000E+00  0.99198208491E+03  0.99198208491E+03  0.00000000000E+00 0. -1.
          2   -1    0    0  501    0  0.00000000000E+00 -0.00000000000E+00 -0.12135726640E+04  0.12135726640E+04  0.00000000000E+00 0.  1.
    2000013    1    1    2    0    0  0.30990430005E+03 -0.44608055341E+03 -0.19065884853E+03  0.11108012117E+04  0.95000000000E+03 0.  0.
   -2000013    1    1    2    0    0 -0.30990430005E+03  0.44608055341E+03 -0.30931730541E+02  0.10947535372E+04  0.95000000000E+03 0.  0.
<mgrwt>
<rscale>  0 0.21943950E+04</rscale>
<asrwt>0</asrwt>
<pdfrwt beam="2">  1        2 0.18670349E+00 0.21943950E+04</pdfrwt>
<pdfrwt beam="1">  1       -2 0.15261263E+00 0.21943950E+04</pdfrwt>
<totfact> 0.48652546E+00</totfact>
</mgrwt>
</event>
<event>
 4    1  0.2482334E-008  0.3451814E+04  0.7816531E-02  0.8125305E-01
         -2   -1    0    0    0  501 -0.00000000000E+00  0.00000000000E+00  0.12584373697E+04  0.12584373697E+04  0.00000000000E+00 0.  1.
          2   -1    0    0  501    0  0.00000000000E+00 -0.00000000000E+00 -0.23670270039E+04  0.23670270039E+04  0.00000000000E+00 0. -1.
    2000013    1    1    2    0    0  0.11169374906E+04  0.90730921546E+03 -0.63215838946E+03  0.18365412056E+04  0.95000000000E+03 0.  0.
   -2000013    1    1    2    0    0 -0.11169374906E+04 -0.90730921546E+03 -0.47643124471E+03  0.17889231681E+04  0.95000000000E+03 0.  0.
<mgrwt>
<rscale>  0 0.34518142E+04</rscale>
<asrwt>0</asrwt>
<pdfrwt beam="2">  1        2 0.36415799E+00 0.34518142E+04</pdfrwt>
<pdfrwt beam="1">  1       -2 0.19360575E+00 0.34518142E+04</pdfrwt>
<totfact> 0.50219270E-01</totfact>
</mgrwt>
</event>
<event>
 4    1  0.2482334E-008  0.2926751E+04  0.7816531E-02  0.8264962E-01
         -2   -1    0    0    0  501 -0.00000000000E+00  0.00000000000E+00  0.13534878582E+04  0.13534878582E+04  0.00000000000E+00 0. -1.
          2   -1    0    0  501    0  0.00000000000E+00 -0.00000000000E+00 -0.15821852481E+04  0.15821852481E+04  0.00000000000E+00 0.  1.
    2000013    1    1    2    0    0 -0.10872990424E+04  0.23581402649E+03 -0.14823124575E+03  0.14704761014E+04  0.95000000000E+03 0.  0.
   -2000013    1    1    2    0    0  0.10872990424E+04 -0.23581402649E+03 -0.80466144119E+02  0.14651970048E+04  0.95000000000E+03 0.  0.
<mgrwt>
<rscale>  0 0.29267515E+04</rscale>
<asrwt>0</asrwt>
<pdfrwt beam="2">  1        2 0.24341312E+00 0.29267515E+04</pdfrwt>
<pdfrwt beam="1">  1       -2 0.20822890E+00 0.29267515E+04</pdfrwt>
<totfact> 0.11553762E+00</totfact>
</mgrwt>
</event>
<event>
 4    1  0.2482334E-008  0.2219412E+04  0.7816531E-02  0.8510392E-01
          2   -1    0    0  501    0  0.00000000000E+00  0.00000000000E+00  0.35587131181E+04  0.35587131181E+04  0.00000000000E+00 0.  1.
         -2   -1    0    0    0  501 -0.00000000000E+00 -0.00000000000E+00 -0.34603733590E+03  0.34603733590E+03  0.00000000000E+00 0. -1.
    2000013    1    1    2    0    0  0.32182073912E+03 -0.39011713052E+03  0.11303737886E+04  0.15607705999E+04  0.95000000000E+03 0.  0.
   -2000013    1    1    2    0    0 -0.32182073912E+03  0.39011713052E+03  0.20823019936E+04  0.23439798540E+04  0.95000000000E+03 0.  0.
<mgrwt>
<rscale>  0 0.22194122E+04</rscale>
<asrwt>0</asrwt>
<pdfrwt beam="1">  1        2 0.54749430E+00 0.22194122E+04</pdfrwt>
<pdfrwt beam="2">  1       -2 0.53236516E-01 0.22194122E+04</pdfrwt>
<totfact> 0.22515529E+00</totfact>
</mgrwt>
</event>
<event>
 4    1  0.2482334E-008  0.3000488E+04  0.7816531E-02  0.8243592E-01
         -1   -1    0    0    0  501 -0.00000000000E+00  0.00000000000E+00  0.70743680152E+03  0.70743680152E+03  0.00000000000E+00 0. -1.
          1   -1    0    0  501    0  0.00000000000E+00 -0.00000000000E+00 -0.31815310283E+04  0.31815310283E+04  0.00000000000E+00 0.  1.
    2000013    1    1    2    0    0  0.11672712100E+03 -0.43024005755E+03 -0.26266701779E+04  0.28285381298E+04  0.95000000000E+03 0.  0.
   -2000013    1    1    2    0    0 -0.11672712100E+03  0.43024005755E+03  0.15257595115E+03  0.10604297001E+04  0.95000000000E+03 0.  0.
<mgrwt>
<rscale>  0 0.30004881E+04</rscale>
<asrwt>0</asrwt>
<pdfrwt beam="2">  1        1 0.48946630E+00 0.30004881E+04</pdfrwt>
<pdfrwt beam="1">  1       -1 0.10883643E+00 0.30004881E+04</pdfrwt>
<totfact> 0.29203532E-01</totfact>
</mgrwt>
</event>
<event>
 4    1  0.2482334E-008  0.2262898E+04  0.7816531E-02  0.8492695E-01
         -1   -1    0    0    0  501 -0.00000000000E+00  0.00000000000E+00  0.55623074125E+03  0.55623074125E+03  0.00000000000E+00 0. -1.
          1   -1    0    0  501    0  0.00000000000E+00 -0.00000000000E+00 -0.23015211036E+04  0.23015211036E+04  0.00000000000E+00 0.  1.
    2000013    1    1    2    0    0 -0.17698155151E+03  0.57801125937E+03 -0.10124612288E+04  0.15142645824E+04  0.95000000000E+03 0.  0.
   -2000013    1    1    2    0    0  0.17698155151E+03 -0.57801125937E+03 -0.73282913352E+03  0.13434872625E+04  0.95000000000E+03 0.  0.
<mgrwt>
<rscale>  0 0.22628980E+04</rscale>
<asrwt>0</asrwt>
<pdfrwt beam="2">  1        1 0.35408017E+00 0.22628980E+04</pdfrwt>
<pdfrwt beam="1">  1       -1 0.85573960E-01 0.22628980E+04</pdfrwt>
<totfact> 0.22711458E+00</totfact>
</mgrwt>
</event>
<event>
 4    1  0.2482334E-008  0.2613741E+04  0.7816531E-02  0.8363549E-01
         -2   -1    0    0    0  501 -0.00000000000E+00  0.00000000000E+00  0.11709396118E+04  0.11709396118E+04  0.00000000000E+00 0. -1.
          2   -1    0    0  501    0  0.00000000000E+00 -0.00000000000E+00 -0.14585811515E+04  0.14585811515E+04  0.00000000000E+00 0.  1.
    2000013    1    1    2    0    0 -0.74679548924E+03  0.35917030425E+03 -0.49043474911E+03  0.13526762559E+04  0.95000000000E+03 0.  0.
   -2000013    1    1    2    0    0  0.74679548924E+03 -0.35917030425E+03  0.20279320940E+03  0.12768445074E+04  0.95000000000E+03 0.  0.
<mgrwt>
<rscale>  0 0.26137410E+04</rscale>
<asrwt>0</asrwt>
<pdfrwt beam="2">  1        2 0.22439710E+00 0.26137410E+04</pdfrwt>
<pdfrwt beam="1">  1       -2 0.18014456E+00 0.26137410E+04</pdfrwt>
<totfact> 0.21420070E+00</totfact>
</mgrwt>
</event>
<event>
 4    1  0.2482334E-008  0.2433749E+04  0.7816531E-02  0.8426975E-01
          2   -1    0    0  501    0  0.00000000000E+00  0.00000000000E+00  0.16171394487E+04  0.16171394487E+04  0.00000000000E+00 0.  1.
         -2   -1    0    0    0  501 -0.00000000000E+00 -0.00000000000E+00 -0.91568076624E+03  0.91568076624E+03  0.00000000000E+00 0. -1.
    2000013    1    1    2    0    0 -0.43512475365E+03  0.41616312050E+03 -0.13267688175E+03  0.11325318755E+04  0.95000000000E+03 0.  0.
   -2000013    1    1    2    0    0  0.43512475365E+03 -0.41616312050E+03  0.83413556424E+03  0.14002883395E+04  0.95000000000E+03 0.  0.
<mgrwt>
<rscale>  0 0.24337490E+04</rscale>
<asrwt>0</asrwt>
<pdfrwt beam="1">  1        2 0.24879068E+00 0.24337490E+04</pdfrwt>
<pdfrwt beam="2">  1       -2 0.14087396E+00 0.24337490E+04</pdfrwt>
<totfact> 0.34574166E+00</totfact>
</mgrwt>
</event>
<event>
 4    1  0.2482334E-008  0.2509457E+04  0.7816531E-02  0.8399624E-01
         -2   -1    0    0    0  501 -0.00000000000E+00  0.00000000000E+00  0.67778337018E+03  0.67778337018E+03  0.00000000000E+00 0. -1.
          2   -1    0    0  501    0  0.00000000000E+00 -0.00000000000E+00 -0.23227824536E+04  0.23227824536E+04  0.00000000000E+00 0.  1.
    2000013    1    1    2    0    0  0.38578566304E+03  0.69579619695E+03 -0.58672941924E+03  0.13710267455E+04  0.95000000000E+03 0.  0.
   -2000013    1    1    2    0    0 -0.38578566304E+03 -0.69579619695E+03 -0.10582696642E+04  0.16295390783E+04  0.95000000000E+03 0.  0.
<mgrwt>
<rscale>  0 0.25094568E+04</rscale>
<asrwt>0</asrwt>
<pdfrwt beam="2">  1        2 0.35735115E+00 0.25094568E+04</pdfrwt>
<pdfrwt beam="1">  1       -2 0.10427436E+00 0.25094568E+04</pdfrwt>
<totfact> 0.29306250E+00</totfact>
</mgrwt>
</event>
<event>
 4    1  0.2482334E-008  0.3074626E+04  0.7816531E-02  0.8222736E-01
         -2   -1    0    0    0  501 -0.00000000000E+00  0.00000000000E+00  0.14416842356E+04  0.14416842356E+04  0.00000000000E+00 0. -1.
          2   -1    0    0  501    0  0.00000000000E+00 -0.00000000000E+00 -0.16392844587E+04  0.16392844587E+04  0.00000000000E+00 0.  1.
    2000013    1    1    2    0    0 -0.70858612361E+03  0.75583810449E+03 -0.72253509031E+03  0.15804880548E+04  0.95000000000E+03 0.  0.
   -2000013    1    1    2    0    0  0.70858612361E+03 -0.75583810449E+03  0.52493486716E+03  0.15004806395E+04  0.95000000000E+03 0.  0.
<mgrwt>
<rscale>  0 0.30746255E+04</rscale>
<asrwt>0</asrwt>
<pdfrwt beam="2">  1        2 0.25219761E+00 0.30746255E+04</pdfrwt>
<pdfrwt beam="1">  1       -2 0.22179758E+00 0.30746255E+04</pdfrwt>
<totfact> 0.86850199E-01</totfact>
</mgrwt>
</event>
<event>
 4    1  0.2482334E-008  0.2791131E+04  0.7816531E-02  0.8306027E-01
          2   -1    0    0  501    0  0.00000000000E+00  0.00000000000E+00  0.26393916287E+04  0.26393916287E+04  0.00000000000E+00 0.  1.
         -2   -1    0    0    0  501 -0.00000000000E+00 -0.00000000000E+00 -0.73789842265E+03  0.73789842265E+03  0.00000000000E+00 0. -1.
    2000013    1    1    2    0    0  0.84655088882E+02 -0.96750728920E+03  0.56455488552E+03  0.14712100657E+04  0.95000000000E+03 0.  0.
   -2000013    1    1    2    0    0 -0.84655088882E+02  0.96750728920E+03  0.13369383206E+04  0.19060799857E+04  0.95000000000E+03 0.  0.
<mgrwt>
<rscale>  0 0.27911309E+04</rscale>
<asrwt>0</asrwt>
<pdfrwt beam="1">  1        2 0.40606025E+00 0.27911309E+04</pdfrwt>
<pdfrwt beam="2">  1       -2 0.11352284E+00 0.27911309E+04</pdfrwt>
<totfact> 0.15282633E+00</totfact>
</mgrwt>
</event>
<event>
 4    1  0.2482334E-008  0.2497417E+04  0.7816531E-02  0.8403906E-01
          1   -1    0    0  501    0  0.00000000000E+00  0.00000000000E+00  0.16791203236E+04  0.16791203236E+04  0.00000000000E+00 0.  1.
         -1   -1    0    0    0  501 -0.00000000000E+00 -0.00000000000E+00 -0.92862520942E+03  0.92862520942E+03  0.00000000000E+00 0. -1.
    2000013    1    1    2    0    0  0.66242487164E+03 -0.46035703437E+03  0.45638589508E+03  0.13272239430E+04  0.95000000000E+03 0.  0.
   -2000013    1    1    2    0    0 -0.66242487164E+03  0.46035703437E+03  0.29410921905E+03  0.12805215900E+04  0.95000000000E+03 0.  0.
<mgrwt>
<rscale>  0 0.24974174E+04</rscale>
<asrwt>0</asrwt>
<pdfrwt beam="1">  1        1 0.25832620E+00 0.24974174E+04</pdfrwt>
<pdfrwt beam="2">  1       -1 0.14286542E+00 0.24974174E+04</pdfrwt>
<totfact> 0.17392013E+00</totfact>
</mgrwt>
</event>
<event>
 4    1  0.2482334E-008  0.2172393E+04  0.7816531E-02  0.8530007E-01
          2   -1    0    0  501    0  0.00000000000E+00  0.00000000000E+00  0.10726036923E+04  0.10726036923E+04  0.00000000000E+00 0.  1.
         -2   -1    0    0    0  501 -0.00000000000E+00 -0.00000000000E+00 -0.10999616740E+04  0.10999616740E+04  0.00000000000E+00 0. -1.
    2000013    1    1    2    0    0 -0.48417145657E+03  0.17904347748E+03  0.90465651542E+02  0.10849712440E+04  0.95000000000E+03 0.  0.
   -2000013    1    1    2    0    0  0.48417145657E+03 -0.17904347748E+03 -0.11782363327E+03  0.10875941222E+04  0.95000000000E+03 0.  0.
<mgrwt>
<rscale>  0 0.21723931E+04</rscale>
<asrwt>0</asrwt>
<pdfrwt beam="1">  1        2 0.16501595E+00 0.21723931E+04</pdfrwt>
<pdfrwt beam="2">  1       -2 0.16922487E+00 0.21723931E+04</pdfrwt>
<totfact> 0.44800690E+00</totfact>
</mgrwt>
</event>
<event>
 4    1  0.2482334E-008  0.4934247E+04  0.7816531E-02  0.7838731E-01
         -2   -1    0    0    0  501 -0.00000000000E+00  0.00000000000E+00  0.13612831505E+04  0.13612831505E+04  0.00000000000E+00 0. -1.
          2   -1    0    0  501    0  0.00000000000E+00 -0.00000000000E+00 -0.44712955352E+04  0.44712955352E+04  0.00000000000E+00 0.  1.
    2000013    1    1    2    0    0 -0.97379205162E+03  0.68945607993E+03  0.73727042847E+03  0.16940154458E+04  0.95000000000E+03 0.  0.
   -2000013    1    1    2    0    0  0.97379205162E+03 -0.68945607993E+03 -0.38472828132E+04  0.41385632399E+04  0.95000000000E+03 0.  0.
<mgrwt>
<rscale>  0 0.49342474E+04</rscale>
<asrwt>0</asrwt>
<pdfrwt beam="2">  1        2 0.68789163E+00 0.49342474E+04</pdfrwt>
<pdfrwt beam="1">  1       -2 0.20942817E+00 0.49342474E+04</pdfrwt>
<totfact> 0.10990641E-02</totfact>
</mgrwt>
</event>
<event>
 4    1  0.2482334E-008  0.2750168E+04  0.7816531E-02  0.8318908E-01
          2   -1    0    0  501    0  0.00000000000E+00  0.00000000000E+00  0.27034545757E+04  0.27034545757E+04  0.00000000000E+00 0.  1.
         -2   -1    0    0    0  501 -0.00000000000E+00 -0.00000000000E+00 -0.69942194808E+03  0.69942194808E+03  0.00000000000E+00 0. -1.
    2000013    1    1    2    0    0  0.96811577062E+03  0.21402942308E+03  0.10920847838E+04  0.17544816654E+04  0.95000000000E+03 0.  0.
   -2000013    1    1    2    0    0 -0.96811577062E+03 -0.21402942308E+03  0.91194784378E+03  0.16483948584E+04  0.95000000000E+03 0.  0.
<mgrwt>
<rscale>  0 0.27501676E+04</rscale>
<asrwt>0</asrwt>
<pdfrwt beam="1">  1        2 0.41591608E+00 0.27501676E+04</pdfrwt>
<pdfrwt beam="2">  1       -2 0.10760338E+00 0.27501676E+04</pdfrwt>
<totfact> 0.15996753E+00</totfact>
</mgrwt>
</event>
<event>
 4    1  0.2482334E-008  0.2523233E+04  0.7816531E-02  0.8394755E-01
          1   -1    0    0  501    0  0.00000000000E+00  0.00000000000E+00  0.35175804455E+04  0.35175804455E+04  0.00000000000E+00 0.  1.
         -1   -1    0    0    0  501 -0.00000000000E+00 -0.00000000000E+00 -0.45249179524E+03  0.45249179524E+03  0.00000000000E+00 0. -1.
    2000013    1    1    2    0    0  0.31145698234E+02 -0.63340279543E+03  0.68962232926E+03  0.13342593874E+04  0.95000000000E+03 0.  0.
   -2000013    1    1    2    0    0 -0.31145698234E+02  0.63340279543E+03  0.23754663209E+04  0.26358128533E+04  0.95000000000E+03 0.  0.
<mgrwt>
<rscale>  0 0.25232331E+04</rscale>
<asrwt>0</asrwt>
<pdfrwt beam="1">  1        1 0.54116620E+00 0.25232331E+04</pdfrwt>
<pdfrwt beam="2">  1       -1 0.69614125E-01 0.25232331E+04</pdfrwt>
<totfact> 0.44818282E-01</totfact>
</mgrwt>
</event>
<event>
 4    1  0.2482334E-008  0.4336188E+04  0.7816531E-02  0.7939960E-01
         -2   -1    0    0    0  501 -0.00000000000E+00  0.00000000000E+00  0.22136568717E+04  0.22136568717E+04  0.00000000000E+00 0. -1.
          2   -1    0    0  501    0  0.00000000000E+00 -0.00000000000E+00 -0.21234691790E+04  0.21234691790E+04  0.00000000000E+00 0.  1.
    2000013    1    1    2    0    0  0.18074545168E+04  0.29866417436E+03  0.71009854050E+03  0.21823913619E+04  0.95000000000E+03 0.  0.
   -2000013    1    1    2    0    0 -0.18074545168E+04 -0.29866417436E+03 -0.61991084786E+03  0.21547346887E+04  0.95000000000E+03 0.  0.
<mgrwt>
<rscale>  0 0.43361883E+04</rscale>
<asrwt>0</asrwt>
<pdfrwt beam="2">  1        2 0.32668757E+00 0.43361883E+04</pdfrwt>
<pdfrwt beam="1">  1       -2 0.34056259E+00 0.43361883E+04</pdfrwt>
<totfact> 0.78062266E-02</totfact>
</mgrwt>
</event>
<event>
 4    1  0.2482334E-008  0.2364279E+04  0.7816531E-02  0.8452999E-01
          2   -1    0    0  501    0  0.00000000000E+00  0.00000000000E+00  0.70729634532E+03  0.70729634532E+03  0.00000000000E+00 0.  1.
         -2   -1    0    0    0  501 -0.00000000000E+00 -0.00000000000E+00 -0.19757689454E+04  0.19757689454E+04  0.00000000000E+00 0. -1.
    2000013    1    1    2    0    0 -0.42330338258E+03  0.36698485155E+03 -0.15131060007E+03  0.11132198941E+04  0.95000000000E+03 0.  0.
   -2000013    1    1    2    0    0  0.42330338258E+03 -0.36698485155E+03 -0.11171620000E+04  0.15698453966E+04  0.95000000000E+03 0.  0.
<mgrwt>
<rscale>  0 0.23642793E+04</rscale>
<asrwt>0</asrwt>
<pdfrwt beam="1">  1        2 0.10881482E+00 0.23642793E+04</pdfrwt>
<pdfrwt beam="2">  1       -2 0.30396445E+00 0.23642793E+04</pdfrwt>
<totfact> 0.10964325E+00</totfact>
</mgrwt>
</event>
<event>
 4    1  0.2482334E-008  0.3383921E+04  0.7816531E-02  0.8141864E-01
          2   -1    0    0  501    0  0.00000000000E+00  0.00000000000E+00  0.16574508720E+04  0.16574508720E+04  0.00000000000E+00 0.  1.
         -2   -1    0    0    0  501 -0.00000000000E+00 -0.00000000000E+00 -0.17271883316E+04  0.17271883316E+04  0.00000000000E+00 0. -1.
    2000013    1    1    2    0    0  0.52303009496E+03  0.12762598641E+04  0.20566119832E+03  0.16873636981E+04  0.95000000000E+03 0.  0.
   -2000013    1    1    2    0    0 -0.52303009496E+03 -0.12762598641E+04 -0.27539865791E+03  0.16972755056E+04  0.95000000000E+03 0.  0.
<mgrwt>
<rscale>  0 0.33839207E+04</rscale>
<asrwt>0</asrwt>
<pdfrwt beam="1">  1        2 0.25499244E+00 0.33839207E+04</pdfrwt>
<pdfrwt beam="2">  1       -2 0.26572128E+00 0.33839207E+04</pdfrwt>
<totfact> 0.44225482E-01</totfact>
</mgrwt>
</event>
<event>
 4    1  0.2482334E-008  0.2082180E+04  0.7816531E-02  0.8569134E-01
          2   -1    0    0  501    0  0.00000000000E+00  0.00000000000E+00  0.24000726076E+04  0.24000726076E+04  0.00000000000E+00 0.  1.
         -2   -1    0    0    0  501 -0.00000000000E+00 -0.00000000000E+00 -0.45159816099E+03  0.45159816099E+03  0.00000000000E+00 0. -1.
    2000013    1    1    2    0    0 -0.53891641069E+02 -0.42159945592E+03  0.93754002213E+03  0.14007611157E+04  0.95000000000E+03 0.  0.
   -2000013    1    1    2    0    0  0.53891641069E+02  0.42159945592E+03  0.10109344245E+04  0.14509096529E+04  0.95000000000E+03 0.  0.
<mgrwt>
<rscale>  0 0.20821800E+04</rscale>
<asrwt>0</asrwt>
<pdfrwt beam="1">  1        2 0.36924193E+00 0.20821800E+04</pdfrwt>
<pdfrwt beam="2">  1       -2 0.69476642E-01 0.20821800E+04</pdfrwt>
<totfact> 0.69335410E+00</totfact>
</mgrwt>
</event>
<event>
 4    1  0.2482334E-008  0.2411627E+04  0.7816531E-02  0.8435163E-01
          1   -1    0    0  501    0  0.00000000000E+00  0.00000000000E+00  0.12523690117E+04  0.12523690117E+04  0.00000000000E+00 0. -1.
         -1   -1    0    0    0  501 -0.00000000000E+00 -0.00000000000E+00 -0.11609889835E+04  0.11609889835E+04  0.00000000000E+00 0.  1.
    2000013    1    1    2    0    0  0.60798038963E+03 -0.41018837226E+03  0.16235828612E+03  0.12110965560E+04  0.95000000000E+03 0.  0.
   -2000013    1    1    2    0    0 -0.60798038963E+03  0.41018837226E+03 -0.70978257963E+02  0.12022614391E+04  0.95000000000E+03 0.  0.
<mgrwt>
<rscale>  0 0.24116274E+04</rscale>
<asrwt>0</asrwt>
<pdfrwt beam="1">  1        1 0.19267216E+00 0.24116274E+04</pdfrwt>
<pdfrwt beam="2">  1       -1 0.17861369E+00 0.24116274E+04</pdfrwt>
<totfact> 0.18660939E+00</totfact>
</mgrwt>
</event>
<event>
 4    1  0.2482334E-008  0.2385067E+04  0.7816531E-02  0.8445115E-01
          1   -1    0    0  501    0  0.00000000000E+00  0.00000000000E+00  0.13917818629E+04  0.13917818629E+04  0.00000000000E+00 0.  1.
         -1   -1    0    0    0  501 -0.00000000000E+00 -0.00000000000E+00 -0.10218099648E+04  0.10218099648E+04  0.00000000000E+00 0. -1.
    2000013    1    1    2    0    0  0.31675978286E+03 -0.18711615897E+03  0.81230897321E+03  0.13029562867E+04  0.95000000000E+03 0.  0.
   -2000013    1    1    2    0    0 -0.31675978286E+03  0.18711615897E+03 -0.44233707513E+03  0.11106355410E+04  0.95000000000E+03 0.  0.
<mgrwt>
<rscale>  0 0.23850674E+04</rscale>
<asrwt>0</asrwt>
<pdfrwt beam="1">  1        1 0.21412029E+00 0.23850674E+04</pdfrwt>
<pdfrwt beam="2">  1       -1 0.15720153E+00 0.23850674E+04</pdfrwt>
<totfact> 0.21444601E+00</totfact>
</mgrwt>
</event>
<event>
 4    1  0.2482334E-008  0.2890260E+04  0.7816531E-02  0.8275781E-01
         -2   -1    0    0    0  501 -0.00000000000E+00  0.00000000000E+00  0.22978728991E+04  0.22978728991E+04  0.00000000000E+00 0. -1.
          2   -1    0    0  501    0  0.00000000000E+00 -0.00000000000E+00 -0.90884113255E+03  0.90884113255E+03  0.00000000000E+00 0.  1.
    2000013    1    1    2    0    0 -0.10583302521E+04  0.25613493066E+03  0.67756634735E+03  0.15960150940E+04  0.95000000000E+03 0.  0.
   -2000013    1    1    2    0    0  0.10583302521E+04 -0.25613493066E+03  0.71146541921E+03  0.16106989377E+04  0.95000000000E+03 0.  0.
<mgrwt>
<rscale>  0 0.28902605E+04</rscale>
<asrwt>0</asrwt>
<pdfrwt beam="2">  1        2 0.13982171E+00 0.28902605E+04</pdfrwt>
<pdfrwt beam="1">  1       -2 0.35351891E+00 0.28902605E+04</pdfrwt>
<totfact> 0.36919967E-01</totfact>
</mgrwt>
</event>
<event>
 4    1  0.2482334E-008  0.2498320E+04  0.7816531E-02  0.8403584E-01
          2   -1    0    0  501    0  0.00000000000E+00  0.00000000000E+00  0.24177366230E+04  0.24177366230E+04  0.00000000000E+00 0. -1.
         -2   -1    0    0    0  501 -0.00000000000E+00 -0.00000000000E+00 -0.64539742043E+03  0.64539742043E+03  0.00000000000E+00 0.  1.
    2000013    1    1    2    0    0 -0.25087941125E+03 -0.76673056522E+03  0.98936964780E+03  0.15912789003E+04  0.95000000000E+03 0.  0.
   -2000013    1    1    2    0    0  0.25087941125E+03  0.76673056522E+03  0.78296955479E+03  0.14718551431E+04  0.95000000000E+03 0.  0.
<mgrwt>
<rscale>  0 0.24983202E+04</rscale>
<asrwt>0</asrwt>
<pdfrwt beam="1">  1        2 0.37195948E+00 0.24983202E+04</pdfrwt>
<pdfrwt beam="2">  1       -2 0.99291912E-01 0.24983202E+04</pdfrwt>
<totfact> 0.29093313E+00</totfact>
</mgrwt>
</event>
<event>
 4    1  0.2482334E-008  0.2254644E+04  0.7816531E-02  0.8496022E-01
         -2   -1    0    0    0  501 -0.00000000000E+00  0.00000000000E+00  0.31344959101E+03  0.31344959101E+03  0.00000000000E+00 0. -1.
          2   -1    0    0  501    0  0.00000000000E+00 -0.00000000000E+00 -0.40544163340E+04  0.40544163340E+04  0.00000000000E+00 0.  1.
    2000013    1    1    2    0    0 -0.44588677537E+03 -0.39847835797E+03 -0.20713921802E+04  0.23560062781E+04  0.95000000000E+03 0.  0.
   -2000013    1    1    2    0    0  0.44588677537E+03  0.39847835797E+03 -0.16695745629E+04  0.20118596470E+04  0.95000000000E+03 0.  0.
<mgrwt>
<rscale>  0 0.22546442E+04</rscale>
<asrwt>0</asrwt>
<pdfrwt beam="2">  1        2 0.62375632E+00 0.22546442E+04</pdfrwt>
<pdfrwt beam="1">  1       -2 0.48223017E-01 0.22546442E+04</pdfrwt>
<totfact> 0.11525327E+00</totfact>
</mgrwt>
</event>
<event>
 4    1  0.2482334E-008  0.2390068E+04  0.7816531E-02  0.8443231E-01
         -2   -1    0    0    0  501 -0.00000000000E+00  0.00000000000E+00  0.13848629099E+04  0.13848629099E+04  0.00000000000E+00 0. -1.
          2   -1    0    0  501    0  0.00000000000E+00 -0.00000000000E+00 -0.10312256574E+04  0.10312256574E+04  0.00000000000E+00 0.  1.
    2000013    1    1    2    0    0 -0.43990741468E+03  0.42372741583E+03 -0.21800063716E+03  0.11502555082E+04  0.95000000000E+03 0.  0.
   -2000013    1    1    2    0    0  0.43990741468E+03 -0.42372741583E+03  0.57163788964E+03  0.12658330590E+04  0.95000000000E+03 0.  0.
<mgrwt>
<rscale>  0 0.23900679E+04</rscale>
<asrwt>0</asrwt>
<pdfrwt beam="2">  1        2 0.15865010E+00 0.23900679E+04</pdfrwt>
<pdfrwt beam="1">  1       -2 0.21305583E+00 0.23900679E+04</pdfrwt>
<totfact> 0.23690726E+00</totfact>
</mgrwt>
</event>
<event>
 4    1  0.2482334E-008  0.3043046E+04  0.7816531E-02  0.8231544E-01
          2   -1    0    0  501    0  0.00000000000E+00  0.00000000000E+00  0.16170624228E+04  0.16170624228E+04  0.00000000000E+00 0.  1.
         -2   -1    0    0    0  501 -0.00000000000E+00 -0.00000000000E+00 -0.14316285601E+04  0.14316285601E+04  0.00000000000E+00 0. -1.
    2000013    1    1    2    0    0 -0.46062261452E+03 -0.97746211265E+03 -0.40310245521E+03  0.14941877272E+04  0.95000000000E+03 0.  0.
   -2000013    1    1    2    0    0  0.46062261452E+03  0.97746211265E+03  0.58853631787E+03  0.15545032558E+04  0.95000000000E+03 0.  0.
<mgrwt>
<rscale>  0 0.30430463E+04</rscale>
<asrwt>0</asrwt>
<pdfrwt beam="1">  1        2 0.24877884E+00 0.30430463E+04</pdfrwt>
<pdfrwt beam="2">  1       -2 0.22025055E+00 0.30430463E+04</pdfrwt>
<totfact> 0.91644872E-01</totfact>
</mgrwt>
</event>
<event>
 4    1  0.2482334E-008  0.2721592E+04  0.7816531E-02  0.8328033E-01
          1   -1    0    0  501    0  0.00000000000E+00  0.00000000000E+00  0.13625945553E+04  0.13625945553E+04  0.00000000000E+00 0.  1.
         -1   -1    0    0    0  501 -0.00000000000E+00 -0.00000000000E+00 -0.13590001561E+04  0.13590001561E+04  0.00000000000E+00 0. -1.
    2000013    1    1    2    0    0  0.65018365483E+03  0.27694313776E+03  0.67249140080E+03  0.13616831389E+04  0.95000000000E+03 0.  0.
   -2000013    1    1    2    0    0 -0.65018365483E+03 -0.27694313776E+03 -0.66889700160E+03  0.13599115726E+04  0.95000000000E+03 0.  0.
<mgrwt>
<rscale>  0 0.27215923E+04</rscale>
<asrwt>0</asrwt>
<pdfrwt beam="1">  1        1 0.20962993E+00 0.27215923E+04</pdfrwt>
<pdfrwt beam="2">  1       -1 0.20907695E+00 0.27215923E+04</pdfrwt>
<totfact> 0.92808012E-01</totfact>
</mgrwt>
</event>
<event>
 4    1  0.2482334E-008  0.3186197E+04  0.7816531E-02  0.8192472E-01
          2   -1    0    0  501    0  0.00000000000E+00  0.00000000000E+00  0.19073435898E+04  0.19073435898E+04  0.00000000000E+00 0.  1.
         -2   -1    0    0    0  501 -0.00000000000E+00 -0.00000000000E+00 -0.13306271585E+04  0.13306271585E+04  0.00000000000E+00 0. -1.
    2000013    1    1    2    0    0  0.41391126375E+03  0.11689966509E+04 -0.29107851645E+02  0.15624413496E+04  0.95000000000E+03 0.  0.
   -2000013    1    1    2    0    0 -0.41391126375E+03 -0.11689966509E+04  0.60582428289E+03  0.16755293987E+04  0.95000000000E+03 0.  0.
<mgrwt>
<rscale>  0 0.31861972E+04</rscale>
<asrwt>0</asrwt>
<pdfrwt beam="1">  1        2 0.29343747E+00 0.31861972E+04</pdfrwt>
<pdfrwt beam="2">  1       -2 0.20471187E+00 0.31861972E+04</pdfrwt>
<totfact> 0.78575200E-01</totfact>
</mgrwt>
</event>
<event>
 4    1  0.2482334E-008  0.3276183E+04  0.7816531E-02  0.8168982E-01
          2   -1    0    0  501    0  0.00000000000E+00  0.00000000000E+00  0.22037957241E+04  0.22037957241E+04  0.00000000000E+00 0.  1.
         -2   -1    0    0    0  501 -0.00000000000E+00 -0.00000000000E+00 -0.12176011933E+04  0.12176011933E+04  0.00000000000E+00 0. -1.
    2000013    1    1    2    0    0  0.76980972234E+02  0.11919509010E+04 -0.12840388345E+03  0.15315549542E+04  0.95000000000E+03 0.  0.
   -2000013    1    1    2    0    0 -0.76980972234E+02 -0.11919509010E+04  0.11145984142E+04  0.18898419631E+04  0.95000000000E+03 0.  0.
<mgrwt>
<rscale>  0 0.32761833E+04</rscale>
<asrwt>0</asrwt>
<pdfrwt beam="1">  1        2 0.33904550E+00 0.32761833E+04</pdfrwt>
<pdfrwt beam="2">  1       -2 0.18732326E+00 0.32761833E+04</pdfrwt>
<totfact> 0.69478553E-01</totfact>
</mgrwt>
</event>
<event>
 4    1  0.2482334E-008  0.2260192E+04  0.7816531E-02  0.8493784E-01
         -2   -1    0    0    0  501 -0.00000000000E+00  0.00000000000E+00  0.34716453542E+04  0.34716453542E+04  0.00000000000E+00 0. -1.
          2   -1    0    0  501    0  0.00000000000E+00 -0.00000000000E+00 -0.36787073718E+03  0.36787073718E+03  0.00000000000E+00 0.  1.
    2000013    1    1    2    0    0 -0.21083464649E+03 -0.57239132301E+03  0.16373950505E+04  0.19888804957E+04  0.95000000000E+03 0.  0.
   -2000013    1    1    2    0    0  0.21083464649E+03  0.57239132301E+03  0.14663795665E+04  0.18506355956E+04  0.95000000000E+03 0.  0.
<mgrwt>
<rscale>  0 0.22601918E+04</rscale>
<asrwt>0</asrwt>
<pdfrwt beam="2">  1        2 0.56595501E-01 0.22601918E+04</pdfrwt>
<pdfrwt beam="1">  1       -2 0.53409926E+00 0.22601918E+04</pdfrwt>
<totfact> 0.81759597E-02</totfact>
</mgrwt>
</event>
<event>
 4    1  0.2482334E-008  0.2511746E+04  0.7816531E-02  0.8398813E-01
         -4   -1    0    0    0  501 -0.00000000000E+00  0.00000000000E+00  0.29695245902E+04  0.29695245902E+04  0.00000000000E+00 0. -1.
          4   -1    0    0  501    0  0.00000000000E+00 -0.00000000000E+00 -0.53113464742E+03  0.53113464742E+03  0.00000000000E+00 0.  1.
    2000013    1    1    2    0    0 -0.48857436635E+03 -0.54026105685E+03  0.17483122842E+04  0.21188871523E+04  0.95000000000E+03 0.  0.
   -2000013    1    1    2    0    0  0.48857436635E+03  0.54026105685E+03  0.69007765861E+03  0.13817720854E+04  0.95000000000E+03 0.  0.
<mgrwt>
<rscale>  0 0.25117463E+04</rscale>
<asrwt>0</asrwt>
<pdfrwt beam="2">  1        4 0.81713025E-01 0.25117463E+04</pdfrwt>
<pdfrwt beam="1">  1       -4 0.45684993E+00 0.25117463E+04</pdfrwt>
<totfact> 0.61815315E-03</totfact>
</mgrwt>
</event>
<event>
 4    1  0.2482334E-008  0.2354045E+04  0.7816531E-02  0.8456912E-01
          2   -1    0    0  501    0  0.00000000000E+00  0.00000000000E+00  0.24361961738E+04  0.24361961738E+04  0.00000000000E+00 0.  1.
         -2   -1    0    0    0  501 -0.00000000000E+00 -0.00000000000E+00 -0.56866587154E+03  0.56866587154E+03  0.00000000000E+00 0. -1.
    2000013    1    1    2    0    0  0.63952431555E+03 -0.24079037177E+03  0.77275673913E+03  0.14023638370E+04  0.95000000000E+03 0.  0.
   -2000013    1    1    2    0    0 -0.63952431555E+03  0.24079037177E+03  0.10947735631E+04  0.16024982084E+04  0.95000000000E+03 0.  0.
<mgrwt>
<rscale>  0 0.23540447E+04</rscale>
<asrwt>0</asrwt>
<pdfrwt beam="1">  1        2 0.37479941E+00 0.23540447E+04</pdfrwt>
<pdfrwt beam="2">  1       -2 0.87487058E-01 0.23540447E+04</pdfrwt>
<totfact> 0.38579763E+00</totfact>
</mgrwt>
</event>
<event>
 4    1  0.2482334E-008  0.2390029E+04  0.7816531E-02  0.8443246E-01
         -2   -1    0    0    0  501 -0.00000000000E+00  0.00000000000E+00  0.62340199619E+03  0.62340199619E+03  0.00000000000E+00 0. -1.
          2   -1    0    0  501    0  0.00000000000E+00 -0.00000000000E+00 -0.22907529731E+04  0.22907529731E+04  0.00000000000E+00 0.  1.
    2000013    1    1    2    0    0 -0.67099843609E+03  0.27424740324E+03 -0.82092017819E+03  0.14497794585E+04  0.95000000000E+03 0.  0.
   -2000013    1    1    2    0    0  0.67099843609E+03 -0.27424740324E+03 -0.84643079869E+03  0.14643755107E+04  0.95000000000E+03 0.  0.
<mgrwt>
<rscale>  0 0.23900293E+04</rscale>
<asrwt>0</asrwt>
<pdfrwt beam="2">  1        2 0.35242353E+00 0.23900293E+04</pdfrwt>
<pdfrwt beam="1">  1       -2 0.95908002E-01 0.23900293E+04</pdfrwt>
<totfact> 0.37635716E+00</totfact>
</mgrwt>
</event>
<event>
 4    1  0.2482334E-008  0.2474653E+04  0.7816531E-02  0.8412071E-01
          2   -1    0    0  501    0  0.00000000000E+00  0.00000000000E+00  0.24225242583E+04  0.24225242583E+04  0.00000000000E+00 0.  1.
         -2   -1    0    0    0  501 -0.00000000000E+00 -0.00000000000E+00 -0.63197600574E+03  0.63197600574E+03  0.00000000000E+00 0. -1.
    2000013    1    1    2    0    0  0.51155898287E+03  0.60362159747E+03  0.83448393781E+03  0.14916149196E+04  0.95000000000E+03 0.  0.
   -2000013    1    1    2    0    0 -0.51155898287E+03 -0.60362159747E+03  0.95606431473E+03  0.15628853444E+04  0.95000000000E+03 0.  0.
<mgrwt>
<rscale>  0 0.24746533E+04</rscale>
<asrwt>0</asrwt>
<pdfrwt beam="1">  1        2 0.37269603E+00 0.24746533E+04</pdfrwt>
<pdfrwt beam="2">  1       -2 0.97227079E-01 0.24746533E+04</pdfrwt>
<totfact> 0.30437644E+00</totfact>
</mgrwt>
</event>
<event>
 4    1  0.2482334E-008  0.3533719E+04  0.7816531E-02  0.8105845E-01
         -2   -1    0    0    0  501 -0.00000000000E+00  0.00000000000E+00  0.13545610899E+04  0.13545610899E+04  0.00000000000E+00 0. -1.
          2   -1    0    0  501    0  0.00000000000E+00 -0.00000000000E+00 -0.23046523012E+04  0.23046523012E+04  0.00000000000E+00 0.  1.
    2000013    1    1    2    0    0  0.64496570865E+03  0.11745527223E+04  0.19902310903E+03  0.16545890912E+04  0.95000000000E+03 0.  0.
   -2000013    1    1    2    0    0 -0.64496570865E+03 -0.11745527223E+04 -0.11491143203E+04  0.20046243000E+04  0.95000000000E+03 0.  0.
<mgrwt>
<rscale>  0 0.35337189E+04</rscale>
<asrwt>0</asrwt>
<pdfrwt beam="2">  1        2 0.35456189E+00 0.35337189E+04</pdfrwt>
<pdfrwt beam="1">  1       -2 0.20839401E+00 0.35337189E+04</pdfrwt>
<totfact> 0.43303103E-01</totfact>
</mgrwt>
</event>
<event>
 4    1  0.2482334E-008  0.1995632E+04  0.7816531E-02  0.8608666E-01
         -2   -1    0    0    0  501 -0.00000000000E+00  0.00000000000E+00  0.42840347157E+03  0.42840347157E+03  0.00000000000E+00 0. -1.
          2   -1    0    0  501    0  0.00000000000E+00 -0.00000000000E+00 -0.23240630181E+04  0.23240630181E+04  0.00000000000E+00 0.  1.
    2000013    1    1    2    0    0  0.13858934164E+03  0.11022684696E+03 -0.12906484762E+04  0.16123369538E+04  0.95000000000E+03 0.  0.
   -2000013    1    1    2    0    0 -0.13858934164E+03 -0.11022684696E+03 -0.60501107033E+03  0.11401295359E+04  0.95000000000E+03 0.  0.
<mgrwt>
<rscale>  0 0.19956319E+04</rscale>
<asrwt>0</asrwt>
<pdfrwt beam="2">  1        2 0.35754815E+00 0.19956319E+04</pdfrwt>
<pdfrwt beam="1">  1       -2 0.65908227E-01 0.19956319E+04</pdfrwt>
<totfact> 0.86525211E+00</totfact>
</mgrwt>
</event>
<event>
 4    1  0.2482334E-008  0.2802533E+04  0.7816531E-02  0.8302482E-01
          2   -1    0    0  501    0  0.00000000000E+00  0.00000000000E+00  0.47088929036E+04  0.47088929036E+04  0.00000000000E+00 0.  1.
         -2   -1    0    0    0  501 -0.00000000000E+00 -0.00000000000E+00 -0.41698725683E+03  0.41698725683E+03  0.00000000000E+00 0. -1.
    2000013    1    1    2    0    0 -0.56351769561E+03 -0.81726522202E+03  0.26487617648E+04  0.29839426139E+04  0.95000000000E+03 0.  0.
   -2000013    1    1    2    0    0  0.56351769561E+03  0.81726522202E+03  0.16431438820E+04  0.21419375466E+04  0.95000000000E+03 0.  0.
<mgrwt>
<rscale>  0 0.28025334E+04</rscale>
<asrwt>0</asrwt>
<pdfrwt beam="1">  1        2 0.72444502E+00 0.28025334E+04</pdfrwt>
<pdfrwt beam="2">  1       -2 0.64151889E-01 0.28025334E+04</pdfrwt>
<totfact> 0.14694106E-01</totfact>
</mgrwt>
</event>
<event>
 4    1  0.2482334E-008  0.2514797E+04  0.7816531E-02  0.8397733E-01
          2   -1    0    0  501    0  0.00000000000E+00  0.00000000000E+00  0.14107328136E+04  0.14107328136E+04  0.00000000000E+00 0.  1.
         -2   -1    0    0    0  501 -0.00000000000E+00 -0.00000000000E+00 -0.11207305105E+04  0.11207305105E+04  0.00000000000E+00 0. -1.
    2000013    1    1    2    0    0  0.76355103853E+03  0.25095909982E+03  0.32664269455E+03  0.12865403640E+04  0.95000000000E+03 0.  0.
   -2000013    1    1    2    0    0 -0.76355103853E+03 -0.25095909982E+03 -0.36640391434E+02  0.12449229601E+04  0.95000000000E+03 0.  0.
<mgrwt>
<rscale>  0 0.25147973E+04</rscale>
<asrwt>0</asrwt>
<pdfrwt beam="1">  1        2 0.21703582E+00 0.25147973E+04</pdfrwt>
<pdfrwt beam="2">  1       -2 0.17242008E+00 0.25147973E+04</pdfrwt>
<totfact> 0.26041529E+00</totfact>
</mgrwt>
</event>
<event>
 4    1  0.2482334E-008  0.2103646E+04  0.7816531E-02  0.8559639E-01
         -1   -1    0    0    0  501 -0.00000000000E+00  0.00000000000E+00  0.41291829816E+03  0.41291829816E+03  0.00000000000E+00 0. -1.
          1   -1    0    0  501    0  0.00000000000E+00 -0.00000000000E+00 -0.26792993292E+04  0.26792993292E+04  0.00000000000E+00 0.  1.
    2000013    1    1    2    0    0 -0.41892680108E+03  0.54643047213E+02 -0.89917010651E+03  0.13745880866E+04  0.95000000000E+03 0.  0.
   -2000013    1    1    2    0    0  0.41892680108E+03 -0.54643047213E+02 -0.13672109246E+04  0.17176295408E+04  0.95000000000E+03 0.  0.
<mgrwt>
<rscale>  0 0.21036461E+04</rscale>
<asrwt>0</asrwt>
<pdfrwt beam="2">  1        1 0.41219987E+00 0.21036461E+04</pdfrwt>
<pdfrwt beam="1">  1       -1 0.63525896E-01 0.21036461E+04</pdfrwt>
<totfact> 0.23464062E+00</totfact>
</mgrwt>
</event>
<event>
 4    1  0.2482334E-008  0.2129612E+04  0.7816531E-02  0.8548310E-01
         -2   -1    0    0    0  501 -0.00000000000E+00  0.00000000000E+00  0.47790669093E+03  0.47790669093E+03  0.00000000000E+00 0. -1.
          2   -1    0    0  501    0  0.00000000000E+00 -0.00000000000E+00 -0.23724547071E+04  0.23724547071E+04  0.00000000000E+00 0.  1.
    2000013    1    1    2    0    0 -0.22532530009E+03  0.41547107106E+03 -0.82812807378E+03  0.13459880417E+04  0.95000000000E+03 0.  0.
   -2000013    1    1    2    0    0  0.22532530009E+03 -0.41547107106E+03 -0.10664199423E+04  0.15043733563E+04  0.95000000000E+03 0.  0.
<mgrwt>
<rscale>  0 0.21296122E+04</rscale>
<asrwt>0</asrwt>
<pdfrwt beam="2">  1        2 0.36499304E+00 0.21296122E+04</pdfrwt>
<pdfrwt beam="1">  1       -2 0.73524105E-01 0.21296122E+04</pdfrwt>
<totfact> 0.63245361E+00</totfact>
</mgrwt>
</event>
<event>
 4    1  0.2482334E-008  0.2344642E+04  0.7816531E-02  0.8460524E-01
          2   -1    0    0  501    0  0.00000000000E+00  0.00000000000E+00  0.14393813757E+04  0.14393813757E+04  0.00000000000E+00 0.  1.
         -2   -1    0    0    0  501 -0.00000000000E+00 -0.00000000000E+00 -0.95481070743E+03  0.95481070743E+03  0.00000000000E+00 0. -1.
    2000013    1    1    2    0    0  0.14494913281E+03 -0.63254562346E+03  0.47223885595E+03  0.12436373080E+04  0.95000000000E+03 0.  0.
   -2000013    1    1    2    0    0 -0.14494913281E+03  0.63254562346E+03  0.12331812313E+02  0.11505547751E+04  0.95000000000E+03 0.  0.
<mgrwt>
<rscale>  0 0.23446422E+04</rscale>
<asrwt>0</asrwt>
<pdfrwt beam="1">  1        2 0.22144329E+00 0.23446422E+04</pdfrwt>
<pdfrwt beam="2">  1       -2 0.14689396E+00 0.23446422E+04</pdfrwt>
<totfact> 0.39310542E+00</totfact>
</mgrwt>
</event>
<event>
 4    1  0.2482334E-008  0.2927806E+04  0.7816531E-02  0.8264652E-01
         -2   -1    0    0    0  501 -0.00000000000E+00  0.00000000000E+00  0.12355069039E+04  0.12355069039E+04  0.00000000000E+00 0. -1.
          2   -1    0    0  501    0  0.00000000000E+00 -0.00000000000E+00 -0.17345202299E+04  0.17345202299E+04  0.00000000000E+00 0.  1.
    2000013    1    1    2    0    0  0.10573713851E+04 -0.14141116681E+03  0.75235334990E+02  0.14304515790E+04  0.95000000000E+03 0.  0.
   -2000013    1    1    2    0    0 -0.10573713851E+04  0.14141116681E+03 -0.57424866103E+03  0.15395755548E+04  0.95000000000E+03 0.  0.
<mgrwt>
<rscale>  0 0.29278058E+04</rscale>
<asrwt>0</asrwt>
<pdfrwt beam="2">  1        2 0.26684926E+00 0.29278058E+04</pdfrwt>
<pdfrwt beam="1">  1       -2 0.19007799E+00 0.29278058E+04</pdfrwt>
<totfact> 0.12509691E+00</totfact>
</mgrwt>
</event>
<event>
 4    1  0.2482334E-008  0.1996916E+04  0.7816531E-02  0.8608064E-01
         -2   -1    0    0    0  501 -0.00000000000E+00  0.00000000000E+00  0.40759577688E+03  0.40759577688E+03  0.00000000000E+00 0. -1.
          2   -1    0    0  501    0  0.00000000000E+00 -0.00000000000E+00 -0.24458498888E+04  0.24458498888E+04  0.00000000000E+00 0.  1.
    2000013    1    1    2    0    0  0.87668539152E+02  0.29260784605E+03 -0.97145653599E+03  0.13926711477E+04  0.95000000000E+03 0.  0.
   -2000013    1    1    2    0    0 -0.87668539152E+02 -0.29260784605E+03 -0.10667975759E+04  0.14607745179E+04  0.95000000000E+03 0.  0.
<mgrwt>
<rscale>  0 0.19969157E+04</rscale>
<asrwt>0</asrwt>
<pdfrwt beam="2">  1        2 0.37628461E+00 0.19969157E+04</pdfrwt>
<pdfrwt beam="1">  1       -2 0.62707041E-01 0.19969157E+04</pdfrwt>
<totfact> 0.82016399E+00</totfact>
</mgrwt>
</event>
<event>
 4    1  0.2482334E-008  0.2964210E+04  0.7816531E-02  0.8254025E-01
          2   -1    0    0  501    0  0.00000000000E+00  0.00000000000E+00  0.22327165848E+04  0.22327165848E+04  0.00000000000E+00 0.  1.
         -2   -1    0    0    0  501 -0.00000000000E+00 -0.00000000000E+00 -0.98383959160E+03  0.98383959160E+03  0.00000000000E+00 0. -1.
    2000013    1    1    2    0    0  0.10990736486E+04 -0.18476989732E+03  0.87196298941E+03  0.17043832477E+04  0.95000000000E+03 0.  0.
   -2000013    1    1    2    0    0 -0.10990736486E+04  0.18476989732E+03  0.37691400379E+03  0.15121729287E+04  0.95000000000E+03 0.  0.
<mgrwt>
<rscale>  0 0.29642098E+04</rscale>
<asrwt>0</asrwt>
<pdfrwt beam="1">  1        2 0.34349486E+00 0.29642098E+04</pdfrwt>
<pdfrwt beam="2">  1       -2 0.15135994E+00 0.29642098E+04</pdfrwt>
<totfact> 0.12428522E+00</totfact>
</mgrwt>
</event>
<event>
 4    1  0.2482334E-008  0.2568264E+04  0.7816531E-02  0.8379062E-01
         -2   -1    0    0    0  501 -0.00000000000E+00  0.00000000000E+00  0.76972530523E+03  0.76972530523E+03  0.00000000000E+00 0. -1.
          2   -1    0    0  501    0  0.00000000000E+00 -0.00000000000E+00 -0.21423156166E+04  0.21423156166E+04  0.00000000000E+00 0.  1.
    2000013    1    1    2    0    0 -0.84146363449E+03  0.49427637801E+02 -0.90140050947E+03  0.15574103563E+04  0.95000000000E+03 0.  0.
   -2000013    1    1    2    0    0  0.84146363449E+03 -0.49427637801E+02 -0.47118980191E+03  0.13546305655E+04  0.95000000000E+03 0.  0.
<mgrwt>
<rscale>  0 0.25682636E+04</rscale>
<asrwt>0</asrwt>
<pdfrwt beam="2">  1        2 0.32958702E+00 0.25682636E+04</pdfrwt>
<pdfrwt beam="1">  1       -2 0.11841928E+00 0.25682636E+04</pdfrwt>
<totfact> 0.27077893E+00</totfact>
</mgrwt>
</event>
<event>
 4    1  0.2482334E-008  0.2390164E+04  0.7816531E-02  0.8443195E-01
         -2   -1    0    0    0  501 -0.00000000000E+00  0.00000000000E+00  0.12834867384E+04  0.12834867384E+04  0.00000000000E+00 0. -1.
          2   -1    0    0  501    0  0.00000000000E+00 -0.00000000000E+00 -0.11127666041E+04  0.11127666041E+04  0.00000000000E+00 0.  1.
    2000013    1    1    2    0    0  0.68478239542E+03 -0.24364575170E+02 -0.15231057844E+03  0.11811939188E+04  0.95000000000E+03 0.  0.
   -2000013    1    1    2    0    0 -0.68478239542E+03  0.24364575170E+02  0.32303071271E+03  0.12150594236E+04  0.95000000000E+03 0.  0.
<mgrwt>
<rscale>  0 0.23901642E+04</rscale>
<asrwt>0</asrwt>
<pdfrwt beam="2">  1        2 0.17119486E+00 0.23901642E+04</pdfrwt>
<pdfrwt beam="1">  1       -2 0.19745950E+00 0.23901642E+04</pdfrwt>
<totfact> 0.26612313E+00</totfact>
</mgrwt>
</event>
<event>
 4    1  0.2482334E-008  0.2703240E+04  0.7816531E-02  0.8333954E-01
         -2   -1    0    0    0  501 -0.00000000000E+00  0.00000000000E+00  0.97607205915E+03  0.97607205915E+03  0.00000000000E+00 0. -1.
          2   -1    0    0  501    0  0.00000000000E+00 -0.00000000000E+00 -0.18716617264E+04  0.18716617264E+04  0.00000000000E+00 0.  1.
    2000013    1    1    2    0    0 -0.69459350064E+03  0.66320482688E+03 -0.49579274769E+03  0.14389618557E+04  0.95000000000E+03 0.  0.
   -2000013    1    1    2    0    0  0.69459350064E+03 -0.66320482688E+03 -0.39979691961E+03  0.14087719299E+04  0.95000000000E+03 0.  0.
<mgrwt>
<rscale>  0 0.27032401E+04</rscale>
<asrwt>0</asrwt>
<pdfrwt beam="2">  1        2 0.28794796E+00 0.27032401E+04</pdfrwt>
<pdfrwt beam="1">  1       -2 0.15016493E+00 0.27032401E+04</pdfrwt>
<totfact> 0.20632704E+00</totfact>
</mgrwt>
</event>
<event>
 4    1  0.2482334E-008  0.2121622E+04  0.7816531E-02  0.8551778E-01
          2   -1    0    0  501    0  0.00000000000E+00  0.00000000000E+00  0.27278167553E+04  0.27278167553E+04  0.00000000000E+00 0.  1.
         -2   -1    0    0    0  501 -0.00000000000E+00 -0.00000000000E+00 -0.41253519713E+03  0.41253519713E+03  0.00000000000E+00 0. -1.
    2000013    1    1    2    0    0  0.27902347702E+03  0.32186683120E+03  0.14586936909E+04  0.17921327076E+04  0.95000000000E+03 0.  0.
   -2000013    1    1    2    0    0 -0.27902347702E+03 -0.32186683120E+03  0.85658786723E+03  0.13482192448E+04  0.95000000000E+03 0.  0.
<mgrwt>
<rscale>  0 0.21216224E+04</rscale>
<asrwt>0</asrwt>
<pdfrwt beam="1">  1        2 0.41966410E+00 0.21216224E+04</pdfrwt>
<pdfrwt beam="2">  1       -2 0.63466955E-01 0.21216224E+04</pdfrwt>
<totfact> 0.54069327E+00</totfact>
</mgrwt>
</event>
<event>
 4    1  0.2482334E-008  0.2207222E+04  0.7816531E-02  0.8515428E-01
         -1   -1    0    0    0  501 -0.00000000000E+00  0.00000000000E+00  0.95151893187E+03  0.95151893187E+03  0.00000000000E+00 0. -1.
          1   -1    0    0  501    0  0.00000000000E+00 -0.00000000000E+00 -0.12800132566E+04  0.12800132566E+04  0.00000000000E+00 0.  1.
    2000013    1    1    2    0    0 -0.21986503341E+03  0.50966961726E+03 -0.25094181256E+03  0.11285280435E+04  0.95000000000E+03 0.  0.
   -2000013    1    1    2    0    0  0.21986503341E+03 -0.50966961726E+03 -0.77552512167E+02  0.11030041450E+04  0.95000000000E+03 0.  0.
<mgrwt>
<rscale>  0 0.22072216E+04</rscale>
<asrwt>0</asrwt>
<pdfrwt beam="2">  1        1 0.19692512E+00 0.22072216E+04</pdfrwt>
<pdfrwt beam="1">  1       -1 0.14638753E+00 0.22072216E+04</pdfrwt>
<totfact> 0.31734176E+00</totfact>
</mgrwt>
</event>
<event>
 4    1  0.2482334E-008  0.2941557E+04  0.7816531E-02  0.8260619E-01
         -2   -1    0    0    0  501 -0.00000000000E+00  0.00000000000E+00  0.18531846279E+04  0.18531846279E+04  0.00000000000E+00 0. -1.
          2   -1    0    0  501    0  0.00000000000E+00 -0.00000000000E+00 -0.11672823859E+04  0.11672823859E+04  0.00000000000E+00 0.  1.
    2000013    1    1    2    0    0  0.76882526981E+03  0.29721505707E+03 -0.43990556824E+03  0.13324586277E+04  0.95000000000E+03 0.  0.
   -2000013    1    1    2    0    0 -0.76882526981E+03 -0.29721505707E+03  0.11258078103E+04  0.16880083861E+04  0.95000000000E+03 0.  0.
<mgrwt>
<rscale>  0 0.29415573E+04</rscale>
<asrwt>0</asrwt>
<pdfrwt beam="2">  1        2 0.17958190E+00 0.29415573E+04</pdfrwt>
<pdfrwt beam="1">  1       -2 0.28510533E+00 0.29415573E+04</pdfrwt>
<totfact> 0.66816118E-01</totfact>
</mgrwt>
</event>
<event>
 4    1  0.2482334E-008  0.2627677E+04  0.7816531E-02  0.8358860E-01
          2   -1    0    0  501    0  0.00000000000E+00  0.00000000000E+00  0.22420700235E+04  0.22420700235E+04  0.00000000000E+00 0.  1.
         -2   -1    0    0    0  501 -0.00000000000E+00 -0.00000000000E+00 -0.76990108093E+03  0.76990108093E+03  0.00000000000E+00 0. -1.
    2000013    1    1    2    0    0  0.64402275459E+03 -0.13542098860E+03  0.19731488467E+02  0.11558518435E+04  0.95000000000E+03 0.  0.
   -2000013    1    1    2    0    0 -0.64402275459E+03  0.13542098860E+03  0.14524374541E+04  0.18561192609E+04  0.95000000000E+03 0.  0.
<mgrwt>
<rscale>  0 0.26276774E+04</rscale>
<asrwt>0</asrwt>
<pdfrwt beam="1">  1        2 0.34493385E+00 0.26276774E+04</pdfrwt>
<pdfrwt beam="2">  1       -2 0.11844632E+00 0.26276774E+04</pdfrwt>
<totfact> 0.23664073E+00</totfact>
</mgrwt>
</event>
<event>
 4    1  0.2482334E-008  0.2245741E+04  0.7816531E-02  0.8499627E-01
          2   -1    0    0  501    0  0.00000000000E+00  0.00000000000E+00  0.14411885343E+04  0.14411885343E+04  0.00000000000E+00 0. -1.
         -2   -1    0    0    0  501 -0.00000000000E+00 -0.00000000000E+00 -0.87486021630E+03  0.87486021630E+03  0.00000000000E+00 0.  1.
    2000013    1    1    2    0    0 -0.40868134659E+03 -0.38773318583E+03  0.74388679569E+02  0.11069738669E+04  0.95000000000E+03 0.  0.
   -2000013    1    1    2    0    0  0.40868134659E+03  0.38773318583E+03  0.49193963843E+03  0.12090748837E+04  0.95000000000E+03 0.  0.
<mgrwt>
<rscale>  0 0.22457413E+04</rscale>
<asrwt>0</asrwt>
<pdfrwt beam="1">  1        2 0.22172131E+00 0.22457413E+04</pdfrwt>
<pdfrwt beam="2">  1       -2 0.13459388E+00 0.22457413E+04</pdfrwt>
<totfact> 0.49634843E+00</totfact>
</mgrwt>
</event>
<event>
 4    1  0.2482334E-008  0.2802427E+04  0.7816531E-02  0.8302515E-01
          1   -1    0    0  501    0  0.00000000000E+00  0.00000000000E+00  0.26821167525E+04  0.26821167525E+04  0.00000000000E+00 0. -1.
         -1   -1    0    0    0  501 -0.00000000000E+00 -0.00000000000E+00 -0.73203326480E+03  0.73203326480E+03  0.00000000000E+00 0.  1.
    2000013    1    1    2    0    0 -0.10702397645E+03 -0.63942875897E+03 -0.23080670241E-01  0.11501405435E+04  0.95000000000E+03 0.  0.
   -2000013    1    1    2    0    0  0.10702397645E+03  0.63942875897E+03  0.19501065684E+04  0.22640094738E+04  0.95000000000E+03 0.  0.
<mgrwt>
<rscale>  0 0.28024266E+04</rscale>
<asrwt>0</asrwt>
<pdfrwt beam="1">  1        1 0.41263334E+00 0.28024266E+04</pdfrwt>
<pdfrwt beam="2">  1       -1 0.11262050E+00 0.28024266E+04</pdfrwt>
<totfact> 0.63072657E-01</totfact>
</mgrwt>
</event>
<event>
 4    1  0.2482334E-008  0.2091183E+04  0.7816531E-02  0.8565137E-01
          2   -1    0    0  501    0  0.00000000000E+00  0.00000000000E+00  0.20736403618E+04  0.20736403618E+04  0.00000000000E+00 0.  1.
         -2   -1    0    0    0  501 -0.00000000000E+00 -0.00000000000E+00 -0.52721837573E+03  0.52721837573E+03  0.00000000000E+00 0. -1.
    2000013    1    1    2    0    0 -0.41395246862E+03  0.72979757322E+02  0.92078324445E+03  0.13881730708E+04  0.95000000000E+03 0.  0.
   -2000013    1    1    2    0    0  0.41395246862E+03 -0.72979757322E+02  0.62563874160E+03  0.12126856667E+04  0.95000000000E+03 0.  0.
<mgrwt>
<rscale>  0 0.20911827E+04</rscale>
<asrwt>0</asrwt>
<pdfrwt beam="1">  1        2 0.31902159E+00 0.20911827E+04</pdfrwt>
<pdfrwt beam="2">  1       -2 0.81110520E-01 0.20911827E+04</pdfrwt>
<totfact> 0.75109710E+00</totfact>
</mgrwt>
</event>
<event>
 4    1  0.2482334E-008  0.2227922E+04  0.7816531E-02  0.8506896E-01
          2   -1    0    0  501    0  0.00000000000E+00  0.00000000000E+00  0.25945742700E+04  0.25945742700E+04  0.00000000000E+00 0.  1.
         -2   -1    0    0    0  501 -0.00000000000E+00 -0.00000000000E+00 -0.47827063748E+03  0.47827063748E+03  0.00000000000E+00 0. -1.
    2000013    1    1    2    0    0  0.53432559614E+03  0.66443275077E+02  0.75443597450E+03  0.13272498601E+04  0.95000000000E+03 0.  0.
   -2000013    1    1    2    0    0 -0.53432559614E+03 -0.66443275077E+02  0.13618676580E+04  0.17455950474E+04  0.95000000000E+03 0.  0.
<mgrwt>
<rscale>  0 0.22279216E+04</rscale>
<asrwt>0</asrwt>
<pdfrwt beam="1">  1        2 0.39916526E+00 0.22279216E+04</pdfrwt>
<pdfrwt beam="2">  1       -2 0.73580100E-01 0.22279216E+04</pdfrwt>
<totfact> 0.46580921E+00</totfact>
</mgrwt>
</event>
<event>
 4    1  0.2482334E-008  0.2608580E+04  0.7816531E-02  0.8365293E-01
          2   -1    0    0  501    0  0.00000000000E+00  0.00000000000E+00  0.97007519489E+03  0.97007519489E+03  0.00000000000E+00 0.  1.
         -2   -1    0    0    0  501 -0.00000000000E+00 -0.00000000000E+00 -0.17536498698E+04  0.17536498698E+04  0.00000000000E+00 0. -1.
    2000013    1    1    2    0    0  0.12366594058E+03 -0.80234050583E+03 -0.78195067297E+03  0.14741066471E+04  0.95000000000E+03 0.  0.
   -2000013    1    1    2    0    0 -0.12366594058E+03  0.80234050583E+03 -0.16240019592E+01  0.12496184176E+04  0.95000000000E+03 0.  0.
<mgrwt>
<rscale>  0 0.26085799E+04</rscale>
<asrwt>0</asrwt>
<pdfrwt beam="1">  1        2 0.14924234E+00 0.26085799E+04</pdfrwt>
<pdfrwt beam="2">  1       -2 0.26979229E+00 0.26085799E+04</pdfrwt>
<totfact> 0.11316515E+00</totfact>
</mgrwt>
</event>
<event>
 4    1  0.2482334E-008  0.3360771E+04  0.7816531E-02  0.8147602E-01
         -2   -1    0    0    0  501 -0.00000000000E+00  0.00000000000E+00  0.19544416516E+04  0.19544416516E+04  0.00000000000E+00 0. -1.
          2   -1    0    0  501    0  0.00000000000E+00 -0.00000000000E+00 -0.14447584925E+04  0.14447584925E+04  0.00000000000E+00 0.  1.
    2000013    1    1    2    0    0  0.23962327990E+03 -0.10307547145E+04 -0.65055985138E+03  0.15638422932E+04  0.95000000000E+03 0.  0.
   -2000013    1    1    2    0    0 -0.23962327990E+03  0.10307547145E+04  0.11602430104E+04  0.18353578509E+04  0.95000000000E+03 0.  0.
<mgrwt>
<rscale>  0 0.33607714E+04</rscale>
<asrwt>0</asrwt>
<pdfrwt beam="2">  1        2 0.22227054E+00 0.33607714E+04</pdfrwt>
<pdfrwt beam="1">  1       -2 0.30068333E+00 0.33607714E+04</pdfrwt>
<totfact> 0.35689652E-01</totfact>
</mgrwt>
</event>
<event>
 4    1  0.2482334E-008  0.2341764E+04  0.7816531E-02  0.8461634E-01
         -2   -1    0    0    0  501 -0.00000000000E+00  0.00000000000E+00  0.53067406643E+03  0.53067406643E+03  0.00000000000E+00 0. -1.
          2   -1    0    0  501    0  0.00000000000E+00 -0.00000000000E+00 -0.25834396578E+04  0.25834396578E+04  0.00000000000E+00 0.  1.
    2000013    1    1    2    0    0  0.61154111056E+03  0.23516698679E+03 -0.76316535905E+03  0.13835488451E+04  0.95000000000E+03 0.  0.
   -2000013    1    1    2    0    0 -0.61154111056E+03 -0.23516698679E+03 -0.12896002323E+04  0.17305648791E+04  0.95000000000E+03 0.  0.
<mgrwt>
<rscale>  0 0.23417638E+04</rscale>
<asrwt>0</asrwt>
<pdfrwt beam="2">  1        2 0.39745226E+00 0.23417638E+04</pdfrwt>
<pdfrwt beam="1">  1       -2 0.81642163E-01 0.23417638E+04</pdfrwt>
<totfact> 0.37126940E+00</totfact>
</mgrwt>
</event>
<event>
 4    1  0.2482334E-008  0.2858516E+04  0.7816531E-02  0.8285328E-01
         -2   -1    0    0    0  501 -0.00000000000E+00  0.00000000000E+00  0.48661615283E+03  0.48661615283E+03  0.00000000000E+00 0. -1.
          2   -1    0    0  501    0  0.00000000000E+00 -0.00000000000E+00 -0.41979266853E+04  0.41979266853E+04  0.00000000000E+00 0.  1.
    2000013    1    1    2    0    0  0.48101609321E+03  0.95134089517E+03 -0.17539312794E+04  0.22616809929E+04  0.95000000000E+03 0.  0.
   -2000013    1    1    2    0    0 -0.48101609321E+03 -0.95134089517E+03 -0.19573792530E+04  0.24228618452E+04  0.95000000000E+03 0.  0.
<mgrwt>
<rscale>  0 0.28585164E+04</rscale>
<asrwt>0</asrwt>
<pdfrwt beam="2">  1        2 0.64583486E+00 0.28585164E+04</pdfrwt>
<pdfrwt beam="1">  1       -2 0.74864026E-01 0.28585164E+04</pdfrwt>
<totfact> 0.32436749E-01</totfact>
</mgrwt>
</event>
<event>
 4    1  0.2482334E-008  0.2460627E+04  0.7816531E-02  0.8417148E-01
          2   -1    0    0  501    0  0.00000000000E+00  0.00000000000E+00  0.63985289448E+03  0.63985289448E+03  0.00000000000E+00 0.  1.
         -2   -1    0    0    0  501 -0.00000000000E+00 -0.00000000000E+00 -0.23656542802E+04  0.23656542802E+04  0.00000000000E+00 0. -1.
    2000013    1    1    2    0    0 -0.56046475064E+03  0.13424191596E+03 -0.15081043531E+04  0.18732379369E+04  0.95000000000E+03 0.  0.
   -2000013    1    1    2    0    0  0.56046475064E+03 -0.13424191596E+03 -0.21769703268E+03  0.11322692377E+04  0.95000000000E+03 0.  0.
<mgrwt>
<rscale>  0 0.24606265E+04</rscale>
<asrwt>0</asrwt>
<pdfrwt beam="1">  1        2 0.98438906E-01 0.24606265E+04</pdfrwt>
<pdfrwt beam="2">  1       -2 0.36394682E+00 0.24606265E+04</pdfrwt>
<totfact> 0.52095484E-01</totfact>
</mgrwt>
</event>
<event>
 4    1  0.2482334E-008  0.2299772E+04  0.7816531E-02  0.8478011E-01
          1   -1    0    0  501    0  0.00000000000E+00  0.00000000000E+00  0.22776266224E+04  0.22776266224E+04  0.00000000000E+00 0.  1.
         -1   -1    0    0    0  501 -0.00000000000E+00 -0.00000000000E+00 -0.58053323179E+03  0.58053323179E+03  0.00000000000E+00 0. -1.
    2000013    1    1    2    0    0  0.28619531805E+03  0.50032150426E+03  0.12161903038E+04  0.16473761631E+04  0.95000000000E+03 0.  0.
   -2000013    1    1    2    0    0 -0.28619531805E+03 -0.50032150426E+03  0.48090308680E+03  0.12107836911E+04  0.95000000000E+03 0.  0.
<mgrwt>
<rscale>  0 0.22997721E+04</rscale>
<asrwt>0</asrwt>
<pdfrwt beam="1">  1        1 0.35040409E+00 0.22997721E+04</pdfrwt>
<pdfrwt beam="2">  1       -1 0.89312806E-01 0.22997721E+04</pdfrwt>
<totfact> 0.21406250E+00</totfact>
</mgrwt>
</event>
<event>
 4    1  0.2482334E-008  0.1950930E+04  0.7816531E-02  0.8629913E-01
          1   -1    0    0  501    0  0.00000000000E+00  0.00000000000E+00  0.52424778783E+03  0.52424778783E+03  0.00000000000E+00 0.  1.
         -1   -1    0    0    0  501 -0.00000000000E+00 -0.00000000000E+00 -0.18150416435E+04  0.18150416435E+04  0.00000000000E+00 0. -1.
    2000013    1    1    2    0    0 -0.21621564702E+03 -0.25953775818E+02 -0.69349063472E+03  0.11961822875E+04  0.95000000000E+03 0.  0.
   -2000013    1    1    2    0    0  0.21621564702E+03  0.25953775818E+02 -0.59730322096E+03  0.11431071438E+04  0.95000000000E+03 0.  0.
<mgrwt>
<rscale>  0 0.19509296E+04</rscale>
<asrwt>0</asrwt>
<pdfrwt beam="1">  1        1 0.80653506E-01 0.19509296E+04</pdfrwt>
<pdfrwt beam="2">  1       -1 0.27923718E+00 0.19509296E+04</pdfrwt>
<totfact> 0.17408949E+00</totfact>
</mgrwt>
</event>
<event>
 4    1  0.2482334E-008  0.2117915E+04  0.7816531E-02  0.8553392E-01
          2   -1    0    0  501    0  0.00000000000E+00  0.00000000000E+00  0.12183398091E+04  0.12183398091E+04  0.00000000000E+00 0.  1.
         -2   -1    0    0    0  501 -0.00000000000E+00 -0.00000000000E+00 -0.92042546698E+03  0.92042546698E+03  0.00000000000E+00 0. -1.
    2000013    1    1    2    0    0  0.20886757735E+03 -0.41670342064E+03  0.10826679324E+03  0.10637147664E+04  0.95000000000E+03 0.  0.
   -2000013    1    1    2    0    0 -0.20886757735E+03  0.41670342064E+03  0.18964754886E+03  0.10750505097E+04  0.95000000000E+03 0.  0.
<mgrwt>
<rscale>  0 0.21179150E+04</rscale>
<asrwt>0</asrwt>
<pdfrwt beam="1">  1        2 0.18743689E+00 0.21179150E+04</pdfrwt>
<pdfrwt beam="2">  1       -2 0.14160392E+00 0.21179150E+04</pdfrwt>
<totfact> 0.59262900E+00</totfact>
</mgrwt>
</event>
<event>
 4    1  0.2482334E-008  0.2749225E+04  0.7816531E-02  0.8319208E-01
          2   -1    0    0  501    0  0.00000000000E+00  0.00000000000E+00  0.17393234556E+04  0.17393234556E+04  0.00000000000E+00 0.  1.
         -2   -1    0    0    0  501 -0.00000000000E+00 -0.00000000000E+00 -0.10863762745E+04  0.10863762745E+04  0.00000000000E+00 0. -1.
    2000013    1    1    2    0    0  0.96390682158E+03 -0.14208351875E+03  0.52618674448E+03  0.14589984843E+04  0.95000000000E+03 0.  0.
   -2000013    1    1    2    0    0 -0.96390682158E+03  0.14208351875E+03  0.12676043658E+03  0.13667012458E+04  0.95000000000E+03 0.  0.
<mgrwt>
<rscale>  0 0.27492252E+04</rscale>
<asrwt>0</asrwt>
<pdfrwt beam="1">  1        2 0.26758822E+00 0.27492252E+04</pdfrwt>
<pdfrwt beam="2">  1       -2 0.16713481E+00 0.27492252E+04</pdfrwt>
<totfact> 0.18208940E+00</totfact>
</mgrwt>
</event>
<event>
 4    1  0.2482334E-008  0.2065195E+04  0.7816531E-02  0.8576732E-01
         -1   -1    0    0    0  501 -0.00000000000E+00  0.00000000000E+00  0.21254167899E+03  0.21254167899E+03  0.00000000000E+00 0.  1.
          1   -1    0    0  501    0  0.00000000000E+00 -0.00000000000E+00 -0.50166983115E+04  0.50166983115E+04  0.00000000000E+00 0. -1.
    2000013    1    1    2    0    0 -0.25240724351E+03 -0.26053570033E+03 -0.28562266861E+04  0.30318507797E+04  0.95000000000E+03 0.  0.
   -2000013    1    1    2    0    0  0.25240724351E+03  0.26053570033E+03 -0.19479299464E+04  0.21973892108E+04  0.95000000000E+03 0.  0.
<mgrwt>
<rscale>  0 0.20651949E+04</rscale>
<asrwt>0</asrwt>
<pdfrwt beam="2">  1        1 0.77179965E+00 0.20651949E+04</pdfrwt>
<pdfrwt beam="1">  1       -1 0.32698724E-01 0.20651949E+04</pdfrwt>
<totfact> 0.67824696E-02</totfact>
</mgrwt>
</event>
<event>
 4    1  0.2482334E-008  0.2754936E+04  0.7816531E-02  0.8317397E-01
         -2   -1    0    0    0  501 -0.00000000000E+00  0.00000000000E+00  0.13621816833E+04  0.13621816833E+04  0.00000000000E+00 0.  1.
          2   -1    0    0  501    0  0.00000000000E+00 -0.00000000000E+00 -0.13929254630E+04  0.13929254630E+04  0.00000000000E+00 0. -1.
    2000013    1    1    2    0    0  0.98824754147E+03  0.22419498312E+02 -0.14872828926E+03  0.13790416749E+04  0.95000000000E+03 0.  0.
   -2000013    1    1    2    0    0 -0.98824754147E+03 -0.22419498312E+02  0.11798450960E+03  0.13760654714E+04  0.95000000000E+03 0.  0.
<mgrwt>
<rscale>  0 0.27549356E+04</rscale>
<asrwt>0</asrwt>
<pdfrwt beam="2">  1        2 0.21429623E+00 0.27549356E+04</pdfrwt>
<pdfrwt beam="1">  1       -2 0.20956641E+00 0.27549356E+04</pdfrwt>
<totfact> 0.14702913E+00</totfact>
</mgrwt>
</event>
<event>
 4    1  0.2482334E-008  0.2283835E+04  0.7816531E-02  0.8484322E-01
          2   -1    0    0  501    0  0.00000000000E+00  0.00000000000E+00  0.78884166941E+03  0.78884166941E+03  0.00000000000E+00 0.  1.
         -2   -1    0    0    0  501 -0.00000000000E+00 -0.00000000000E+00 -0.16530254041E+04  0.16530254041E+04  0.00000000000E+00 0. -1.
    2000013    1    1    2    0    0 -0.12719536762E+03  0.61668920430E+03 -0.35655573600E+03  0.11942010840E+04  0.95000000000E+03 0.  0.
   -2000013    1    1    2    0    0  0.12719536762E+03 -0.61668920430E+03 -0.50762799870E+03  0.12476659895E+04  0.95000000000E+03 0.  0.
<mgrwt>
<rscale>  0 0.22838348E+04</rscale>
<asrwt>0</asrwt>
<pdfrwt beam="1">  1        2 0.12136026E+00 0.22838348E+04</pdfrwt>
<pdfrwt beam="2">  1       -2 0.25431160E+00 0.22838348E+04</pdfrwt>
<totfact> 0.19258718E+00</totfact>
</mgrwt>
</event>
<event>
 4    1  0.2482334E-008  0.2565840E+04  0.7816531E-02  0.8379898E-01
          2   -1    0    0  501    0  0.00000000000E+00  0.00000000000E+00  0.18217779945E+04  0.18217779945E+04  0.00000000000E+00 0.  1.
         -2   -1    0    0    0  501 -0.00000000000E+00 -0.00000000000E+00 -0.90344942719E+03  0.90344942719E+03  0.00000000000E+00 0. -1.
    2000013    1    1    2    0    0 -0.60722912171E+03  0.32131770571E+03 -0.94170073537E+02  0.11761548695E+04  0.95000000000E+03 0.  0.
   -2000013    1    1    2    0    0  0.60722912171E+03 -0.32131770571E+03  0.10124986408E+04  0.15490725522E+04  0.95000000000E+03 0.  0.
<mgrwt>
<rscale>  0 0.25658404E+04</rscale>
<asrwt>0</asrwt>
<pdfrwt beam="1">  1        2 0.28027354E+00 0.25658404E+04</pdfrwt>
<pdfrwt beam="2">  1       -2 0.13899222E+00 0.25658404E+04</pdfrwt>
<totfact> 0.27246104E+00</totfact>
</mgrwt>
</event>
<event>
 4    1  0.2482334E-008  0.2513233E+04  0.7816531E-02  0.8398286E-01
          1   -1    0    0  501    0  0.00000000000E+00  0.00000000000E+00  0.18557197910E+04  0.18557197910E+04  0.00000000000E+00 0.  1.
         -1   -1    0    0    0  501 -0.00000000000E+00 -0.00000000000E+00 -0.85092831001E+03  0.85092831001E+03  0.00000000000E+00 0. -1.
    2000013    1    1    2    0    0 -0.54365013843E+03 -0.58613454939E+03  0.71087929565E+03  0.14307195938E+04  0.95000000000E+03 0.  0.
   -2000013    1    1    2    0    0  0.54365013843E+03  0.58613454939E+03  0.29391218538E+03  0.12759285073E+04  0.95000000000E+03 0.  0.
<mgrwt>
<rscale>  0 0.25132326E+04</rscale>
<asrwt>0</asrwt>
<pdfrwt beam="1">  1        1 0.28549535E+00 0.25132326E+04</pdfrwt>
<pdfrwt beam="2">  1       -1 0.13091205E+00 0.25132326E+04</pdfrwt>
<totfact> 0.16506953E+00</totfact>
</mgrwt>
</event>
<event>
 4    1  0.2482334E-008  0.2032131E+04  0.7816531E-02  0.8591744E-01
         -2   -1    0    0    0  501 -0.00000000000E+00  0.00000000000E+00  0.26774210553E+03  0.26774210553E+03  0.00000000000E+00 0. -1.
          2   -1    0    0  501    0  0.00000000000E+00 -0.00000000000E+00 -0.38559069782E+04  0.38559069782E+04  0.00000000000E+00 0.  1.
    2000013    1    1    2    0    0  0.25996890646E+03 -0.24088772725E+03 -0.16613593090E+04  0.19463364260E+04  0.95000000000E+03 0.  0.
   -2000013    1    1    2    0    0 -0.25996890646E+03  0.24088772725E+03 -0.19268055637E+04  0.21773126577E+04  0.95000000000E+03 0.  0.
<mgrwt>
<rscale>  0 0.20321306E+04</rscale>
<asrwt>0</asrwt>
<pdfrwt beam="2">  1        2 0.59321644E+00 0.20321306E+04</pdfrwt>
<pdfrwt beam="1">  1       -2 0.41191094E-01 0.20321306E+04</pdfrwt>
<totfact> 0.23212283E+00</totfact>
</mgrwt>
</event>
<event>
 4    1  0.2482334E-008  0.3089545E+04  0.7816531E-02  0.8218613E-01
          2   -1    0    0  501    0  0.00000000000E+00  0.00000000000E+00  0.34555177586E+04  0.34555177586E+04  0.00000000000E+00 0.  1.
         -2   -1    0    0    0  501 -0.00000000000E+00 -0.00000000000E+00 -0.69058310665E+03  0.69058310665E+03  0.00000000000E+00 0. -1.
    2000013    1    1    2    0    0  0.88942239664E+02 -0.60238549943E+03  0.27982654539E+04  0.30172120513E+04  0.95000000000E+03 0.  0.
   -2000013    1    1    2    0    0 -0.88942239664E+02  0.60238549943E+03 -0.33330801969E+02  0.11288888140E+04  0.95000000000E+03 0.  0.
<mgrwt>
<rscale>  0 0.30895451E+04</rscale>
<asrwt>0</asrwt>
<pdfrwt beam="1">  1        2 0.53161811E+00 0.30895451E+04</pdfrwt>
<pdfrwt beam="2">  1       -2 0.10624356E+00 0.30895451E+04</pdfrwt>
<totfact> 0.52961149E-01</totfact>
</mgrwt>
</event>
<event>
 4    1  0.2482334E-008  0.2529381E+04  0.7816531E-02  0.8392593E-01
         -2   -1    0    0    0  501 -0.00000000000E+00  0.00000000000E+00  0.56880509714E+03  0.56880509714E+03  0.00000000000E+00 0. -1.
          2   -1    0    0  501    0  0.00000000000E+00 -0.00000000000E+00 -0.28119336061E+04  0.28119336061E+04  0.00000000000E+00 0.  1.
    2000013    1    1    2    0    0 -0.50789489016E+03  0.46133943085E+03 -0.48594582899E+03  0.12686349509E+04  0.95000000000E+03 0.  0.
   -2000013    1    1    2    0    0  0.50789489016E+03 -0.46133943085E+03 -0.17571826800E+04  0.21121037524E+04  0.95000000000E+03 0.  0.
<mgrwt>
<rscale>  0 0.25293811E+04</rscale>
<asrwt>0</asrwt>
<pdfrwt beam="2">  1        2 0.43260518E+00 0.25293811E+04</pdfrwt>
<pdfrwt beam="1">  1       -2 0.87508474E-01 0.25293811E+04</pdfrwt>
<totfact> 0.22809410E+00</totfact>
</mgrwt>
</event>
<event>
 4    1  0.2482334E-008  0.4029700E+04  0.7816531E-02  0.7998582E-01
         -2   -1    0    0    0  501 -0.00000000000E+00  0.00000000000E+00  0.21186882785E+04  0.21186882785E+04  0.00000000000E+00 0. -1.
          2   -1    0    0  501    0  0.00000000000E+00 -0.00000000000E+00 -0.19161012053E+04  0.19161012053E+04  0.00000000000E+00 0.  1.
    2000013    1    1    2    0    0 -0.12696809276E+04 -0.12023632977E+04 -0.21430924556E+03  0.20015483033E+04  0.95000000000E+03 0.  0.
   -2000013    1    1    2    0    0  0.12696809276E+04  0.12023632977E+04  0.41689631872E+03  0.20332411805E+04  0.95000000000E+03 0.  0.
<mgrwt>
<rscale>  0 0.40297003E+04</rscale>
<asrwt>0</asrwt>
<pdfrwt beam="2">  1        2 0.29478480E+00 0.40297003E+04</pdfrwt>
<pdfrwt beam="1">  1       -2 0.32595204E+00 0.40297003E+04</pdfrwt>
<totfact> 0.12875741E-01</totfact>
</mgrwt>
</event>
<event>
 4    1  0.2482334E-008  0.2790046E+04  0.7816531E-02  0.8306365E-01
          1   -1    0    0  501    0  0.00000000000E+00  0.00000000000E+00  0.24285403593E+04  0.24285403593E+04  0.00000000000E+00 0.  1.
         -1   -1    0    0    0  501 -0.00000000000E+00 -0.00000000000E+00 -0.80134119638E+03  0.80134119638E+03  0.00000000000E+00 0. -1.
    2000013    1    1    2    0    0  0.46757703528E+03 -0.90716722318E+03  0.76171460418E+03  0.15888013699E+04  0.95000000000E+03 0.  0.
   -2000013    1    1    2    0    0 -0.46757703528E+03  0.90716722318E+03  0.86548455869E+03  0.16410801857E+04  0.95000000000E+03 0.  0.
<mgrwt>
<rscale>  0 0.27900462E+04</rscale>
<asrwt>0</asrwt>
<pdfrwt beam="1">  1        1 0.37362159E+00 0.27900462E+04</pdfrwt>
<pdfrwt beam="2">  1       -1 0.12328326E+00 0.27900462E+04</pdfrwt>
<totfact> 0.76164801E-01</totfact>
</mgrwt>
</event>
<event>
 4    1  0.2482334E-008  0.2565805E+04  0.7816531E-02  0.8379910E-01
         -2   -1    0    0    0  501 -0.00000000000E+00  0.00000000000E+00  0.53231774489E+03  0.53231774489E+03  0.00000000000E+00 0. -1.
          2   -1    0    0  501    0  0.00000000000E+00 -0.00000000000E+00 -0.30918345782E+04  0.30918345782E+04  0.00000000000E+00 0.  1.
    2000013    1    1    2    0    0  0.17554503229E+03 -0.62403042519E+03 -0.47686672941E+03  0.12450429340E+04  0.95000000000E+03 0.  0.
   -2000013    1    1    2    0    0 -0.17554503229E+03  0.62403042519E+03 -0.20826501039E+04  0.23791093891E+04  0.95000000000E+03 0.  0.
<mgrwt>
<rscale>  0 0.25658047E+04</rscale>
<asrwt>0</asrwt>
<pdfrwt beam="2">  1        2 0.47566685E+00 0.25658047E+04</pdfrwt>
<pdfrwt beam="1">  1       -2 0.81895039E-01 0.25658047E+04</pdfrwt>
<totfact> 0.17715987E+00</totfact>
</mgrwt>
</event>
<event>
 4    1  0.2482334E-008  0.2976994E+04  0.7816531E-02  0.8250331E-01
         -2   -1    0    0    0  501 -0.00000000000E+00  0.00000000000E+00  0.72048019466E+03  0.72048019466E+03  0.00000000000E+00 0. -1.
          2   -1    0    0  501    0  0.00000000000E+00 -0.00000000000E+00 -0.30752041402E+04  0.30752041402E+04  0.00000000000E+00 0.  1.
    2000013    1    1    2    0    0 -0.30182263507E+03 -0.10911747681E+04 -0.95155851665E+03  0.17577607596E+04  0.95000000000E+03 0.  0.
   -2000013    1    1    2    0    0  0.30182263507E+03  0.10911747681E+04 -0.14031654289E+04  0.20379235752E+04  0.95000000000E+03 0.  0.
<mgrwt>
<rscale>  0 0.29769942E+04</rscale>
<asrwt>0</asrwt>
<pdfrwt beam="2">  1        2 0.47310833E+00 0.29769942E+04</pdfrwt>
<pdfrwt beam="1">  1       -2 0.11084311E+00 0.29769942E+04</pdfrwt>
<totfact> 0.86273656E-01</totfact>
</mgrwt>
</event>
<event>
 4    1  0.2482334E-008  0.2200323E+04  0.7816531E-02  0.8518294E-01
          2   -1    0    0  501    0  0.00000000000E+00  0.00000000000E+00  0.73467144045E+03  0.73467144045E+03  0.00000000000E+00 0.  1.
         -2   -1    0    0    0  501 -0.00000000000E+00 -0.00000000000E+00 -0.16474777127E+04  0.16474777127E+04  0.00000000000E+00 0. -1.
    2000013    1    1    2    0    0  0.28582988563E+02 -0.29648715063E+03 -0.96320324428E+03  0.13852732970E+04  0.95000000000E+03 0.  0.
   -2000013    1    1    2    0    0 -0.28582988563E+02  0.29648715063E+03  0.50396972008E+02  0.99687585612E+03  0.95000000000E+03 0.  0.
<mgrwt>
<rscale>  0 0.22003225E+04</rscale>
<asrwt>0</asrwt>
<pdfrwt beam="1">  1        2 0.11302638E+00 0.22003225E+04</pdfrwt>
<pdfrwt beam="2">  1       -2 0.25345811E+00 0.22003225E+04</pdfrwt>
<totfact> 0.21538396E+00</totfact>
</mgrwt>
</event>
<event>
 4    1  0.2482334E-008  0.2797233E+04  0.7816531E-02  0.8304128E-01
          2   -1    0    0  501    0  0.00000000000E+00  0.00000000000E+00  0.27174072000E+04  0.27174072000E+04  0.00000000000E+00 0.  1.
         -2   -1    0    0    0  501 -0.00000000000E+00 -0.00000000000E+00 -0.71985070136E+03  0.71985070136E+03  0.00000000000E+00 0. -1.
    2000013    1    1    2    0    0  0.67296221066E+03  0.73445243754E+03  0.13030883320E+04  0.18954782302E+04  0.95000000000E+03 0.  0.
   -2000013    1    1    2    0    0 -0.67296221066E+03 -0.73445243754E+03  0.69446816657E+03  0.15417796711E+04  0.95000000000E+03 0.  0.
<mgrwt>
<rscale>  0 0.27972325E+04</rscale>
<asrwt>0</asrwt>
<pdfrwt beam="1">  1        2 0.41806264E+00 0.27972325E+04</pdfrwt>
<pdfrwt beam="2">  1       -2 0.11074626E+00 0.27972325E+04</pdfrwt>
<totfact> 0.14579986E+00</totfact>
</mgrwt>
</event>
<event>
 4    1  0.2482334E-008  0.2462967E+04  0.7816531E-02  0.8416299E-01
         -2   -1    0    0    0  501 -0.00000000000E+00  0.00000000000E+00  0.31753822110E+04  0.31753822110E+04  0.00000000000E+00 0. -1.
          2   -1    0    0  501    0  0.00000000000E+00 -0.00000000000E+00 -0.47759655202E+03  0.47759655202E+03  0.00000000000E+00 0.  1.
    2000013    1    1    2    0    0 -0.62325905242E+03  0.47471596191E+03  0.13720844930E+04  0.18436168113E+04  0.95000000000E+03 0.  0.
   -2000013    1    1    2    0    0  0.62325905242E+03 -0.47471596191E+03  0.13257011660E+04  0.18093619518E+04  0.95000000000E+03 0.  0.
<mgrwt>
<rscale>  0 0.24629670E+04</rscale>
<asrwt>0</asrwt>
<pdfrwt beam="2">  1        2 0.73476395E-01 0.24629670E+04</pdfrwt>
<pdfrwt beam="1">  1       -2 0.48852033E+00 0.24629670E+04</pdfrwt>
<totfact> 0.11280557E-01</totfact>
</mgrwt>
</event>
<event>
 4    1  0.2482334E-008  0.3384053E+04  0.7816531E-02  0.8141831E-01
         -2   -1    0    0    0  501 -0.00000000000E+00  0.00000000000E+00  0.12134691115E+04  0.12134691115E+04  0.00000000000E+00 0. -1.
          2   -1    0    0  501    0  0.00000000000E+00 -0.00000000000E+00 -0.23593130658E+04  0.23593130658E+04  0.00000000000E+00 0.  1.
    2000013    1    1    2    0    0 -0.90849700709E+03 -0.10596900023E+04 -0.68926678315E+03  0.18237045844E+04  0.95000000000E+03 0.  0.
   -2000013    1    1    2    0    0  0.90849700709E+03  0.10596900023E+04 -0.45657717113E+03  0.17490775929E+04  0.95000000000E+03 0.  0.
<mgrwt>
<rscale>  0 0.33840529E+04</rscale>
<asrwt>0</asrwt>
<pdfrwt beam="2">  1        2 0.36297124E+00 0.33840529E+04</pdfrwt>
<pdfrwt beam="1">  1       -2 0.18668756E+00 0.33840529E+04</pdfrwt>
<totfact> 0.56775012E-01</totfact>
</mgrwt>
</event>
<event>
 4    1  0.2482334E-008  0.2519508E+04  0.7816531E-02  0.8396069E-01
         -2   -1    0    0    0  501 -0.00000000000E+00  0.00000000000E+00  0.44411937362E+03  0.44411937362E+03  0.00000000000E+00 0. -1.
          2   -1    0    0  501    0  0.00000000000E+00 -0.00000000000E+00 -0.35733179765E+04  0.35733179765E+04  0.00000000000E+00 0.  1.
    2000013    1    1    2    0    0  0.56845814545E+03  0.50068542999E+03 -0.10341944071E+04  0.15955841045E+04  0.95000000000E+03 0.  0.
   -2000013    1    1    2    0    0 -0.56845814545E+03 -0.50068542999E+03 -0.20950041958E+04  0.24218532456E+04  0.95000000000E+03 0.  0.
<mgrwt>
<rscale>  0 0.25195077E+04</rscale>
<asrwt>0</asrwt>
<pdfrwt beam="2">  1        2 0.54974120E+00 0.25195077E+04</pdfrwt>
<pdfrwt beam="1">  1       -2 0.68326060E-01 0.25195077E+04</pdfrwt>
<totfact> 0.12607596E+00</totfact>
</mgrwt>
</event>
<event>
 4    1  0.2482334E-008  0.2373554E+04  0.7816531E-02  0.8449471E-01
         -2   -1    0    0    0  501 -0.00000000000E+00  0.00000000000E+00  0.75332700081E+03  0.75332700081E+03  0.00000000000E+00 0. -1.
          2   -1    0    0  501    0  0.00000000000E+00 -0.00000000000E+00 -0.18696255513E+04  0.18696255513E+04  0.00000000000E+00 0.  1.
    2000013    1    1    2    0    0  0.46150956975E+03  0.89857384188E+02 -0.11479668970E+04  0.15624958973E+04  0.95000000000E+03 0.  0.
   -2000013    1    1    2    0    0 -0.46150956975E+03 -0.89857384188E+02  0.31668346564E+02  0.10604566548E+04  0.95000000000E+03 0.  0.
<mgrwt>
<rscale>  0 0.23735538E+04</rscale>
<asrwt>0</asrwt>
<pdfrwt beam="2">  1        2 0.28763470E+00 0.23735538E+04</pdfrwt>
<pdfrwt beam="1">  1       -2 0.11589646E+00 0.23735538E+04</pdfrwt>
<totfact> 0.41160113E+00</totfact>
</mgrwt>
</event>
<event>
 4    1  0.2482334E-008  0.2524468E+04  0.7816531E-02  0.8394320E-01
         -2   -1    0    0    0  501 -0.00000000000E+00  0.00000000000E+00  0.78139092615E+03  0.78139092615E+03  0.00000000000E+00 0. -1.
          2   -1    0    0  501    0  0.00000000000E+00 -0.00000000000E+00 -0.20389728923E+04  0.20389728923E+04  0.00000000000E+00 0.  1.
    2000013    1    1    2    0    0 -0.81258766109E+03 -0.15708562617E+03 -0.71358366635E+03  0.14479904177E+04  0.95000000000E+03 0.  0.
   -2000013    1    1    2    0    0  0.81258766109E+03  0.15708562617E+03 -0.54399829983E+03  0.13723734008E+04  0.95000000000E+03 0.  0.
<mgrwt>
<rscale>  0 0.25244682E+04</rscale>
<asrwt>0</asrwt>
<pdfrwt beam="2">  1        2 0.31368813E+00 0.25244682E+04</pdfrwt>
<pdfrwt beam="1">  1       -2 0.12021399E+00 0.25244682E+04</pdfrwt>
<totfact> 0.29904890E+00</totfact>
</mgrwt>
</event>
<event>
 4    1  0.2482334E-008  0.2361526E+04  0.7816531E-02  0.8454050E-01
          2   -1    0    0  501    0  0.00000000000E+00  0.00000000000E+00  0.16789384891E+04  0.16789384891E+04  0.00000000000E+00 0.  1.
         -2   -1    0    0    0  501 -0.00000000000E+00 -0.00000000000E+00 -0.83040629755E+03  0.83040629755E+03  0.00000000000E+00 0. -1.
    2000013    1    1    2    0    0  0.49480131600E+03 -0.45144906285E+03  0.64478072234E+03  0.13292391728E+04  0.95000000000E+03 0.  0.
   -2000013    1    1    2    0    0 -0.49480131600E+03  0.45144906285E+03  0.20375146925E+03  0.11801056139E+04  0.95000000000E+03 0.  0.
<mgrwt>
<rscale>  0 0.23615259E+04</rscale>
<asrwt>0</asrwt>
<pdfrwt beam="1">  1        2 0.25829823E+00 0.23615259E+04</pdfrwt>
<pdfrwt beam="2">  1       -2 0.12775482E+00 0.23615259E+04</pdfrwt>
<totfact> 0.41256440E+00</totfact>
</mgrwt>
</event>
<event>
 4    1  0.2482334E-008  0.3227117E+04  0.7816531E-02  0.8181692E-01
         -2   -1    0    0    0  501 -0.00000000000E+00  0.00000000000E+00  0.16508115423E+04  0.16508115423E+04  0.00000000000E+00 0. -1.
          2   -1    0    0  501    0  0.00000000000E+00 -0.00000000000E+00 -0.15771464246E+04  0.15771464246E+04  0.00000000000E+00 0.  1.
    2000013    1    1    2    0    0 -0.89558739332E+03 -0.84160903581E+03  0.47362579974E+03  0.16239470270E+04  0.95000000000E+03 0.  0.
   -2000013    1    1    2    0    0  0.89558739332E+03  0.84160903581E+03 -0.39996068200E+03  0.16040109399E+04  0.95000000000E+03 0.  0.
<mgrwt>
<rscale>  0 0.32271173E+04</rscale>
<asrwt>0</asrwt>
<pdfrwt beam="2">  1        2 0.24263791E+00 0.32271173E+04</pdfrwt>
<pdfrwt beam="1">  1       -2 0.25397100E+00 0.32271173E+04</pdfrwt>
<totfact> 0.58624755E-01</totfact>
</mgrwt>
</event>
<event>
 4    1  0.2482334E-008  0.2075097E+04  0.7816531E-02  0.8572293E-01
          2   -1    0    0  501    0  0.00000000000E+00  0.00000000000E+00  0.12347846572E+04  0.12347846572E+04  0.00000000000E+00 0.  1.
         -2   -1    0    0    0  501 -0.00000000000E+00 -0.00000000000E+00 -0.87181742046E+03  0.87181742046E+03  0.00000000000E+00 0. -1.
    2000013    1    1    2    0    0  0.30282342881E+03  0.21474445985E+03  0.37460741723E+03  0.10865762417E+04  0.95000000000E+03 0.  0.
   -2000013    1    1    2    0    0 -0.30282342881E+03 -0.21474445985E+03 -0.11640180528E+02  0.10200258359E+04  0.95000000000E+03 0.  0.
<mgrwt>
<rscale>  0 0.20750969E+04</rscale>
<asrwt>0</asrwt>
<pdfrwt beam="1">  1        2 0.18996687E+00 0.20750969E+04</pdfrwt>
<pdfrwt beam="2">  1       -2 0.13412576E+00 0.20750969E+04</pdfrwt>
<totfact> 0.66897667E+00</totfact>
</mgrwt>
</event>
<event>
 4    1  0.2482334E-008  0.2699280E+04  0.7816531E-02  0.8335239E-01
         -2   -1    0    0    0  501 -0.00000000000E+00  0.00000000000E+00  0.41117844737E+03  0.41117844737E+03  0.00000000000E+00 0. -1.
          2   -1    0    0  501    0  0.00000000000E+00 -0.00000000000E+00 -0.44300195075E+04  0.44300195075E+04  0.00000000000E+00 0.  1.
    2000013    1    1    2    0    0  0.76139857713E+03 -0.44566852629E+03 -0.13367203870E+04  0.18621679897E+04  0.95000000000E+03 0.  0.
   -2000013    1    1    2    0    0 -0.76139857713E+03  0.44566852629E+03 -0.26821206731E+04  0.29790299652E+04  0.95000000000E+03 0.  0.
<mgrwt>
<rscale>  0 0.26992803E+04</rscale>
<asrwt>0</asrwt>
<pdfrwt beam="2">  1        2 0.68154143E+00 0.26992803E+04</pdfrwt>
<pdfrwt beam="1">  1       -2 0.63258226E-01 0.26992803E+04</pdfrwt>
<totfact> 0.29266871E-01</totfact>
</mgrwt>
</event>
<event>
 4    1  0.2482334E-008  0.3528346E+04  0.7816531E-02  0.8107105E-01
          2   -1    0    0  501    0  0.00000000000E+00  0.00000000000E+00  0.30777505407E+04  0.30777505407E+04  0.00000000000E+00 0.  1.
         -2   -1    0    0    0  501 -0.00000000000E+00 -0.00000000000E+00 -0.10112277717E+04  0.10112277717E+04  0.00000000000E+00 0. -1.
    2000013    1    1    2    0    0 -0.87317961417E+03 -0.11580758525E+04  0.14109691916E+04  0.22353783524E+04  0.95000000000E+03 0.  0.
   -2000013    1    1    2    0    0  0.87317961417E+03  0.11580758525E+04  0.65555357750E+03  0.18535999600E+04  0.95000000000E+03 0.  0.
<mgrwt>
<rscale>  0 0.35283463E+04</rscale>
<asrwt>0</asrwt>
<pdfrwt beam="1">  1        2 0.47350008E+00 0.35283463E+04</pdfrwt>
<pdfrwt beam="2">  1       -2 0.15557350E+00 0.35283463E+04</pdfrwt>
<totfact> 0.34618534E-01</totfact>
</mgrwt>
</event>
<event>
 4    1  0.2482334E-008  0.3448949E+04  0.7816531E-02  0.8125996E-01
          1   -1    0    0  501    0  0.00000000000E+00  0.00000000000E+00  0.21020582089E+04  0.21020582089E+04  0.00000000000E+00 0.  1.
         -1   -1    0    0    0  501 -0.00000000000E+00 -0.00000000000E+00 -0.14147142787E+04  0.14147142787E+04  0.00000000000E+00 0. -1.
    2000013    1    1    2    0    0 -0.54099863754E+03  0.12053591473E+04 -0.23828936524E+03  0.16446434329E+04  0.95000000000E+03 0.  0.
   -2000013    1    1    2    0    0  0.54099863754E+03 -0.12053591473E+04  0.92563329549E+03  0.18721290547E+04  0.95000000000E+03 0.  0.
<mgrwt>
<rscale>  0 0.34489487E+04</rscale>
<asrwt>0</asrwt>
<pdfrwt beam="1">  1        1 0.32339357E+00 0.34489487E+04</pdfrwt>
<pdfrwt beam="2">  1       -1 0.21764835E+00 0.34489487E+04</pdfrwt>
<totfact> 0.23754632E-01</totfact>
</mgrwt>
</event>
<event>
 4    1  0.2482334E-008  0.2477944E+04  0.7816531E-02  0.8410886E-01
          2   -1    0    0  501    0  0.00000000000E+00  0.00000000000E+00  0.31975992965E+04  0.31975992965E+04  0.00000000000E+00 0. -1.
         -2   -1    0    0    0  501 -0.00000000000E+00 -0.00000000000E+00 -0.48006362381E+03  0.48006362381E+03  0.00000000000E+00 0.  1.
    2000013    1    1    2    0    0 -0.48076932315E+03  0.59668069911E+03  0.16749463863E+04  0.20724652942E+04  0.95000000000E+03 0.  0.
   -2000013    1    1    2    0    0  0.48076932315E+03 -0.59668069911E+03  0.10425892864E+04  0.16051976261E+04  0.95000000000E+03 0.  0.
<mgrwt>
<rscale>  0 0.24779436E+04</rscale>
<asrwt>0</asrwt>
<pdfrwt beam="1">  1        2 0.49193834E+00 0.24779436E+04</pdfrwt>
<pdfrwt beam="2">  1       -2 0.73855944E-01 0.24779436E+04</pdfrwt>
<totfact> 0.19223235E+00</totfact>
</mgrwt>
</event>
<event>
 4    1  0.2482334E-008  0.2140084E+04  0.7816531E-02  0.8543789E-01
          2   -1    0    0  501    0  0.00000000000E+00  0.00000000000E+00  0.18923924957E+04  0.18923924957E+04  0.00000000000E+00 0.  1.
         -2   -1    0    0    0  501 -0.00000000000E+00 -0.00000000000E+00 -0.60504865562E+03  0.60504865562E+03  0.00000000000E+00 0. -1.
    2000013    1    1    2    0    0 -0.20130472539E+03 -0.24738484181E+03  0.20583291559E+03  0.10230298342E+04  0.95000000000E+03 0.  0.
   -2000013    1    1    2    0    0  0.20130472539E+03  0.24738484181E+03  0.10815109245E+04  0.14744113172E+04  0.95000000000E+03 0.  0.
<mgrwt>
<rscale>  0 0.21400837E+04</rscale>
<asrwt>0</asrwt>
<pdfrwt beam="1">  1        2 0.29113731E+00 0.21400837E+04</pdfrwt>
<pdfrwt beam="2">  1       -2 0.93084409E-01 0.21400837E+04</pdfrwt>
<totfact> 0.68833815E+00</totfact>
</mgrwt>
</event>
<event>
 4    1  0.2482334E-008  0.2697681E+04  0.7816531E-02  0.8335758E-01
         -2   -1    0    0    0  501 -0.00000000000E+00  0.00000000000E+00  0.15285735141E+04  0.15285735141E+04  0.00000000000E+00 0. -1.
          2   -1    0    0  501    0  0.00000000000E+00 -0.00000000000E+00 -0.11902404528E+04  0.11902404528E+04  0.00000000000E+00 0.  1.
    2000013    1    1    2    0    0  0.35741729653E+03 -0.79019023186E+03 -0.23987290826E+03  0.13085055363E+04  0.95000000000E+03 0.  0.
   -2000013    1    1    2    0    0 -0.35741729653E+03  0.79019023186E+03  0.57820596950E+03  0.14103084306E+04  0.95000000000E+03 0.  0.
<mgrwt>
<rscale>  0 0.26976805E+04</rscale>
<asrwt>0</asrwt>
<pdfrwt beam="2">  1        2 0.18311392E+00 0.26976805E+04</pdfrwt>
<pdfrwt beam="1">  1       -2 0.23516516E+00 0.26976805E+04</pdfrwt>
<totfact> 0.13371166E+00</totfact>
</mgrwt>
</event>
<event>
 4    1  0.2482334E-008  0.2284932E+04  0.7816531E-02  0.8483886E-01
         -2   -1    0    0    0  501 -0.00000000000E+00  0.00000000000E+00  0.64954447365E+03  0.64954447365E+03  0.00000000000E+00 0. -1.
          2   -1    0    0  501    0  0.00000000000E+00 -0.00000000000E+00 -0.20094522477E+04  0.20094522477E+04  0.00000000000E+00 0.  1.
    2000013    1    1    2    0    0 -0.37908401639E+03  0.50868197180E+03 -0.69895347279E+03  0.13392154409E+04  0.95000000000E+03 0.  0.
   -2000013    1    1    2    0    0  0.37908401639E+03 -0.50868197180E+03 -0.66095430124E+03  0.13197812805E+04  0.95000000000E+03 0.  0.
<mgrwt>
<rscale>  0 0.22849320E+04</rscale>
<asrwt>0</asrwt>
<pdfrwt beam="2">  1        2 0.30914650E+00 0.22849320E+04</pdfrwt>
<pdfrwt beam="1">  1       -2 0.99929920E-01 0.22849320E+04</pdfrwt>
<totfact> 0.49571319E+00</totfact>
</mgrwt>
</event>
<event>
 4    1  0.2482334E-008  0.2168343E+04  0.7816531E-02  0.8531721E-01
         -2   -1    0    0    0  501 -0.00000000000E+00  0.00000000000E+00  0.53682022886E+03  0.53682022886E+03  0.00000000000E+00 0. -1.
          2   -1    0    0  501    0  0.00000000000E+00 -0.00000000000E+00 -0.21896114909E+04  0.21896114909E+04  0.00000000000E+00 0.  1.
    2000013    1    1    2    0    0  0.48380872628E+03  0.18979602101E+03 -0.75945469947E+03  0.13226355710E+04  0.95000000000E+03 0.  0.
   -2000013    1    1    2    0    0 -0.48380872628E+03 -0.18979602101E+03 -0.89333656260E+03  0.14037961488E+04  0.95000000000E+03 0.  0.
<mgrwt>
<rscale>  0 0.21683429E+04</rscale>
<asrwt>0</asrwt>
<pdfrwt beam="2">  1        2 0.33686331E+00 0.21683429E+04</pdfrwt>
<pdfrwt beam="1">  1       -2 0.82587728E-01 0.21683429E+04</pdfrwt>
<totfact> 0.61692852E+00</totfact>
</mgrwt>
</event>
<event>
 4    1  0.2482334E-008  0.2525070E+04  0.7816531E-02  0.8394108E-01
         -2   -1    0    0    0  501 -0.00000000000E+00  0.00000000000E+00  0.78457512776E+03  0.78457512776E+03  0.00000000000E+00 0. -1.
          2   -1    0    0  501    0  0.00000000000E+00 -0.00000000000E+00 -0.20316662796E+04  0.20316662796E+04  0.00000000000E+00 0.  1.
    2000013    1    1    2    0    0 -0.44131680367E+03  0.38289948726E+03 -0.12834884005E+04  0.17003573192E+04  0.95000000000E+03 0.  0.
   -2000013    1    1    2    0    0  0.44131680367E+03 -0.38289948726E+03  0.36397248700E+02  0.11158840882E+04  0.95000000000E+03 0.  0.
<mgrwt>
<rscale>  0 0.25250702E+04</rscale>
<asrwt>0</asrwt>
<pdfrwt beam="2">  1        2 0.31256403E+00 0.25250702E+04</pdfrwt>
<pdfrwt beam="1">  1       -2 0.12070387E+00 0.25250702E+04</pdfrwt>
<totfact> 0.29881143E+00</totfact>
</mgrwt>
</event>
<event>
 4    1  0.2482334E-008  0.2118259E+04  0.7816531E-02  0.8553243E-01
         -2   -1    0    0    0  501 -0.00000000000E+00  0.00000000000E+00  0.11072069952E+04  0.11072069952E+04  0.00000000000E+00 0. -1.
          2   -1    0    0  501    0  0.00000000000E+00 -0.00000000000E+00 -0.10131394346E+04  0.10131394346E+04  0.00000000000E+00 0.  1.
    2000013    1    1    2    0    0  0.25611403934E+03  0.32367984211E+03  0.26836711749E+03  0.10699925005E+04  0.95000000000E+03 0.  0.
   -2000013    1    1    2    0    0 -0.25611403934E+03 -0.32367984211E+03 -0.17429955686E+03  0.10503539293E+04  0.95000000000E+03 0.  0.
<mgrwt>
<rscale>  0 0.21182588E+04</rscale>
<asrwt>0</asrwt>
<pdfrwt beam="2">  1        2 0.15586761E+00 0.21182588E+04</pdfrwt>
<pdfrwt beam="1">  1       -2 0.17033954E+00 0.21182588E+04</pdfrwt>
<totfact> 0.48172938E+00</totfact>
</mgrwt>
</event>
<event>
 4    1  0.2482334E-008  0.2509783E+04  0.7816531E-02  0.8399509E-01
          2   -1    0    0  501    0  0.00000000000E+00  0.00000000000E+00  0.16900969823E+04  0.16900969823E+04  0.00000000000E+00 0.  1.
         -2   -1    0    0    0  501 -0.00000000000E+00 -0.00000000000E+00 -0.93175259778E+03  0.93175259778E+03  0.00000000000E+00 0. -1.
    2000013    1    1    2    0    0  0.66949491133E+03  0.44228226171E+03  0.55526724568E+03  0.13618585644E+04  0.95000000000E+03 0.  0.
   -2000013    1    1    2    0    0 -0.66949491133E+03 -0.44228226171E+03  0.20307713886E+03  0.12599910157E+04  0.95000000000E+03 0.  0.
<mgrwt>
<rscale>  0 0.25097827E+04</rscale>
<asrwt>0</asrwt>
<pdfrwt beam="1">  1        2 0.26001492E+00 0.25097827E+04</pdfrwt>
<pdfrwt beam="2">  1       -2 0.14334655E+00 0.25097827E+04</pdfrwt>
<totfact> 0.29893891E+00</totfact>
</mgrwt>
</event>
<event>
 4    1  0.2482334E-008  0.2601484E+04  0.7816531E-02  0.8367697E-01
          2   -1    0    0  501    0  0.00000000000E+00  0.00000000000E+00  0.34505978246E+04  0.34505978246E+04  0.00000000000E+00 0. -1.
         -2   -1    0    0    0  501 -0.00000000000E+00 -0.00000000000E+00 -0.49032937242E+03  0.49032937242E+03  0.00000000000E+00 0.  1.
    2000013    1    1    2    0    0  0.25153559950E+03 -0.71853152964E+03  0.21741259320E+04  0.24917626863E+04  0.95000000000E+03 0.  0.
   -2000013    1    1    2    0    0 -0.25153559950E+03  0.71853152964E+03  0.78614252018E+03  0.14491645107E+04  0.95000000000E+03 0.  0.
<mgrwt>
<rscale>  0 0.26014838E+04</rscale>
<asrwt>0</asrwt>
<pdfrwt beam="1">  1        2 0.53086119E+00 0.26014838E+04</pdfrwt>
<pdfrwt beam="2">  1       -2 0.75435290E-01 0.26014838E+04</pdfrwt>
<totfact> 0.12276683E+00</totfact>
</mgrwt>
</event>
<event>
 4    1  0.2482334E-008  0.3740171E+04  0.7816531E-02  0.8059117E-01
         -2   -1    0    0    0  501 -0.00000000000E+00  0.00000000000E+00  0.19173570417E+04  0.19173570417E+04  0.00000000000E+00 0. -1.
          2   -1    0    0  501    0  0.00000000000E+00 -0.00000000000E+00 -0.18239792556E+04  0.18239792556E+04  0.00000000000E+00 0.  1.
    2000013    1    1    2    0    0  0.15592666907E+04  0.39158558132E+03 -0.53679750705E+02  0.18681631074E+04  0.95000000000E+03 0.  0.
   -2000013    1    1    2    0    0 -0.15592666907E+04 -0.39158558132E+03  0.14705753684E+03  0.18731731899E+04  0.95000000000E+03 0.  0.
<mgrwt>
<rscale>  0 0.37401708E+04</rscale>
<asrwt>0</asrwt>
<pdfrwt beam="2">  1        2 0.28061219E+00 0.37401708E+04</pdfrwt>
<pdfrwt beam="1">  1       -2 0.29497801E+00 0.37401708E+04</pdfrwt>
<totfact> 0.23001835E-01</totfact>
</mgrwt>
</event>
<event>
 4    1  0.2482334E-008  0.2828416E+04  0.7816531E-02  0.8294500E-01
          2   -1    0    0  501    0  0.00000000000E+00  0.00000000000E+00  0.21064459583E+04  0.21064459583E+04  0.00000000000E+00 0.  1.
         -2   -1    0    0    0  501 -0.00000000000E+00 -0.00000000000E+00 -0.94945891783E+03  0.94945891783E+03  0.00000000000E+00 0. -1.
    2000013    1    1    2    0    0  0.15501439289E+03 -0.63257077111E+03 -0.30805740088E+03  0.11922980352E+04  0.95000000000E+03 0.  0.
   -2000013    1    1    2    0    0 -0.15501439289E+03  0.63257077111E+03  0.14650444413E+04  0.18636068409E+04  0.95000000000E+03 0.  0.
<mgrwt>
<rscale>  0 0.28284157E+04</rscale>
<asrwt>0</asrwt>
<pdfrwt beam="1">  1        2 0.32406861E+00 0.28284157E+04</pdfrwt>
<pdfrwt beam="2">  1       -2 0.14607060E+00 0.28284157E+04</pdfrwt>
<totfact> 0.16259351E+00</totfact>
</mgrwt>
</event>
<event>
 4    1  0.2482334E-008  0.3121085E+04  0.7816531E-02  0.8209975E-01
         -2   -1    0    0    0  501 -0.00000000000E+00  0.00000000000E+00  0.76697150113E+03  0.76697150113E+03  0.00000000000E+00 0. -1.
          2   -1    0    0  501    0  0.00000000000E+00 -0.00000000000E+00 -0.31752072864E+04  0.31752072864E+04  0.00000000000E+00 0.  1.
    2000013    1    1    2    0    0 -0.76885721248E+03 -0.90195296981E+03 -0.75199027304E+03  0.16948893603E+04  0.95000000000E+03 0.  0.
   -2000013    1    1    2    0    0  0.76885721248E+03  0.90195296981E+03 -0.16562455123E+04  0.22472894272E+04  0.95000000000E+03 0.  0.
<mgrwt>
<rscale>  0 0.31210854E+04</rscale>
<asrwt>0</asrwt>
<pdfrwt beam="2">  1        2 0.48849344E+00 0.31210854E+04</pdfrwt>
<pdfrwt beam="1">  1       -2 0.11799561E+00 0.31210854E+04</pdfrwt>
<totfact> 0.63101742E-01</totfact>
</mgrwt>
</event>
<event>
 4    1  0.2482334E-008  0.3073535E+04  0.7816531E-02  0.8223039E-01
         -2   -1    0    0    0  501 -0.00000000000E+00  0.00000000000E+00  0.16709327967E+04  0.16709327967E+04  0.00000000000E+00 0. -1.
          2   -1    0    0  501    0  0.00000000000E+00 -0.00000000000E+00 -0.14133747244E+04  0.14133747244E+04  0.00000000000E+00 0.  1.
    2000013    1    1    2    0    0  0.83236857121E+03 -0.87415082794E+03  0.17560168683E+03  0.15460637311E+04  0.95000000000E+03 0.  0.
   -2000013    1    1    2    0    0 -0.83236857121E+03  0.87415082794E+03  0.81956385413E+02  0.15382437900E+04  0.95000000000E+03 0.  0.
<mgrwt>
<rscale>  0 0.30735349E+04</rscale>
<asrwt>0</asrwt>
<pdfrwt beam="2">  1        2 0.21744226E+00 0.30735349E+04</pdfrwt>
<pdfrwt beam="1">  1       -2 0.25706658E+00 0.30735349E+04</pdfrwt>
<totfact> 0.70346327E-01</totfact>
</mgrwt>
</event>
<event>
 4    1  0.2482334E-008  0.2241374E+04  0.7816531E-02  0.8501402E-01
         -2   -1    0    0    0  501 -0.00000000000E+00  0.00000000000E+00  0.61833256546E+03  0.61833256546E+03  0.00000000000E+00 0. -1.
          2   -1    0    0  501    0  0.00000000000E+00 -0.00000000000E+00 -0.20311720381E+04  0.20311720381E+04  0.00000000000E+00 0.  1.
    2000013    1    1    2    0    0 -0.41818786317E+03 -0.36045781186E+03 -0.96709358556E+03  0.14637557605E+04  0.95000000000E+03 0.  0.
   -2000013    1    1    2    0    0  0.41818786317E+03  0.36045781186E+03 -0.44574588705E+03  0.11857488431E+04  0.95000000000E+03 0.  0.
<mgrwt>
<rscale>  0 0.22413744E+04</rscale>
<asrwt>0</asrwt>
<pdfrwt beam="2">  1        2 0.31248801E+00 0.22413744E+04</pdfrwt>
<pdfrwt beam="1">  1       -2 0.95128087E-01 0.22413744E+04</pdfrwt>
<totfact> 0.54325192E+00</totfact>
</mgrwt>
</event>
<event>
 4    1  0.2482334E-008  0.2091452E+04  0.7816531E-02  0.8565018E-01
         -2   -1    0    0    0  501 -0.00000000000E+00  0.00000000000E+00  0.11654604732E+04  0.11654604732E+04  0.00000000000E+00 0. -1.
          2   -1    0    0  501    0  0.00000000000E+00 -0.00000000000E+00 -0.93829262733E+03  0.93829262733E+03  0.00000000000E+00 0.  1.
    2000013    1    1    2    0    0  0.20996088383E+03 -0.30960820322E+03  0.34097135842E+03  0.10764303412E+04  0.95000000000E+03 0.  0.
   -2000013    1    1    2    0    0 -0.20996088383E+03  0.30960820322E+03 -0.11380351258E+03  0.10273227593E+04  0.95000000000E+03 0.  0.
<mgrwt>
<rscale>  0 0.20914521E+04</rscale>
<asrwt>0</asrwt>
<pdfrwt beam="2">  1        2 0.14435271E+00 0.20914521E+04</pdfrwt>
<pdfrwt beam="1">  1       -2 0.17930161E+00 0.20914521E+04</pdfrwt>
<totfact> 0.46720218E+00</totfact>
</mgrwt>
</event>
<event>
 4    1  0.2482334E-008  0.3083150E+04  0.7816531E-02  0.8220378E-01
         -2   -1    0    0    0  501 -0.00000000000E+00  0.00000000000E+00  0.13181497645E+04  0.13181497645E+04  0.00000000000E+00 0. -1.
          2   -1    0    0  501    0  0.00000000000E+00 -0.00000000000E+00 -0.18028704410E+04  0.18028704410E+04  0.00000000000E+00 0.  1.
    2000013    1    1    2    0    0 -0.11608182879E+04 -0.31475514251E+03 -0.74848603506E+02  0.15344941221E+04  0.95000000000E+03 0.  0.
   -2000013    1    1    2    0    0  0.11608182879E+04  0.31475514251E+03 -0.40987207299E+03  0.15865260835E+04  0.95000000000E+03 0.  0.
<mgrwt>
<rscale>  0 0.30831498E+04</rscale>
<asrwt>0</asrwt>
<pdfrwt beam="2">  1        2 0.27736468E+00 0.30831498E+04</pdfrwt>
<pdfrwt beam="1">  1       -2 0.20279227E+00 0.30831498E+04</pdfrwt>
<totfact> 0.93213233E-01</totfact>
</mgrwt>
</event>
<event>
 4    1  0.2482334E-008  0.2513071E+04  0.7816531E-02  0.8398344E-01
          2   -1    0    0  501    0  0.00000000000E+00  0.00000000000E+00  0.92391808545E+03  0.92391808545E+03  0.00000000000E+00 0.  1.
         -2   -1    0    0    0  501 -0.00000000000E+00 -0.00000000000E+00 -0.17088980931E+04  0.17088980931E+04  0.00000000000E+00 0. -1.
    2000013    1    1    2    0    0  0.36764307709E+02 -0.64728662238E+03  0.13763506694E+03  0.11583501187E+04  0.95000000000E+03 0.  0.
   -2000013    1    1    2    0    0 -0.36764307709E+02  0.64728662238E+03 -0.92261507462E+03  0.14744660599E+04  0.95000000000E+03 0.  0.
<mgrwt>
<rscale>  0 0.25130713E+04</rscale>
<asrwt>0</asrwt>
<pdfrwt beam="1">  1        2 0.14214124E+00 0.25130713E+04</pdfrwt>
<pdfrwt beam="2">  1       -2 0.26290740E+00 0.25130713E+04</pdfrwt>
<totfact> 0.13479916E+00</totfact>
</mgrwt>
</event>
<event>
 4    1  0.2482334E-008  0.2332934E+04  0.7816531E-02  0.8465048E-01
          2   -1    0    0  501    0  0.00000000000E+00  0.00000000000E+00  0.17466711625E+04  0.17466711625E+04  0.00000000000E+00 0.  1.
         -2   -1    0    0    0  501 -0.00000000000E+00 -0.00000000000E+00 -0.77899332881E+03  0.77899332881E+03  0.00000000000E+00 0. -1.
    2000013    1    1    2    0    0 -0.51697001184E+03 -0.41359751438E+03  0.33140837342E+03  0.12044303247E+04  0.95000000000E+03 0.  0.
   -2000013    1    1    2    0    0  0.51697001184E+03  0.41359751438E+03  0.63626946029E+03  0.13212341667E+04  0.95000000000E+03 0.  0.
<mgrwt>
<rscale>  0 0.23329339E+04</rscale>
<asrwt>0</asrwt>
<pdfrwt beam="1">  1        2 0.26871864E+00 0.23329339E+04</pdfrwt>
<pdfrwt beam="2">  1       -2 0.11984513E+00 0.23329339E+04</pdfrwt>
<totfact> 0.44500135E+00</totfact>
</mgrwt>
</event>
<event>
 4    1  0.2482334E-008  0.2575999E+04  0.7816531E-02  0.8376400E-01
          2   -1    0    0  501    0  0.00000000000E+00  0.00000000000E+00  0.17084090625E+04  0.17084090625E+04  0.00000000000E+00 0.  1.
         -2   -1    0    0    0  501 -0.00000000000E+00 -0.00000000000E+00 -0.97104531242E+03  0.97104531242E+03  0.00000000000E+00 0. -1.
    2000013    1    1    2    0    0  0.79415403745E+03  0.34837824192E+03  0.29972791064E+03  0.13207516250E+04  0.95000000000E+03 0.  0.
   -2000013    1    1    2    0    0 -0.79415403745E+03 -0.34837824192E+03  0.43763583947E+03  0.13587027499E+04  0.95000000000E+03 0.  0.
<mgrwt>
<rscale>  0 0.25759989E+04</rscale>
<asrwt>0</asrwt>
<pdfrwt beam="1">  1        2 0.26283216E+00 0.25759989E+04</pdfrwt>
<pdfrwt beam="2">  1       -2 0.14939159E+00 0.25759989E+04</pdfrwt>
<totfact> 0.26046945E+00</totfact>
</mgrwt>
</event>
<event>
 4    1  0.2482334E-008  0.2491131E+04  0.7816531E-02  0.8406152E-01
          2   -1    0    0  501    0  0.00000000000E+00  0.00000000000E+00  0.31983389604E+04  0.31983389604E+04  0.00000000000E+00 0.  1.
         -2   -1    0    0    0  501 -0.00000000000E+00 -0.00000000000E+00 -0.48507454483E+03  0.48507454483E+03  0.00000000000E+00 0. -1.
    2000013    1    1    2    0    0 -0.57711940215E+03  0.38690264684E+03  0.19593768776E+04  0.22856986264E+04  0.95000000000E+03 0.  0.
   -2000013    1    1    2    0    0  0.57711940215E+03 -0.38690264684E+03  0.75388753800E+03  0.13977148788E+04  0.95000000000E+03 0.  0.
<mgrwt>
<rscale>  0 0.24911305E+04</rscale>
<asrwt>0</asrwt>
<pdfrwt beam="1">  1        2 0.49205214E+00 0.24911305E+04</pdfrwt>
<pdfrwt beam="2">  1       -2 0.74626855E-01 0.24911305E+04</pdfrwt>
<totfact> 0.18744043E+00</totfact>
</mgrwt>
</event>
<event>
 4    1  0.2482334E-008  0.2405398E+04  0.7816531E-02  0.8437485E-01
          1   -1    0    0  501    0  0.00000000000E+00  0.00000000000E+00  0.78428048048E+03  0.78428048048E+03  0.00000000000E+00 0.  1.
         -1   -1    0    0    0  501 -0.00000000000E+00 -0.00000000000E+00 -0.18443470061E+04  0.18443470061E+04  0.00000000000E+00 0. -1.
    2000013    1    1    2    0    0  0.62319964998E+03 -0.11160760042E+03 -0.94349913705E+03  0.14810552595E+04  0.95000000000E+03 0.  0.
   -2000013    1    1    2    0    0 -0.62319964998E+03  0.11160760042E+03 -0.11656738857E+03  0.11475722270E+04  0.95000000000E+03 0.  0.
<mgrwt>
<rscale>  0 0.24053984E+04</rscale>
<asrwt>0</asrwt>
<pdfrwt beam="1">  1        1 0.12065854E+00 0.24053984E+04</pdfrwt>
<pdfrwt beam="2">  1       -1 0.28374569E+00 0.24053984E+04</pdfrwt>
<totfact> 0.86051999E-01</totfact>
</mgrwt>
</event>
<event>
 4    1  0.2482334E-008  0.2125451E+04  0.7816531E-02  0.8550114E-01
         -2   -1    0    0    0  501 -0.00000000000E+00  0.00000000000E+00  0.94839542526E+03  0.94839542526E+03  0.00000000000E+00 0. -1.
          2   -1    0    0  501    0  0.00000000000E+00 -0.00000000000E+00 -0.11908381684E+04  0.11908381684E+04  0.00000000000E+00 0.  1.
    2000013    1    1    2    0    0  0.30472402384E+03 -0.22364450089E+03 -0.41294893289E+03  0.11026787450E+04  0.95000000000E+03 0.  0.
   -2000013    1    1    2    0    0 -0.30472402384E+03  0.22364450089E+03  0.17050618978E+03  0.10365548486E+04  0.95000000000E+03 0.  0.
<mgrwt>
<rscale>  0 0.21254510E+04</rscale>
<asrwt>0</asrwt>
<pdfrwt beam="2">  1        2 0.18320587E+00 0.21254510E+04</pdfrwt>
<pdfrwt beam="1">  1       -2 0.14590699E+00 0.21254510E+04</pdfrwt>
<totfact> 0.56868161E+00</totfact>
</mgrwt>
</event>
<event>
 4    1  0.2482334E-008  0.2306913E+04  0.7816531E-02  0.8475200E-01
          2   -1    0    0  501    0  0.00000000000E+00  0.00000000000E+00  0.25460798420E+04  0.25460798420E+04  0.00000000000E+00 0.  1.
         -2   -1    0    0    0  501 -0.00000000000E+00 -0.00000000000E+00 -0.52255319045E+03  0.52255319045E+03  0.00000000000E+00 0. -1.
    2000013    1    1    2    0    0  0.38085206372E+02  0.64761643852E+03  0.89964313551E+03  0.14603819040E+04  0.95000000000E+03 0.  0.
   -2000013    1    1    2    0    0 -0.38085206372E+02 -0.64761643852E+03  0.11238835160E+04  0.16082511284E+04  0.95000000000E+03 0.  0.
<mgrwt>
<rscale>  0 0.23069132E+04</rscale>
<asrwt>0</asrwt>
<pdfrwt beam="1">  1        2 0.39170458E+00 0.23069132E+04</pdfrwt>
<pdfrwt beam="2">  1       -2 0.80392800E-01 0.23069132E+04</pdfrwt>
<totfact> 0.40541519E+00</totfact>
</mgrwt>
</event>
<event>
 4    1  0.2482334E-008  0.1998711E+04  0.7816531E-02  0.8607223E-01
         -2   -1    0    0    0  501 -0.00000000000E+00  0.00000000000E+00  0.16118102090E+04  0.16118102090E+04  0.00000000000E+00 0. -1.
          2   -1    0    0  501    0  0.00000000000E+00 -0.00000000000E+00 -0.61962105592E+03  0.61962105592E+03  0.00000000000E+00 0.  1.
    2000013    1    1    2    0    0 -0.25235153143E+03 -0.12138418693E+03  0.64502939361E+03  0.11819383803E+04  0.95000000000E+03 0.  0.
   -2000013    1    1    2    0    0  0.25235153143E+03  0.12138418693E+03  0.34715975948E+03  0.10494928846E+04  0.95000000000E+03 0.  0.
<mgrwt>
<rscale>  0 0.19987111E+04</rscale>
<asrwt>0</asrwt>
<pdfrwt beam="2">  1        2 0.95326317E-01 0.19987111E+04</pdfrwt>
<pdfrwt beam="1">  1       -2 0.24797080E+00 0.19987111E+04</pdfrwt>
<totfact> 0.29300985E+00</totfact>
</mgrwt>
</event>
<event>
 4    1  0.2482334E-008  0.3077097E+04  0.7816531E-02  0.8222052E-01
         -2   -1    0    0    0  501 -0.00000000000E+00  0.00000000000E+00  0.20341740990E+04  0.20341740990E+04  0.00000000000E+00 0. -1.
          2   -1    0    0  501    0  0.00000000000E+00 -0.00000000000E+00 -0.11636814763E+04  0.11636814763E+04  0.00000000000E+00 0.  1.
    2000013    1    1    2    0    0 -0.11737498512E+04  0.13129507484E+03  0.16087079147E+03  0.15242396536E+04  0.95000000000E+03 0.  0.
   -2000013    1    1    2    0    0  0.11737498512E+04 -0.13129507484E+03  0.70962183129E+03  0.16736159217E+04  0.95000000000E+03 0.  0.
<mgrwt>
<rscale>  0 0.30770965E+04</rscale>
<asrwt>0</asrwt>
<pdfrwt beam="2">  1        2 0.17902792E+00 0.30770965E+04</pdfrwt>
<pdfrwt beam="1">  1       -2 0.31294986E+00 0.30770965E+04</pdfrwt>
<totfact> 0.44834373E-01</totfact>
</mgrwt>
</event>
<event>
 4    1  0.2482334E-008  0.3273212E+04  0.7816531E-02  0.8169745E-01
          1   -1    0    0  501    0  0.00000000000E+00  0.00000000000E+00  0.19747881381E+04  0.19747881381E+04  0.00000000000E+00 0. -1.
         -1   -1    0    0    0  501 -0.00000000000E+00 -0.00000000000E+00 -0.13563370981E+04  0.13563370981E+04  0.00000000000E+00 0.  1.
    2000013    1    1    2    0    0  0.13091922609E+04 -0.20153503928E+03  0.16042754648E+03  0.16379370396E+04  0.95000000000E+03 0.  0.
   -2000013    1    1    2    0    0 -0.13091922609E+04  0.20153503928E+03  0.45802349351E+03  0.16931881965E+04  0.95000000000E+03 0.  0.
<mgrwt>
<rscale>  0 0.32732115E+04</rscale>
<asrwt>0</asrwt>
<pdfrwt beam="1">  1        1 0.30381356E+00 0.32732115E+04</pdfrwt>
<pdfrwt beam="2">  1       -1 0.20866725E+00 0.32732115E+04</pdfrwt>
<totfact> 0.33835462E-01</totfact>
</mgrwt>
</event>
<event>
 4    1  0.2482334E-008  0.2719878E+04  0.7816531E-02  0.8328584E-01
          2   -1    0    0  501    0  0.00000000000E+00  0.00000000000E+00  0.20573736464E+04  0.20573736464E+04  0.00000000000E+00 0.  1.
         -2   -1    0    0    0  501 -0.00000000000E+00 -0.00000000000E+00 -0.89892967335E+03  0.89892967335E+03  0.00000000000E+00 0. -1.
    2000013    1    1    2    0    0  0.12022882770E+03 -0.86962079338E+03  0.10355219856E+04  0.16569553639E+04  0.95000000000E+03 0.  0.
   -2000013    1    1    2    0    0 -0.12022882770E+03  0.86962079338E+03  0.12292198740E+03  0.12993479558E+04  0.95000000000E+03 0.  0.
<mgrwt>
<rscale>  0 0.27198781E+04</rscale>
<asrwt>0</asrwt>
<pdfrwt beam="1">  1        2 0.31651902E+00 0.27198781E+04</pdfrwt>
<pdfrwt beam="2">  1       -2 0.13829687E+00 0.27198781E+04</pdfrwt>
<totfact> 0.20157031E+00</totfact>
</mgrwt>
</event>
<event>
 4    1  0.2482334E-008  0.2433267E+04  0.7816531E-02  0.8427153E-01
          2   -1    0    0  501    0  0.00000000000E+00  0.00000000000E+00  0.20586973947E+04  0.20586973947E+04  0.00000000000E+00 0.  1.
         -2   -1    0    0    0  501 -0.00000000000E+00 -0.00000000000E+00 -0.71899687216E+03  0.71899687216E+03  0.00000000000E+00 0. -1.
    2000013    1    1    2    0    0  0.15247668639E+03  0.27703668763E+03  0.14588405128E+04  0.17693824086E+04  0.95000000000E+03 0.  0.
   -2000013    1    1    2    0    0 -0.15247668639E+03 -0.27703668763E+03 -0.11913999025E+03  0.10083118582E+04  0.95000000000E+03 0.  0.
<mgrwt>
<rscale>  0 0.24332669E+04</rscale>
<asrwt>0</asrwt>
<pdfrwt beam="1">  1        2 0.31672267E+00 0.24332669E+04</pdfrwt>
<pdfrwt beam="2">  1       -2 0.11061490E+00 0.24332669E+04</pdfrwt>
<totfact> 0.36017399E+00</totfact>
</mgrwt>
</event>
<event>
 4    1  0.2482334E-008  0.3074103E+04  0.7816531E-02  0.8222881E-01
         -2   -1    0    0    0  501 -0.00000000000E+00  0.00000000000E+00  0.83413873618E+03  0.83413873618E+03  0.00000000000E+00 0. -1.
          2   -1    0    0  501    0  0.00000000000E+00 -0.00000000000E+00 -0.28322954168E+04  0.28322954168E+04  0.00000000000E+00 0.  1.
    2000013    1    1    2    0    0  0.97868952483E+03  0.60669482510E+03 -0.14358606070E+04  0.20712574633E+04  0.95000000000E+03 0.  0.
   -2000013    1    1    2    0    0 -0.97868952483E+03 -0.60669482510E+03 -0.56229607370E+03  0.15951766897E+04  0.95000000000E+03 0.  0.
<mgrwt>
<rscale>  0 0.30741030E+04</rscale>
<asrwt>0</asrwt>
<pdfrwt beam="2">  1        2 0.43573775E+00 0.30741030E+04</pdfrwt>
<pdfrwt beam="1">  1       -2 0.12832904E+00 0.30741030E+04</pdfrwt>
<totfact> 0.84350876E-01</totfact>
</mgrwt>
</event>
<event>
 4    1  0.2482334E-008  0.2750877E+04  0.7816531E-02  0.8318684E-01
         -2   -1    0    0    0  501 -0.00000000000E+00  0.00000000000E+00  0.86012567673E+03  0.86012567673E+03  0.00000000000E+00 0. -1.
          2   -1    0    0  501    0  0.00000000000E+00 -0.00000000000E+00 -0.21994816372E+04  0.21994816372E+04  0.00000000000E+00 0.  1.
    2000013    1    1    2    0    0  0.83307705201E+03  0.37453345598E+03 -0.11076169307E+04  0.17215132731E+04  0.95000000000E+03 0.  0.
   -2000013    1    1    2    0    0 -0.83307705201E+03 -0.37453345598E+03 -0.23173902975E+03  0.13380940408E+04  0.95000000000E+03 0.  0.
<mgrwt>
<rscale>  0 0.27508767E+04</rscale>
<asrwt>0</asrwt>
<pdfrwt beam="2">  1        2 0.33838179E+00 0.27508767E+04</pdfrwt>
<pdfrwt beam="1">  1       -2 0.13232703E+00 0.27508767E+04</pdfrwt>
<totfact> 0.18741276E+00</totfact>
</mgrwt>
</event>
<event>
 4    1  0.2482334E-008  0.2560452E+04  0.7816531E-02  0.8381760E-01
         -2   -1    0    0    0  501 -0.00000000000E+00  0.00000000000E+00  0.34993740955E+04  0.34993740955E+04  0.00000000000E+00 0. -1.
          2   -1    0    0  501    0  0.00000000000E+00 -0.00000000000E+00 -0.46836351163E+03  0.46836351163E+03  0.00000000000E+00 0.  1.
    2000013    1    1    2    0    0 -0.61045855397E+03 -0.60021047634E+03  0.14229565855E+04  0.19131695446E+04  0.95000000000E+03 0.  0.
   -2000013    1    1    2    0    0  0.61045855397E+03  0.60021047634E+03  0.16080539983E+04  0.20545680625E+04  0.95000000000E+03 0.  0.
<mgrwt>
<rscale>  0 0.25604524E+04</rscale>
<asrwt>0</asrwt>
<pdfrwt beam="2">  1        2 0.72055927E-01 0.25604524E+04</pdfrwt>
<pdfrwt beam="1">  1       -2 0.53836523E+00 0.25604524E+04</pdfrwt>
<totfact> 0.57479123E-02</totfact>
</mgrwt>
</event>
<event>
 4    1  0.2482334E-008  0.2770492E+04  0.7816531E-02  0.8312488E-01
          2   -1    0    0  501    0  0.00000000000E+00  0.00000000000E+00  0.25542690889E+04  0.25542690889E+04  0.00000000000E+00 0. -1.
         -2   -1    0    0    0  501 -0.00000000000E+00 -0.00000000000E+00 -0.75125477326E+03  0.75125477326E+03  0.00000000000E+00 0.  1.
    2000013    1    1    2    0    0  0.81261787757E+03  0.30648793629E+01  0.16134393454E+04  0.20410888588E+04  0.95000000000E+03 0.  0.
   -2000013    1    1    2    0    0 -0.81261787757E+03 -0.30648793629E+01  0.18957497033E+03  0.12644350034E+04  0.95000000000E+03 0.  0.
<mgrwt>
<rscale>  0 0.27704923E+04</rscale>
<asrwt>0</asrwt>
<pdfrwt beam="1">  1        2 0.39296447E+00 0.27704923E+04</pdfrwt>
<pdfrwt beam="2">  1       -2 0.11557766E+00 0.27704923E+04</pdfrwt>
<totfact> 0.16441182E+00</totfact>
</mgrwt>
</event>
<event>
 4    1  0.2482334E-008  0.3320543E+04  0.7816531E-02  0.8157688E-01
         -2   -1    0    0    0  501 -0.00000000000E+00  0.00000000000E+00  0.16604455818E+04  0.16604455818E+04  0.00000000000E+00 0. -1.
          2   -1    0    0  501    0  0.00000000000E+00 -0.00000000000E+00 -0.16600971363E+04  0.16600971363E+04  0.00000000000E+00 0.  1.
    2000013    1    1    2    0    0  0.63762546496E+03  0.87736711902E+03 -0.82302785921E+03  0.16601849753E+04  0.95000000000E+03 0.  0.
   -2000013    1    1    2    0    0 -0.63762546496E+03 -0.87736711902E+03  0.82337630475E+03  0.16603577429E+04  0.95000000000E+03 0.  0.
<mgrwt>
<rscale>  0 0.33205427E+04</rscale>
<asrwt>0</asrwt>
<pdfrwt beam="2">  1        2 0.25539956E+00 0.33205427E+04</pdfrwt>
<pdfrwt beam="1">  1       -2 0.25545317E+00 0.33205427E+04</pdfrwt>
<totfact> 0.51202370E-01</totfact>
</mgrwt>
</event>
<event>
 4    1  0.2482334E-008  0.2683279E+04  0.7816531E-02  0.8340451E-01
          2   -1    0    0  501    0  0.00000000000E+00  0.00000000000E+00  0.24119119448E+04  0.24119119448E+04  0.00000000000E+00 0.  1.
         -2   -1    0    0    0  501 -0.00000000000E+00 -0.00000000000E+00 -0.74629442686E+03  0.74629442686E+03  0.00000000000E+00 0. -1.
    2000013    1    1    2    0    0  0.53215753935E+03 -0.66687905603E+03  0.34812517066E+03  0.13234842109E+04  0.95000000000E+03 0.  0.
   -2000013    1    1    2    0    0 -0.53215753935E+03  0.66687905603E+03  0.13174923473E+04  0.18347221608E+04  0.95000000000E+03 0.  0.
<mgrwt>
<rscale>  0 0.26832789E+04</rscale>
<asrwt>0</asrwt>
<pdfrwt beam="1">  1        2 0.37106337E+00 0.26832789E+04</pdfrwt>
<pdfrwt beam="2">  1       -2 0.11481453E+00 0.26832789E+04</pdfrwt>
<totfact> 0.20347668E+00</totfact>
</mgrwt>
</event>
<event>
 4    1  0.2482334E-008  0.2107107E+04  0.7816531E-02  0.8558119E-01
         -2   -1    0    0    0  501 -0.00000000000E+00  0.00000000000E+00  0.37087943963E+03  0.37087943963E+03  0.00000000000E+00 0. -1.
          2   -1    0    0  501    0  0.00000000000E+00 -0.00000000000E+00 -0.29928190368E+04  0.29928190368E+04  0.00000000000E+00 0.  1.
    2000013    1    1    2    0    0 -0.35654857479E+03  0.28345655492E+03 -0.13121456565E+04  0.16827657973E+04  0.95000000000E+03 0.  0.
   -2000013    1    1    2    0    0  0.35654857479E+03 -0.28345655492E+03 -0.13097939406E+04  0.16809326791E+04  0.95000000000E+03 0.  0.
<mgrwt>
<rscale>  0 0.21071071E+04</rscale>
<asrwt>0</asrwt>
<pdfrwt beam="2">  1        2 0.46043369E+00 0.21071071E+04</pdfrwt>
<pdfrwt beam="1">  1       -2 0.57058376E-01 0.21071071E+04</pdfrwt>
<totfact> 0.46733702E+00</totfact>
</mgrwt>
</event>
<event>
 4    1  0.2482334E-008  0.2802759E+04  0.7816531E-02  0.8302412E-01
          2   -1    0    0  501    0  0.00000000000E+00  0.00000000000E+00  0.96079548729E+03  0.96079548729E+03  0.00000000000E+00 0.  1.
         -2   -1    0    0    0  501 -0.00000000000E+00 -0.00000000000E+00 -0.20439988483E+04  0.20439988483E+04  0.00000000000E+00 0. -1.
    2000013    1    1    2    0    0 -0.26412212168E+03 -0.76184835592E+03 -0.12290673210E+04  0.17502228122E+04  0.95000000000E+03 0.  0.
   -2000013    1    1    2    0    0  0.26412212168E+03  0.76184835592E+03  0.14586396001E+03  0.12545715234E+04  0.95000000000E+03 0.  0.
<mgrwt>
<rscale>  0 0.28027593E+04</rscale>
<asrwt>0</asrwt>
<pdfrwt beam="1">  1        2 0.14781469E+00 0.28027593E+04</pdfrwt>
<pdfrwt beam="2">  1       -2 0.31446135E+00 0.28027593E+04</pdfrwt>
<totfact> 0.60191807E-01</totfact>
</mgrwt>
</event>
<event>
 4    1  0.2482334E-008  0.2887589E+04  0.7816531E-02  0.8276580E-01
         -2   -1    0    0    0  501 -0.00000000000E+00  0.00000000000E+00  0.11346966523E+04  0.11346966523E+04  0.00000000000E+00 0. -1.
          2   -1    0    0  501    0  0.00000000000E+00 -0.00000000000E+00 -0.18370917977E+04  0.18370917977E+04  0.00000000000E+00 0.  1.
    2000013    1    1    2    0    0  0.45387824190E+03 -0.97109251722E+03 -0.53819832024E+03  0.15300926663E+04  0.95000000000E+03 0.  0.
   -2000013    1    1    2    0    0 -0.45387824190E+03  0.97109251722E+03 -0.16419682523E+03  0.14416957837E+04  0.95000000000E+03 0.  0.
<mgrwt>
<rscale>  0 0.28875886E+04</rscale>
<asrwt>0</asrwt>
<pdfrwt beam="2">  1        2 0.28262950E+00 0.28875886E+04</pdfrwt>
<pdfrwt beam="1">  1       -2 0.17456872E+00 0.28875886E+04</pdfrwt>
<totfact> 0.14068519E+00</totfact>
</mgrwt>
</event>
<event>
 4    1  0.2482334E-008  0.2744635E+04  0.7816531E-02  0.8320666E-01
         -2   -1    0    0    0  501 -0.00000000000E+00  0.00000000000E+00  0.11590451009E+04  0.11590451009E+04  0.00000000000E+00 0. -1.
          2   -1    0    0  501    0  0.00000000000E+00 -0.00000000000E+00 -0.16248335173E+04  0.16248335173E+04  0.00000000000E+00 0.  1.
    2000013    1    1    2    0    0 -0.19987564511E+03 -0.66919076626E+03 -0.94506508816E+03  0.15110971431E+04  0.95000000000E+03 0.  0.
   -2000013    1    1    2    0    0  0.19987564511E+03  0.66919076626E+03  0.47927667171E+03  0.12727814750E+04  0.95000000000E+03 0.  0.
<mgrwt>
<rscale>  0 0.27446350E+04</rscale>
<asrwt>0</asrwt>
<pdfrwt beam="2">  1        2 0.24997439E+00 0.27446350E+04</pdfrwt>
<pdfrwt beam="1">  1       -2 0.17831463E+00 0.27446350E+04</pdfrwt>
<totfact> 0.17588806E+00</totfact>
</mgrwt>
</event>
<event>
 4    1  0.2482334E-008  0.2127641E+04  0.7816531E-02  0.8549164E-01
         -2   -1    0    0    0  501 -0.00000000000E+00  0.00000000000E+00  0.50591077530E+03  0.50591077530E+03  0.00000000000E+00 0. -1.
          2   -1    0    0  501    0  0.00000000000E+00 -0.00000000000E+00 -0.22369832957E+04  0.22369832957E+04  0.00000000000E+00 0.  1.
    2000013    1    1    2    0    0 -0.11476196419E+01 -0.31693887290E+03 -0.40293670083E+03  0.10794950445E+04  0.95000000000E+03 0.  0.
   -2000013    1    1    2    0    0  0.11476196419E+01  0.31693887290E+03 -0.13281358196E+04  0.16633990265E+04  0.95000000000E+03 0.  0.
<mgrwt>
<rscale>  0 0.21276409E+04</rscale>
<asrwt>0</asrwt>
<pdfrwt beam="2">  1        2 0.34415128E+00 0.21276409E+04</pdfrwt>
<pdfrwt beam="1">  1       -2 0.77832427E-01 0.21276409E+04</pdfrwt>
<totfact> 0.66528924E+00</totfact>
</mgrwt>
</event>
<event>
 4    1  0.2482334E-008  0.2224435E+04  0.7816531E-02  0.8508326E-01
         -2   -1    0    0    0  501 -0.00000000000E+00  0.00000000000E+00  0.57613388379E+03  0.57613388379E+03  0.00000000000E+00 0. -1.
          2   -1    0    0  501    0  0.00000000000E+00 -0.00000000000E+00 -0.21471183324E+04  0.21471183324E+04  0.00000000000E+00 0.  1.
    2000013    1    1    2    0    0 -0.30860899507E+03  0.29172328571E+03 -0.12662099432E+04  0.16389416120E+04  0.95000000000E+03 0.  0.
   -2000013    1    1    2    0    0  0.30860899507E+03 -0.29172328571E+03 -0.30477450546E+03  0.10843106042E+04  0.95000000000E+03 0.  0.
<mgrwt>
<rscale>  0 0.22244349E+04</rscale>
<asrwt>0</asrwt>
<pdfrwt beam="2">  1        2 0.33032590E+00 0.22244349E+04</pdfrwt>
<pdfrwt beam="1">  1       -2 0.88635981E-01 0.22244349E+04</pdfrwt>
<totfact> 0.55209386E+00</totfact>
</mgrwt>
</event>
<event>
 4    1  0.2482334E-008  0.3357827E+04  0.7816531E-02  0.8148335E-01
          2   -1    0    0  501    0  0.00000000000E+00  0.00000000000E+00  0.16178776843E+04  0.16178776843E+04  0.00000000000E+00 0.  1.
         -2   -1    0    0    0  501 -0.00000000000E+00 -0.00000000000E+00 -0.17422516075E+04  0.17422516075E+04  0.00000000000E+00 0. -1.
    2000013    1    1    2    0    0 -0.71381157462E+03  0.10738700309E+04 -0.56604608583E+03  0.16987148020E+04  0.95000000000E+03 0.  0.
   -2000013    1    1    2    0    0  0.71381157462E+03 -0.10738700309E+04  0.44167216266E+03  0.16614144897E+04  0.95000000000E+03 0.  0.
<mgrwt>
<rscale>  0 0.33578267E+04</rscale>
<asrwt>0</asrwt>
<pdfrwt beam="1">  1        2 0.24890426E+00 0.33578267E+04</pdfrwt>
<pdfrwt beam="2">  1       -2 0.26803871E+00 0.33578267E+04</pdfrwt>
<totfact> 0.45136289E-01</totfact>
</mgrwt>
</event>
<event>
 4    1  0.2482334E-008  0.3670184E+04  0.7816531E-02  0.8074602E-01
         -2   -1    0    0    0  501 -0.00000000000E+00  0.00000000000E+00  0.11079603837E+04  0.11079603837E+04  0.00000000000E+00 0. -1.
          2   -1    0    0  501    0  0.00000000000E+00 -0.00000000000E+00 -0.30394244693E+04  0.30394244693E+04  0.00000000000E+00 0.  1.
    2000013    1    1    2    0    0  0.25135670522E+03  0.15210515904E+04 -0.62997357352E+03  0.19173275248E+04  0.95000000000E+03 0.  0.
   -2000013    1    1    2    0    0 -0.25135670522E+03 -0.15210515904E+04 -0.13014905121E+04  0.22300573282E+04  0.95000000000E+03 0.  0.
<mgrwt>
<rscale>  0 0.36701836E+04</rscale>
<asrwt>0</asrwt>
<pdfrwt beam="2">  1        2 0.46760377E+00 0.36701836E+04</pdfrwt>
<pdfrwt beam="1">  1       -2 0.17045544E+00 0.36701836E+04</pdfrwt>
<totfact> 0.28169731E-01</totfact>
</mgrwt>
</event>
<event>
 4    1  0.2482334E-008  0.2759491E+04  0.7816531E-02  0.8315956E-01
          2   -1    0    0  501    0  0.00000000000E+00  0.00000000000E+00  0.88397472240E+03  0.88397472240E+03  0.00000000000E+00 0.  1.
         -2   -1    0    0    0  501 -0.00000000000E+00 -0.00000000000E+00 -0.21535658884E+04  0.21535658884E+04  0.00000000000E+00 0. -1.
    2000013    1    1    2    0    0 -0.89988127191E+03 -0.10508016399E+03 -0.16730287568E+03  0.13233738688E+04  0.95000000000E+03 0.  0.
   -2000013    1    1    2    0    0  0.89988127191E+03  0.10508016399E+03 -0.11022882903E+04  0.17141667420E+04  0.95000000000E+03 0.  0.
<mgrwt>
<rscale>  0 0.27594911E+04</rscale>
<asrwt>0</asrwt>
<pdfrwt beam="1">  1        2 0.13599611E+00 0.27594911E+04</pdfrwt>
<pdfrwt beam="2">  1       -2 0.33131783E+00 0.27594911E+04</pdfrwt>
<totfact> 0.53474686E-01</totfact>
</mgrwt>
</event>
<event>
 4    1  0.2482334E-008  0.2765200E+04  0.7816531E-02  0.8314154E-01
          2   -1    0    0  501    0  0.00000000000E+00  0.00000000000E+00  0.11021695590E+04  0.11021695590E+04  0.00000000000E+00 0.  1.
         -2   -1    0    0    0  501 -0.00000000000E+00 -0.00000000000E+00 -0.17343821174E+04  0.17343821174E+04  0.00000000000E+00 0. -1.
    2000013    1    1    2    0    0 -0.97060336114E+03  0.16762925066E+03 -0.11375315357E+03  0.13731752366E+04  0.95000000000E+03 0.  0.
   -2000013    1    1    2    0    0  0.97060336114E+03 -0.16762925066E+03 -0.51845940482E+03  0.14633764399E+04  0.95000000000E+03 0.  0.
<mgrwt>
<rscale>  0 0.27652003E+04</rscale>
<asrwt>0</asrwt>
<pdfrwt beam="1">  1        2 0.16956455E+00 0.27652003E+04</pdfrwt>
<pdfrwt beam="2">  1       -2 0.26682802E+00 0.27652003E+04</pdfrwt>
<totfact> 0.96047873E-01</totfact>
</mgrwt>
</event>
<event>
 4    1  0.2482334E-008  0.2264964E+04  0.7816531E-02  0.8491865E-01
         -1   -1    0    0    0  501 -0.00000000000E+00  0.00000000000E+00  0.66672903424E+03  0.66672903424E+03  0.00000000000E+00 0. -1.
          1   -1    0    0  501    0  0.00000000000E+00 -0.00000000000E+00 -0.19235928218E+04  0.19235928218E+04  0.00000000000E+00 0.  1.
    2000013    1    1    2    0    0  0.55403576640E+03  0.15212774868E+03 -0.37291747169E+03  0.11711814219E+04  0.95000000000E+03 0.  0.
   -2000013    1    1    2    0    0 -0.55403576640E+03 -0.15212774868E+03 -0.88394631586E+03  0.14191404341E+04  0.95000000000E+03 0.  0.
<mgrwt>
<rscale>  0 0.22649637E+04</rscale>
<asrwt>0</asrwt>
<pdfrwt beam="2">  1        1 0.29593735E+00 0.22649637E+04</pdfrwt>
<pdfrwt beam="1">  1       -1 0.10257370E+00 0.22649637E+04</pdfrwt>
<totfact> 0.27361372E+00</totfact>
</mgrwt>
</event>
<event>
 4    1  0.2482334E-008  0.2179525E+04  0.7816531E-02  0.8526999E-01
         -2   -1    0    0    0  501 -0.00000000000E+00  0.00000000000E+00  0.10457553232E+04  0.10457553232E+04  0.00000000000E+00 0. -1.
          2   -1    0    0  501    0  0.00000000000E+00 -0.00000000000E+00 -0.11356214907E+04  0.11356214907E+04  0.00000000000E+00 0.  1.
    2000013    1    1    2    0    0  0.35249457549E+03  0.34047016860E+03  0.16716643986E+03  0.10819505442E+04  0.95000000000E+03 0.  0.
   -2000013    1    1    2    0    0 -0.35249457549E+03 -0.34047016860E+03 -0.25703260737E+03  0.10994262698E+04  0.95000000000E+03 0.  0.
<mgrwt>
<rscale>  0 0.21795249E+04</rscale>
<asrwt>0</asrwt>
<pdfrwt beam="2">  1        2 0.17471100E+00 0.21795249E+04</pdfrwt>
<pdfrwt beam="1">  1       -2 0.16088543E+00 0.21795249E+04</pdfrwt>
<totfact> 0.47062298E+00</totfact>
</mgrwt>
</event>
<event>
 4    1  0.2482334E-008  0.2471113E+04  0.7816531E-02  0.8413349E-01
         -2   -1    0    0    0  501 -0.00000000000E+00  0.00000000000E+00  0.62621487774E+03  0.62621487774E+03  0.00000000000E+00 0. -1.
          2   -1    0    0  501    0  0.00000000000E+00 -0.00000000000E+00 -0.24378216335E+04  0.24378216335E+04  0.00000000000E+00 0.  1.
    2000013    1    1    2    0    0  0.71556962330E+03 -0.30891904689E+03 -0.10656996868E+04  0.16265566961E+04  0.95000000000E+03 0.  0.
   -2000013    1    1    2    0    0 -0.71556962330E+03  0.30891904689E+03 -0.74590706901E+03  0.14374798151E+04  0.95000000000E+03 0.  0.
<mgrwt>
<rscale>  0 0.24711133E+04</rscale>
<asrwt>0</asrwt>
<pdfrwt beam="2">  1        2 0.37504948E+00 0.24711133E+04</pdfrwt>
<pdfrwt beam="1">  1       -2 0.96340750E-01 0.24711133E+04</pdfrwt>
<totfact> 0.30484605E+00</totfact>
</mgrwt>
</event>
<event>
 4    1  0.2482334E-008  0.2550333E+04  0.7816531E-02  0.8385270E-01
         -2   -1    0    0    0  501 -0.00000000000E+00  0.00000000000E+00  0.10128044815E+04  0.10128044815E+04  0.00000000000E+00 0. -1.
          2   -1    0    0  501    0  0.00000000000E+00 -0.00000000000E+00 -0.16054923472E+04  0.16054923472E+04  0.00000000000E+00 0.  1.
    2000013    1    1    2    0    0 -0.57988838222E+03  0.42211038994E+03  0.17311886473E+03  0.12028789875E+04  0.95000000000E+03 0.  0.
   -2000013    1    1    2    0    0  0.57988838222E+03 -0.42211038994E+03 -0.76580673040E+03  0.14154178413E+04  0.95000000000E+03 0.  0.
<mgrwt>
<rscale>  0 0.25503332E+04</rscale>
<asrwt>0</asrwt>
<pdfrwt beam="2">  1        2 0.24699882E+00 0.25503332E+04</pdfrwt>
<pdfrwt beam="1">  1       -2 0.15581607E+00 0.25503332E+04</pdfrwt>
<totfact> 0.26624827E+00</totfact>
</mgrwt>
</event>
<event>
 4    1  0.2482334E-008  0.2465856E+04  0.7816531E-02  0.8415251E-01
          2   -1    0    0  501    0  0.00000000000E+00  0.00000000000E+00  0.96328305140E+03  0.96328305140E+03  0.00000000000E+00 0.  1.
         -2   -1    0    0    0  501 -0.00000000000E+00 -0.00000000000E+00 -0.15780532701E+04  0.15780532701E+04  0.00000000000E+00 0. -1.
    2000013    1    1    2    0    0  0.67321569225E+03 -0.87501171817E+02  0.10063253138E+03  0.11719653279E+04  0.95000000000E+03 0.  0.
   -2000013    1    1    2    0    0 -0.67321569225E+03  0.87501171817E+02 -0.71540275007E+03  0.13693709936E+04  0.95000000000E+03 0.  0.
<mgrwt>
<rscale>  0 0.24658564E+04</rscale>
<asrwt>0</asrwt>
<pdfrwt beam="1">  1        2 0.14819739E+00 0.24658564E+04</pdfrwt>
<pdfrwt beam="2">  1       -2 0.24277743E+00 0.24658564E+04</pdfrwt>
<totfact> 0.16942822E+00</totfact>
</mgrwt>
</event>
<event>
 4    1  0.2482334E-008  0.3622020E+04  0.7816531E-02  0.8085466E-01
          1   -1    0    0  501    0  0.00000000000E+00  0.00000000000E+00  0.19100649315E+04  0.19100649315E+04  0.00000000000E+00 0.  1.
         -1   -1    0    0    0  501 -0.00000000000E+00 -0.00000000000E+00 -0.17170922957E+04  0.17170922957E+04  0.00000000000E+00 0. -1.
    2000013    1    1    2    0    0 -0.13682702623E+03 -0.15179014732E+04 -0.13732127612E+03  0.18011395422E+04  0.95000000000E+03 0.  0.
   -2000013    1    1    2    0    0  0.13682702623E+03  0.15179014732E+04  0.33029391193E+03  0.18260176850E+04  0.95000000000E+03 0.  0.
<mgrwt>
<rscale>  0 0.36220203E+04</rscale>
<asrwt>0</asrwt>
<pdfrwt beam="1">  1        1 0.29385614E+00 0.36220203E+04</pdfrwt>
<pdfrwt beam="2">  1       -1 0.26416805E+00 0.36220203E+04</pdfrwt>
<totfact> 0.15615036E-01</totfact>
</mgrwt>
</event>
<event>
 4    1  0.2482334E-008  0.2106701E+04  0.7816531E-02  0.8558297E-01
          2   -1    0    0  501    0  0.00000000000E+00  0.00000000000E+00  0.13018048367E+04  0.13018048367E+04  0.00000000000E+00 0.  1.
         -2   -1    0    0    0  501 -0.00000000000E+00 -0.00000000000E+00 -0.85231421589E+03  0.85231421589E+03  0.00000000000E+00 0. -1.
    2000013    1    1    2    0    0 -0.10332888051E+03  0.16959934693E+03 -0.19386666201E+03  0.98970959309E+03  0.95000000000E+03 0.  0.
   -2000013    1    1    2    0    0  0.10332888051E+03 -0.16959934693E+03  0.64335728284E+03  0.11644094595E+04  0.95000000000E+03 0.  0.
<mgrwt>
<rscale>  0 0.21067005E+04</rscale>
<asrwt>0</asrwt>
<pdfrwt beam="1">  1        2 0.20027767E+00 0.21067005E+04</pdfrwt>
<pdfrwt beam="2">  1       -2 0.13112527E+00 0.21067005E+04</pdfrwt>
<totfact> 0.64551432E+00</totfact>
</mgrwt>
</event>
<event>
 4    1  0.2482334E-008  0.2775491E+04  0.7816531E-02  0.8310918E-01
         -2   -1    0    0    0  501 -0.00000000000E+00  0.00000000000E+00  0.50997623345E+03  0.50997623345E+03  0.00000000000E+00 0. -1.
          2   -1    0    0  501    0  0.00000000000E+00 -0.00000000000E+00 -0.37763283496E+04  0.37763283496E+04  0.00000000000E+00 0.  1.
    2000013    1    1    2    0    0 -0.65250810640E+03 -0.58499690293E+03 -0.85278785062E+03  0.15484622448E+04  0.95000000000E+03 0.  0.
   -2000013    1    1    2    0    0  0.65250810640E+03  0.58499690293E+03 -0.24135642655E+04  0.27378423382E+04  0.95000000000E+03 0.  0.
<mgrwt>
<rscale>  0 0.27754911E+04</rscale>
<asrwt>0</asrwt>
<pdfrwt beam="2">  1        2 0.58097360E+00 0.27754911E+04</pdfrwt>
<pdfrwt beam="1">  1       -2 0.78457881E-01 0.27754911E+04</pdfrwt>
<totfact> 0.64470800E-01</totfact>
</mgrwt>
</event>
<event>
 4    1  0.2482334E-008  0.2483572E+04  0.7816531E-02  0.8408861E-01
          2   -1    0    0  501    0  0.00000000000E+00  0.00000000000E+00  0.27142074629E+04  0.27142074629E+04  0.00000000000E+00 0.  1.
         -2   -1    0    0    0  501 -0.00000000000E+00 -0.00000000000E+00 -0.56813381787E+03  0.56813381787E+03  0.00000000000E+00 0. -1.
    2000013    1    1    2    0    0 -0.25061340467E+03 -0.74137146575E+03  0.12905802781E+04  0.17834057819E+04  0.95000000000E+03 0.  0.
   -2000013    1    1    2    0    0  0.25061340467E+03  0.74137146575E+03  0.85549336696E+03  0.14989354989E+04  0.95000000000E+03 0.  0.
<mgrwt>
<rscale>  0 0.24835725E+04</rscale>
<asrwt>0</asrwt>
<pdfrwt beam="1">  1        2 0.41757037E+00 0.24835725E+04</pdfrwt>
<pdfrwt beam="2">  1       -2 0.87405205E-01 0.24835725E+04</pdfrwt>
<totfact> 0.26288550E+00</totfact>
</mgrwt>
</event>
<event>
 4    1  0.2482334E-008  0.2450077E+04  0.7816531E-02  0.8420990E-01
         -1   -1    0    0    0  501 -0.00000000000E+00  0.00000000000E+00  0.29659536683E+04  0.29659536683E+04  0.00000000000E+00 0.  1.
          1   -1    0    0  501    0  0.00000000000E+00 -0.00000000000E+00 -0.50598223264E+03  0.50598223264E+03  0.00000000000E+00 0. -1.
    2000013    1    1    2    0    0 -0.39820519229E+03 -0.61450185808E+03  0.15829474390E+04  0.19860519891E+04  0.95000000000E+03 0.  0.
   -2000013    1    1    2    0    0  0.39820519229E+03  0.61450185808E+03  0.87702399664E+03  0.14858839118E+04  0.95000000000E+03 0.  0.
<mgrwt>
<rscale>  0 0.24500774E+04</rscale>
<asrwt>0</asrwt>
<pdfrwt beam="2">  1        1 0.77843422E-01 0.24500774E+04</pdfrwt>
<pdfrwt beam="1">  1       -1 0.45630055E+00 0.24500774E+04</pdfrwt>
<totfact> 0.11379063E-01</totfact>
</mgrwt>
</event>
<event>
 4    1  0.2482334E-008  0.2254003E+04  0.7816531E-02  0.8496281E-01
         -2   -1    0    0    0  501 -0.00000000000E+00  0.00000000000E+00  0.13542845694E+04  0.13542845694E+04  0.00000000000E+00 0. -1.
          2   -1    0    0  501    0  0.00000000000E+00 -0.00000000000E+00 -0.93786242056E+03  0.93786242056E+03  0.00000000000E+00 0.  1.
    2000013    1    1    2    0    0 -0.60380077316E+02 -0.58606440486E+03  0.62555352386E+02  0.11196117240E+04  0.95000000000E+03 0.  0.
   -2000013    1    1    2    0    0  0.60380077316E+02  0.58606440486E+03  0.35386679649E+03  0.11725352660E+04  0.95000000000E+03 0.  0.
<mgrwt>
<rscale>  0 0.22540032E+04</rscale>
<asrwt>0</asrwt>
<pdfrwt beam="2">  1        2 0.14428653E+00 0.22540032E+04</pdfrwt>
<pdfrwt beam="1">  1       -2 0.20835147E+00 0.22540032E+04</pdfrwt>
<totfact> 0.29524802E+00</totfact>
</mgrwt>
</event>
<event>
 4    1  0.2482334E-008  0.2357620E+04  0.7816531E-02  0.8455543E-01
         -2   -1    0    0    0  501 -0.00000000000E+00  0.00000000000E+00  0.12902343024E+04  0.12902343024E+04  0.00000000000E+00 0. -1.
          2   -1    0    0  501    0  0.00000000000E+00 -0.00000000000E+00 -0.10770083390E+04  0.10770083390E+04  0.00000000000E+00 0.  1.
    2000013    1    1    2    0    0  0.19132427979E+03  0.99499652064E+02  0.77309012241E+03  0.12436532870E+04  0.95000000000E+03 0.  0.
   -2000013    1    1    2    0    0 -0.19132427979E+03 -0.99499652064E+02 -0.55986415898E+03  0.11235893544E+04  0.95000000000E+03 0.  0.
<mgrwt>
<rscale>  0 0.23576201E+04</rscale>
<asrwt>0</asrwt>
<pdfrwt beam="2">  1        2 0.16569359E+00 0.23576201E+04</pdfrwt>
<pdfrwt beam="1">  1       -2 0.19849759E+00 0.23576201E+04</pdfrwt>
<totfact> 0.27638139E+00</totfact>
</mgrwt>
</event>
<event>
 4    1  0.2482334E-008  0.2904612E+04  0.7816531E-02  0.8271506E-01
          2   -1    0    0  501    0  0.00000000000E+00  0.00000000000E+00  0.20335836062E+04  0.20335836062E+04  0.00000000000E+00 0.  1.
         -2   -1    0    0    0  501 -0.00000000000E+00 -0.00000000000E+00 -0.10371805479E+04  0.10371805479E+04  0.00000000000E+00 0. -1.
    2000013    1    1    2    0    0  0.10849887165E+04 -0.13940648436E+03  0.60423150940E+03  0.15697867370E+04  0.95000000000E+03 0.  0.
   -2000013    1    1    2    0    0 -0.10849887165E+04  0.13940648436E+03  0.39217154894E+03  0.15009774171E+04  0.95000000000E+03 0.  0.
<mgrwt>
<rscale>  0 0.29046124E+04</rscale>
<asrwt>0</asrwt>
<pdfrwt beam="1">  1        2 0.31285902E+00 0.29046124E+04</pdfrwt>
<pdfrwt beam="2">  1       -2 0.15956624E+00 0.29046124E+04</pdfrwt>
<totfact> 0.14011445E+00</totfact>
</mgrwt>
</event>
<event>
 4    1  0.2482334E-008  0.3091214E+04  0.7816531E-02  0.8218153E-01
          2   -1    0    0  501    0  0.00000000000E+00  0.00000000000E+00  0.33488278652E+04  0.33488278652E+04  0.00000000000E+00 0.  1.
         -2   -1    0    0    0  501 -0.00000000000E+00 -0.00000000000E+00 -0.71335423181E+03  0.71335423181E+03  0.00000000000E+00 0. -1.
    2000013    1    1    2    0    0  0.10151946694E+04 -0.22139194576E+03  0.21558499341E+04  0.25748443737E+04  0.95000000000E+03 0.  0.
   -2000013    1    1    2    0    0 -0.10151946694E+04  0.22139194576E+03  0.47962369931E+03  0.14873377233E+04  0.95000000000E+03 0.  0.
<mgrwt>
<rscale>  0 0.30912137E+04</rscale>
<asrwt>0</asrwt>
<pdfrwt beam="1">  1        2 0.51520428E+00 0.30912137E+04</pdfrwt>
<pdfrwt beam="2">  1       -2 0.10974681E+00 0.30912137E+04</pdfrwt>
<totfact> 0.57924339E-01</totfact>
</mgrwt>
</event>
<event>
 4    1  0.2482334E-008  0.2717959E+04  0.7816531E-02  0.8329201E-01
          2   -1    0    0  501    0  0.00000000000E+00  0.00000000000E+00  0.34113750121E+04  0.34113750121E+04  0.00000000000E+00 0.  1.
         -2   -1    0    0    0  501 -0.00000000000E+00 -0.00000000000E+00 -0.54137268948E+03  0.54137268948E+03  0.00000000000E+00 0. -1.
    2000013    1    1    2    0    0  0.75391443584E+03  0.59605552579E+03  0.16440175529E+04  0.21281360108E+04  0.95000000000E+03 0.  0.
   -2000013    1    1    2    0    0 -0.75391443584E+03 -0.59605552579E+03  0.12259847697E+04  0.18246116907E+04  0.95000000000E+03 0.  0.
<mgrwt>
<rscale>  0 0.27179590E+04</rscale>
<asrwt>0</asrwt>
<pdfrwt beam="1">  1        2 0.52482691E+00 0.27179590E+04</pdfrwt>
<pdfrwt beam="2">  1       -2 0.83288108E-01 0.27179590E+04</pdfrwt>
<totfact> 0.10352742E+00</totfact>
</mgrwt>
</event>
<event>
 4    1  0.2482334E-008  0.2299970E+04  0.7816531E-02  0.8477933E-01
         -2   -1    0    0    0  501 -0.00000000000E+00  0.00000000000E+00  0.19015829145E+04  0.19015829145E+04  0.00000000000E+00 0.  1.
          2   -1    0    0  501    0  0.00000000000E+00 -0.00000000000E+00 -0.69545528141E+03  0.69545528141E+03  0.00000000000E+00 0. -1.
    2000013    1    1    2    0    0  0.32383642997E+03  0.55719379830E+03  0.67990422761E+03  0.13342056517E+04  0.95000000000E+03 0.  0.
   -2000013    1    1    2    0    0 -0.32383642997E+03 -0.55719379830E+03  0.52622340544E+03  0.12628325442E+04  0.95000000000E+03 0.  0.
<mgrwt>
<rscale>  0 0.22999703E+04</rscale>
<asrwt>0</asrwt>
<pdfrwt beam="2">  1        2 0.10699312E+00 0.22999703E+04</pdfrwt>
<pdfrwt beam="1">  1       -2 0.29255122E+00 0.22999703E+04</pdfrwt>
<totfact> 0.13225183E+00</totfact>
</mgrwt>
</event>
<event>
 4    1  0.2482334E-008  0.2237580E+04  0.7816531E-02  0.8502947E-01
          2   -1    0    0  501    0  0.00000000000E+00  0.00000000000E+00  0.78956754287E+03  0.78956754287E+03  0.00000000000E+00 0.  1.
         -2   -1    0    0    0  501 -0.00000000000E+00 -0.00000000000E+00 -0.15852870228E+04  0.15852870228E+04  0.00000000000E+00 0. -1.
    2000013    1    1    2    0    0  0.35074092798E+03 -0.11982003506E+03 -0.88632864986E+03  0.13510938217E+04  0.95000000000E+03 0.  0.
   -2000013    1    1    2    0    0 -0.35074092798E+03  0.11982003506E+03  0.90609169907E+02  0.10237607440E+04  0.95000000000E+03 0.  0.
<mgrwt>
<rscale>  0 0.22375801E+04</rscale>
<asrwt>0</asrwt>
<pdfrwt beam="1">  1        2 0.12147193E+00 0.22375801E+04</pdfrwt>
<pdfrwt beam="2">  1       -2 0.24389031E+00 0.22375801E+04</pdfrwt>
<totfact> 0.22379986E+00</totfact>
</mgrwt>
</event>
<event>
 4    1  0.2482334E-008  0.2095487E+04  0.7816531E-02  0.8563234E-01
         -2   -1    0    0    0  501 -0.00000000000E+00  0.00000000000E+00  0.83701254439E+03  0.83701254439E+03  0.00000000000E+00 0. -1.
          2   -1    0    0  501    0  0.00000000000E+00 -0.00000000000E+00 -0.13115290064E+04  0.13115290064E+04  0.00000000000E+00 0.  1.
    2000013    1    1    2    0    0  0.34670351275E+03  0.13805418306E+03 -0.47990144366E+03  0.11278597780E+04  0.95000000000E+03 0.  0.
   -2000013    1    1    2    0    0 -0.34670351275E+03 -0.13805418306E+03  0.53849816796E+01  0.10206817728E+04  0.95000000000E+03 0.  0.
<mgrwt>
<rscale>  0 0.20954868E+04</rscale>
<asrwt>0</asrwt>
<pdfrwt beam="2">  1        2 0.20177369E+00 0.20954868E+04</pdfrwt>
<pdfrwt beam="1">  1       -2 0.12877116E+00 0.20954868E+04</pdfrwt>
<totfact> 0.66768921E+00</totfact>
</mgrwt>
</event>
<event>
 4    1  0.2482334E-008  0.2165451E+04  0.7816531E-02  0.8532948E-01
         -2   -1    0    0    0  501 -0.00000000000E+00  0.00000000000E+00  0.15140703067E+04  0.15140703067E+04  0.00000000000E+00 0. -1.
          2   -1    0    0  501    0  0.00000000000E+00 -0.00000000000E+00 -0.77426655504E+03  0.77426655504E+03  0.00000000000E+00 0.  1.
    2000013    1    1    2    0    0 -0.11034722747E+03 -0.49422933117E+03  0.24778060145E+03  0.11046874530E+04  0.95000000000E+03 0.  0.
   -2000013    1    1    2    0    0  0.11034722747E+03  0.49422933117E+03  0.49202315020E+03  0.11836494087E+04  0.95000000000E+03 0.  0.
<mgrwt>
<rscale>  0 0.21654505E+04</rscale>
<asrwt>0</asrwt>
<pdfrwt beam="2">  1        2 0.11911793E+00 0.21654505E+04</pdfrwt>
<pdfrwt beam="1">  1       -2 0.23293389E+00 0.21654505E+04</pdfrwt>
<totfact> 0.27015264E+00</totfact>
</mgrwt>
</event>
<event>
 4    1  0.2482334E-008  0.3163832E+04  0.7816531E-02  0.8198435E-01
          2   -1    0    0  501    0  0.00000000000E+00  0.00000000000E+00  0.11499628275E+04  0.11499628275E+04  0.00000000000E+00 0.  1.
         -2   -1    0    0    0  501 -0.00000000000E+00 -0.00000000000E+00 -0.21761211699E+04  0.21761211699E+04  0.00000000000E+00 0. -1.
    2000013    1    1    2    0    0  0.10892125518E+04  0.58246726392E+03 -0.22650782517E+03  0.15746294458E+04  0.95000000000E+03 0.  0.
   -2000013    1    1    2    0    0 -0.10892125518E+04 -0.58246726392E+03 -0.79965051729E+03  0.17514545516E+04  0.95000000000E+03 0.  0.
<mgrwt>
<rscale>  0 0.31638321E+04</rscale>
<asrwt>0</asrwt>
<pdfrwt beam="1">  1        2 0.17691736E+00 0.31638321E+04</pdfrwt>
<pdfrwt beam="2">  1       -2 0.33478787E+00 0.31638321E+04</pdfrwt>
<totfact> 0.33225281E-01</totfact>
</mgrwt>
</event>
<event>
 4    1  0.2482334E-008  0.4171096E+04  0.7816531E-02  0.7970893E-01
          2   -1    0    0  501    0  0.00000000000E+00  0.00000000000E+00  0.31861622564E+04  0.31861622564E+04  0.00000000000E+00 0.  1.
         -2   -1    0    0    0  501 -0.00000000000E+00 -0.00000000000E+00 -0.13651252625E+04  0.13651252625E+04  0.00000000000E+00 0. -1.
    2000013    1    1    2    0    0  0.66239930769E+03  0.16665393222E+04  0.38621662879E+03  0.20658628801E+04  0.95000000000E+03 0.  0.
   -2000013    1    1    2    0    0 -0.66239930769E+03 -0.16665393222E+04  0.14348203651E+04  0.24854246388E+04  0.95000000000E+03 0.  0.
<mgrwt>
<rscale>  0 0.41710961E+04</rscale>
<asrwt>0</asrwt>
<pdfrwt beam="1">  1        2 0.49017881E+00 0.41710961E+04</pdfrwt>
<pdfrwt beam="2">  1       -2 0.21001927E+00 0.41710961E+04</pdfrwt>
<totfact> 0.11781700E-01</totfact>
</mgrwt>
</event>
<event>
 4    1  0.2482334E-008  0.2682245E+04  0.7816531E-02  0.8340789E-01
         -2   -1    0    0    0  501 -0.00000000000E+00  0.00000000000E+00  0.76904052962E+03  0.76904052962E+03  0.00000000000E+00 0. -1.
          2   -1    0    0  501    0  0.00000000000E+00 -0.00000000000E+00 -0.23387708121E+04  0.23387708121E+04  0.00000000000E+00 0.  1.
    2000013    1    1    2    0    0 -0.41506702122E+03 -0.59272479475E+03 -0.14920337513E+04  0.19110907957E+04  0.95000000000E+03 0.  0.
   -2000013    1    1    2    0    0  0.41506702122E+03  0.59272479475E+03 -0.77696531247E+02  0.11967205461E+04  0.95000000000E+03 0.  0.
<mgrwt>
<rscale>  0 0.26822450E+04</rscale>
<asrwt>0</asrwt>
<pdfrwt beam="2">  1        2 0.35981089E+00 0.26822450E+04</pdfrwt>
<pdfrwt beam="1">  1       -2 0.11831393E+00 0.26822450E+04</pdfrwt>
<totfact> 0.20818739E+00</totfact>
</mgrwt>
</event>
<event>
 4    1  0.2482334E-008  0.2938240E+04  0.7816531E-02  0.8261590E-01
          2   -1    0    0  501    0  0.00000000000E+00  0.00000000000E+00  0.11509589134E+04  0.11509589134E+04  0.00000000000E+00 0.  1.
         -2   -1    0    0    0  501 -0.00000000000E+00 -0.00000000000E+00 -0.18752313408E+04  0.18752313408E+04  0.00000000000E+00 0. -1.
    2000013    1    1    2    0    0  0.10597785930E+04  0.38634592106E+02 -0.73518084898E+03  0.16023776642E+04  0.95000000000E+03 0.  0.
   -2000013    1    1    2    0    0 -0.10597785930E+04 -0.38634592106E+02  0.10908421494E+02  0.14238125900E+04  0.95000000000E+03 0.  0.
<mgrwt>
<rscale>  0 0.29382404E+04</rscale>
<asrwt>0</asrwt>
<pdfrwt beam="1">  1        2 0.17707060E+00 0.29382404E+04</pdfrwt>
<pdfrwt beam="2">  1       -2 0.28849713E+00 0.29382404E+04</pdfrwt>
<totfact> 0.65188393E-01</totfact>
</mgrwt>
</event>
<event>
 4    1  0.2482334E-008  0.2316735E+04  0.7816531E-02  0.8471352E-01
          2   -1    0    0  501    0  0.00000000000E+00  0.00000000000E+00  0.15650895731E+04  0.15650895731E+04  0.00000000000E+00 0.  1.
         -2   -1    0    0    0  501 -0.00000000000E+00 -0.00000000000E+00 -0.85734110762E+03  0.85734110762E+03  0.00000000000E+00 0. -1.
    2000013    1    1    2    0    0 -0.56646785811E+03  0.33472319810E+03  0.43745980067E+03  0.12356360835E+04  0.95000000000E+03 0.  0.
   -2000013    1    1    2    0    0  0.56646785811E+03 -0.33472319810E+03  0.27028866476E+03  0.11867945972E+04  0.95000000000E+03 0.  0.
<mgrwt>
<rscale>  0 0.23167353E+04</rscale>
<asrwt>0</asrwt>
<pdfrwt beam="1">  1        2 0.24078301E+00 0.23167353E+04</pdfrwt>
<pdfrwt beam="2">  1       -2 0.13189863E+00 0.23167353E+04</pdfrwt>
<totfact> 0.44221293E+00</totfact>
</mgrwt>
</event>
<event>
 4    1  0.2482334E-008  0.2693007E+04  0.7816531E-02  0.8337277E-01
         -2   -1    0    0    0  501 -0.00000000000E+00  0.00000000000E+00  0.72688637058E+03  0.72688637058E+03  0.00000000000E+00 0. -1.
          2   -1    0    0  501    0  0.00000000000E+00 -0.00000000000E+00 -0.24942989893E+04  0.24942989893E+04  0.00000000000E+00 0.  1.
    2000013    1    1    2    0    0  0.68080125767E+03 -0.37118801688E+03 -0.21848079954E+03  0.12455941378E+04  0.95000000000E+03 0.  0.
   -2000013    1    1    2    0    0 -0.68080125767E+03  0.37118801688E+03 -0.15489318192E+04  0.19755912221E+04  0.95000000000E+03 0.  0.
<mgrwt>
<rscale>  0 0.26930072E+04</rscale>
<asrwt>0</asrwt>
<pdfrwt beam="2">  1        2 0.38373830E+00 0.26930072E+04</pdfrwt>
<pdfrwt beam="1">  1       -2 0.11182867E+00 0.26930072E+04</pdfrwt>
<totfact> 0.19431723E+00</totfact>
</mgrwt>
</event>
<event>
 4    1  0.2482334E-008  0.2303321E+04  0.7816531E-02  0.8476613E-01
          2   -1    0    0  501    0  0.00000000000E+00  0.00000000000E+00  0.72102859259E+03  0.72102859259E+03  0.00000000000E+00 0.  1.
         -2   -1    0    0    0  501 -0.00000000000E+00 -0.00000000000E+00 -0.18394863036E+04  0.18394863036E+04  0.00000000000E+00 0. -1.
    2000013    1    1    2    0    0  0.62307778268E+03  0.42640794352E+02 -0.35491861295E+03  0.11910127549E+04  0.95000000000E+03 0.  0.
   -2000013    1    1    2    0    0 -0.62307778268E+03 -0.42640794352E+02 -0.76353909804E+03  0.13695021412E+04  0.95000000000E+03 0.  0.
<mgrwt>
<rscale>  0 0.23033213E+04</rscale>
<asrwt>0</asrwt>
<pdfrwt beam="1">  1        2 0.11092748E+00 0.23033213E+04</pdfrwt>
<pdfrwt beam="2">  1       -2 0.28299789E+00 0.23033213E+04</pdfrwt>
<totfact> 0.14441291E+00</totfact>
</mgrwt>
</event>
<event>
 4    1  0.2482334E-008  0.2039069E+04  0.7816531E-02  0.8588569E-01
          2   -1    0    0  501    0  0.00000000000E+00  0.00000000000E+00  0.27128367104E+04  0.27128367104E+04  0.00000000000E+00 0.  1.
         -2   -1    0    0    0  501 -0.00000000000E+00 -0.00000000000E+00 -0.38316021695E+03  0.38316021695E+03  0.00000000000E+00 0. -1.
    2000013    1    1    2    0    0 -0.13257553967E+03  0.44993478927E+02  0.16849669361E+04  0.19393850218E+04  0.95000000000E+03 0.  0.
   -2000013    1    1    2    0    0  0.13257553967E+03 -0.44993478927E+02  0.64470955737E+03  0.11566119056E+04  0.95000000000E+03 0.  0.
<mgrwt>
<rscale>  0 0.20390695E+04</rscale>
<asrwt>0</asrwt>
<pdfrwt beam="1">  1        2 0.41735948E+00 0.20390695E+04</pdfrwt>
<pdfrwt beam="2">  1       -2 0.58947727E-01 0.20390695E+04</pdfrwt>
<totfact> 0.65032919E+00</totfact>
</mgrwt>
</event>
<event>
 4    1  0.2482334E-008  0.2277066E+04  0.7816531E-02  0.8487019E-01
         -2   -1    0    0    0  501 -0.00000000000E+00  0.00000000000E+00  0.80395894171E+03  0.80395894171E+03  0.00000000000E+00 0. -1.
          2   -1    0    0  501    0  0.00000000000E+00 -0.00000000000E+00 -0.16123422574E+04  0.16123422574E+04  0.00000000000E+00 0.  1.
    2000013    1    1    2    0    0 -0.48146432991E+03 -0.39449177974E+03 -0.48858659970E+03  0.12363852679E+04  0.95000000000E+03 0.  0.
   -2000013    1    1    2    0    0  0.48146432991E+03  0.39449177974E+03 -0.31979671603E+03  0.11799159313E+04  0.95000000000E+03 0.  0.
<mgrwt>
<rscale>  0 0.22770656E+04</rscale>
<asrwt>0</asrwt>
<pdfrwt beam="2">  1        2 0.24805265E+00 0.22770656E+04</pdfrwt>
<pdfrwt beam="1">  1       -2 0.12368599E+00 0.22770656E+04</pdfrwt>
<totfact> 0.49093750E+00</totfact>
</mgrwt>
</event>
<event>
 4    1  0.2482334E-008  0.2486972E+04  0.7816531E-02  0.8407642E-01
         -2   -1    0    0    0  501 -0.00000000000E+00  0.00000000000E+00  0.12475504726E+04  0.12475504726E+04  0.00000000000E+00 0. -1.
          2   -1    0    0  501    0  0.00000000000E+00 -0.00000000000E+00 -0.12394344906E+04  0.12394344906E+04  0.00000000000E+00 0.  1.
    2000013    1    1    2    0    0 -0.76499589461E+03  0.22870188291E+03  0.83012920219E+02  0.12437501417E+04  0.95000000000E+03 0.  0.
   -2000013    1    1    2    0    0  0.76499589461E+03 -0.22870188291E+03 -0.74896938185E+02  0.12432348215E+04  0.95000000000E+03 0.  0.
<mgrwt>
<rscale>  0 0.24869717E+04</rscale>
<asrwt>0</asrwt>
<pdfrwt beam="2">  1        2 0.19068223E+00 0.24869717E+04</pdfrwt>
<pdfrwt beam="1">  1       -2 0.19193084E+00 0.24869717E+04</pdfrwt>
<totfact> 0.24104187E+00</totfact>
</mgrwt>
</event>
<event>
 4    1  0.2482334E-008  0.2272670E+04  0.7816531E-02  0.8488775E-01
          2   -1    0    0  501    0  0.00000000000E+00  0.00000000000E+00  0.14636410051E+04  0.14636410051E+04  0.00000000000E+00 0.  1.
         -2   -1    0    0    0  501 -0.00000000000E+00 -0.00000000000E+00 -0.88222295927E+03  0.88222295927E+03  0.00000000000E+00 0. -1.
    2000013    1    1    2    0    0  0.61461503865E+03  0.83995794348E+02  0.35558839998E+03  0.11890122158E+04  0.95000000000E+03 0.  0.
   -2000013    1    1    2    0    0 -0.61461503865E+03 -0.83995794348E+02  0.22582964588E+03  0.11568517486E+04  0.95000000000E+03 0.  0.
<mgrwt>
<rscale>  0 0.22726704E+04</rscale>
<asrwt>0</asrwt>
<pdfrwt beam="1">  1        2 0.22517554E+00 0.22726704E+04</pdfrwt>
<pdfrwt beam="2">  1       -2 0.13572661E+00 0.22726704E+04</pdfrwt>
<totfact> 0.47071010E+00</totfact>
</mgrwt>
</event>
<event>
 4    1  0.2482334E-008  0.2433759E+04  0.7816531E-02  0.8426972E-01
         -2   -1    0    0    0  501 -0.00000000000E+00  0.00000000000E+00  0.30377493500E+04  0.30377493500E+04  0.00000000000E+00 0. -1.
          2   -1    0    0  501    0  0.00000000000E+00 -0.00000000000E+00 -0.48746456046E+03  0.48746456046E+03  0.00000000000E+00 0.  1.
    2000013    1    1    2    0    0  0.26243760250E+03 -0.61597916993E+03  0.17973764179E+04  0.21404125352E+04  0.95000000000E+03 0.  0.
   -2000013    1    1    2    0    0 -0.26243760250E+03  0.61597916993E+03  0.75290837166E+03  0.13848013753E+04  0.95000000000E+03 0.  0.
<mgrwt>
<rscale>  0 0.24337585E+04</rscale>
<asrwt>0</asrwt>
<pdfrwt beam="2">  1        2 0.74994549E-01 0.24337585E+04</pdfrwt>
<pdfrwt beam="1">  1       -2 0.46734605E+00 0.24337585E+04</pdfrwt>
<totfact> 0.15153981E-01</totfact>
</mgrwt>
</event>
<event>
 4    1  0.2482334E-008  0.4245439E+04  0.7816531E-02  0.7956785E-01
          2   -1    0    0  501    0  0.00000000000E+00  0.00000000000E+00  0.37036016353E+04  0.37036016353E+04  0.00000000000E+00 0.  1.
         -2   -1    0    0    0  501 -0.00000000000E+00 -0.00000000000E+00 -0.12166367106E+04  0.12166367106E+04  0.00000000000E+00 0. -1.
    2000013    1    1    2    0    0  0.17521575491E+04 -0.72969452031E+03  0.12081860852E+04  0.24422784007E+04  0.95000000000E+03 0.  0.
   -2000013    1    1    2    0    0 -0.17521575491E+04  0.72969452031E+03  0.12787788395E+04  0.24779599453E+04  0.95000000000E+03 0.  0.
<mgrwt>
<rscale>  0 0.42454388E+04</rscale>
<asrwt>0</asrwt>
<pdfrwt beam="1">  1        2 0.56978486E+00 0.42454388E+04</pdfrwt>
<pdfrwt beam="2">  1       -2 0.18717488E+00 0.42454388E+04</pdfrwt>
<totfact> 0.72476362E-02</totfact>
</mgrwt>
</event>
<event>
 4    1  0.2482334E-008  0.2819706E+04  0.7816531E-02  0.8297176E-01
          2   -1    0    0  501    0  0.00000000000E+00  0.00000000000E+00  0.11025127842E+04  0.11025127842E+04  0.00000000000E+00 0.  1.
         -2   -1    0    0    0  501 -0.00000000000E+00 -0.00000000000E+00 -0.18028683834E+04  0.18028683834E+04  0.00000000000E+00 0. -1.
    2000013    1    1    2    0    0  0.35451119476E+03  0.58395016075E+03  0.46017188526E+03  0.12573520356E+04  0.95000000000E+03 0.  0.
   -2000013    1    1    2    0    0 -0.35451119476E+03 -0.58395016075E+03 -0.11605274845E+04  0.16480291320E+04  0.95000000000E+03 0.  0.
<mgrwt>
<rscale>  0 0.28197060E+04</rscale>
<asrwt>0</asrwt>
<pdfrwt beam="1">  1        2 0.16961735E+00 0.28197060E+04</pdfrwt>
<pdfrwt beam="2">  1       -2 0.27736436E+00 0.28197060E+04</pdfrwt>
<totfact> 0.82414367E-01</totfact>
</mgrwt>
</event>
<event>
 4    1  0.2482334E-008  0.2297677E+04  0.7816531E-02  0.8478838E-01
          2   -1    0    0  501    0  0.00000000000E+00  0.00000000000E+00  0.21017569794E+04  0.21017569794E+04  0.00000000000E+00 0.  1.
         -2   -1    0    0    0  501 -0.00000000000E+00 -0.00000000000E+00 -0.62796503684E+03  0.62796503684E+03  0.00000000000E+00 0. -1.
    2000013    1    1    2    0    0 -0.61291184978E+03 -0.70990750362E+02  0.50952049734E+03  0.12420997381E+04  0.95000000000E+03 0.  0.
   -2000013    1    1    2    0    0  0.61291184978E+03  0.70990750362E+02  0.96427144520E+03  0.14876222781E+04  0.95000000000E+03 0.  0.
<mgrwt>
<rscale>  0 0.22976770E+04</rscale>
<asrwt>0</asrwt>
<pdfrwt beam="1">  1        2 0.32334722E+00 0.22976770E+04</pdfrwt>
<pdfrwt beam="2">  1       -2 0.96610007E-01 0.22976770E+04</pdfrwt>
<totfact> 0.47627829E+00</totfact>
</mgrwt>
</event>
<event>
 4    1  0.2482334E-008  0.2054727E+04  0.7816531E-02  0.8581453E-01
          2   -1    0    0  501    0  0.00000000000E+00  0.00000000000E+00  0.60352696216E+03  0.60352696216E+03  0.00000000000E+00 0.  1.
         -2   -1    0    0    0  501 -0.00000000000E+00 -0.00000000000E+00 -0.17488454743E+04  0.17488454743E+04  0.00000000000E+00 0. -1.
    2000013    1    1    2    0    0  0.32110249300E+03  0.21943595369E+03 -0.52522770721E+03  0.11530928381E+04  0.95000000000E+03 0.  0.
   -2000013    1    1    2    0    0 -0.32110249300E+03 -0.21943595369E+03 -0.62009080495E+03  0.11992795984E+04  0.95000000000E+03 0.  0.
<mgrwt>
<rscale>  0 0.20547266E+04</rscale>
<asrwt>0</asrwt>
<pdfrwt beam="1">  1        2 0.92850304E-01 0.20547266E+04</pdfrwt>
<pdfrwt beam="2">  1       -2 0.26905315E+00 0.20547266E+04</pdfrwt>
<totfact> 0.22375597E+00</totfact>
</mgrwt>
</event>
<event>
 4    1  0.2482334E-008  0.2524468E+04  0.7816531E-02  0.8394320E-01
          2   -1    0    0  501    0  0.00000000000E+00  0.00000000000E+00  0.28278413501E+04  0.28278413501E+04  0.00000000000E+00 0.  1.
         -2   -1    0    0    0  501 -0.00000000000E+00 -0.00000000000E+00 -0.56341000240E+03  0.56341000240E+03  0.00000000000E+00 0. -1.
    2000013    1    1    2    0    0 -0.72593797727E+03  0.40261855843E+03  0.10777071213E+04  0.16592288238E+04  0.95000000000E+03 0.  0.
   -2000013    1    1    2    0    0  0.72593797727E+03 -0.40261855843E+03  0.11867242264E+04  0.17320225287E+04  0.95000000000E+03 0.  0.
<mgrwt>
<rscale>  0 0.25244675E+04</rscale>
<asrwt>0</asrwt>
<pdfrwt beam="1">  1        2 0.43505251E+00 0.25244675E+04</pdfrwt>
<pdfrwt beam="2">  1       -2 0.86678464E-01 0.25244675E+04</pdfrwt>
<totfact> 0.22809738E+00</totfact>
</mgrwt>
</event>
<event>
 4    1  0.2482334E-008  0.1972073E+04  0.7816531E-02  0.8619790E-01
          2   -1    0    0  501    0  0.00000000000E+00  0.00000000000E+00  0.16380067087E+04  0.16380067087E+04  0.00000000000E+00 0.  1.
         -2   -1    0    0    0  501 -0.00000000000E+00 -0.00000000000E+00 -0.59356791168E+03  0.59356791168E+03  0.00000000000E+00 0. -1.
    2000013    1    1    2    0    0  0.19638198208E+03 -0.11411027886E+03  0.36963875623E+03  0.10443753390E+04  0.95000000000E+03 0.  0.
   -2000013    1    1    2    0    0 -0.19638198208E+03  0.11411027886E+03  0.67480004080E+03  0.11871992814E+04  0.95000000000E+03 0.  0.
<mgrwt>
<rscale>  0 0.19720732E+04</rscale>
<asrwt>0</asrwt>
<pdfrwt beam="1">  1        2 0.25200103E+00 0.19720732E+04</pdfrwt>
<pdfrwt beam="2">  1       -2 0.91318141E-01 0.19720732E+04</pdfrwt>
<totfact> 0.10104506E+01</totfact>
</mgrwt>
</event>
<event>
 4    1  0.2482334E-008  0.3255033E+04  0.7816531E-02  0.8174432E-01
          2   -1    0    0  501    0  0.00000000000E+00  0.00000000000E+00  0.26140053195E+04  0.26140053195E+04  0.00000000000E+00 0.  1.
         -2   -1    0    0    0  501 -0.00000000000E+00 -0.00000000000E+00 -0.10133147077E+04  0.10133147077E+04  0.00000000000E+00 0. -1.
    2000013    1    1    2    0    0  0.12001297635E+04 -0.54436587532E+03  0.69079401804E+03  0.17653164110E+04  0.95000000000E+03 0.  0.
   -2000013    1    1    2    0    0 -0.12001297635E+04  0.54436587532E+03  0.90989659373E+03  0.18620036162E+04  0.95000000000E+03 0.  0.
<mgrwt>
<rscale>  0 0.32550330E+04</rscale>
<asrwt>0</asrwt>
<pdfrwt beam="1">  1        2 0.40215466E+00 0.32550330E+04</pdfrwt>
<pdfrwt beam="2">  1       -2 0.15589457E+00 0.32550330E+04</pdfrwt>
<totfact> 0.67639276E-01</totfact>
</mgrwt>
</event>
<event>
 4    1  0.2482334E-008  0.2779741E+04  0.7816531E-02  0.8309586E-01
          4   -1    0    0  501    0  0.00000000000E+00  0.00000000000E+00  0.13948522680E+04  0.13948522680E+04  0.00000000000E+00 0.  1.
         -4   -1    0    0    0  501 -0.00000000000E+00 -0.00000000000E+00 -0.13849062708E+04  0.13849062708E+04  0.00000000000E+00 0. -1.
    2000013    1    1    2    0    0  0.89872108808E+03  0.38612141156E+03  0.27414068176E+03  0.13908423534E+04  0.95000000000E+03 0.  0.
   -2000013    1    1    2    0    0 -0.89872108808E+03 -0.38612141156E+03 -0.26419468454E+03  0.13889161854E+04  0.95000000000E+03 0.  0.
<mgrwt>
<rscale>  0 0.27797407E+04</rscale>
<asrwt>0</asrwt>
<pdfrwt beam="1">  1        4 0.21459266E+00 0.27797407E+04</pdfrwt>
<pdfrwt beam="2">  1       -4 0.21306250E+00 0.27797407E+04</pdfrwt>
<totfact> 0.19805808E-02</totfact>
</mgrwt>
</event>
<event>
 4    1  0.2482334E-008  0.2673107E+04  0.7816531E-02  0.8343784E-01
         -1   -1    0    0    0  501 -0.00000000000E+00  0.00000000000E+00  0.10547987740E+04  0.10547987740E+04  0.00000000000E+00 0. -1.
          1   -1    0    0  501    0  0.00000000000E+00 -0.00000000000E+00 -0.16935702049E+04  0.16935702049E+04  0.00000000000E+00 0.  1.
    2000013    1    1    2    0    0 -0.45680814230E+03  0.47507041037E+03 -0.10087176658E+04  0.15343978959E+04  0.95000000000E+03 0.  0.
   -2000013    1    1    2    0    0  0.45680814230E+03 -0.47507041037E+03  0.36994623482E+03  0.12139710830E+04  0.95000000000E+03 0.  0.
<mgrwt>
<rscale>  0 0.26731074E+04</rscale>
<asrwt>0</asrwt>
<pdfrwt beam="2">  1        1 0.26054926E+00 0.26731074E+04</pdfrwt>
<pdfrwt beam="1">  1       -1 0.16227673E+00 0.26731074E+04</pdfrwt>
<totfact> 0.11835330E+00</totfact>
</mgrwt>
</event>
<event>
 4    1  0.2482334E-008  0.2810449E+04  0.7816531E-02  0.8300032E-01
          2   -1    0    0  501    0  0.00000000000E+00  0.00000000000E+00  0.35452834070E+04  0.35452834070E+04  0.00000000000E+00 0.  1.
         -2   -1    0    0    0  501 -0.00000000000E+00 -0.00000000000E+00 -0.55698118598E+03  0.55698118598E+03  0.00000000000E+00 0. -1.
    2000013    1    1    2    0    0  0.71487912881E+03  0.72638203270E+03  0.12270989499E+04  0.18565976568E+04  0.95000000000E+03 0.  0.
   -2000013    1    1    2    0    0 -0.71487912881E+03 -0.72638203270E+03  0.17612032711E+04  0.22456669362E+04  0.95000000000E+03 0.  0.
<mgrwt>
<rscale>  0 0.28104492E+04</rscale>
<asrwt>0</asrwt>
<pdfrwt beam="1">  1        2 0.54542820E+00 0.28104492E+04</pdfrwt>
<pdfrwt beam="2">  1       -2 0.85689415E-01 0.28104492E+04</pdfrwt>
<totfact> 0.77673813E-01</totfact>
</mgrwt>
</event>
<event>
 4    1  0.2482334E-008  0.2302452E+04  0.7816531E-02  0.8476955E-01
         -2   -1    0    0    0  501 -0.00000000000E+00  0.00000000000E+00  0.11441280814E+04  0.11441280814E+04  0.00000000000E+00 0. -1.
          2   -1    0    0  501    0  0.00000000000E+00 -0.00000000000E+00 -0.11583677955E+04  0.11583677955E+04  0.00000000000E+00 0.  1.
    2000013    1    1    2    0    0 -0.17562575262E+03 -0.59508861321E+03 -0.20166473221E+03  0.11524510952E+04  0.95000000000E+03 0.  0.
   -2000013    1    1    2    0    0  0.17562575262E+03  0.59508861321E+03  0.18742501813E+03  0.11500447817E+04  0.95000000000E+03 0.  0.
<mgrwt>
<rscale>  0 0.23024518E+04</rscale>
<asrwt>0</asrwt>
<pdfrwt beam="2">  1        2 0.17821043E+00 0.23024518E+04</pdfrwt>
<pdfrwt beam="1">  1       -2 0.17601970E+00 0.23024518E+04</pdfrwt>
<totfact> 0.35152626E+00</totfact>
</mgrwt>
</event>
<event>
 4    1  0.2482334E-008  0.2508404E+04  0.7816531E-02  0.8399998E-01
          2   -1    0    0  501    0  0.00000000000E+00  0.00000000000E+00  0.35341709729E+04  0.35341709729E+04  0.00000000000E+00 0.  1.
         -2   -1    0    0    0  501 -0.00000000000E+00 -0.00000000000E+00 -0.44508969063E+03  0.44508969063E+03  0.00000000000E+00 0. -1.
    2000013    1    1    2    0    0  0.29436930642E+03  0.35172527024E+03  0.26206560752E+04  0.28250136670E+04  0.95000000000E+03 0.  0.
   -2000013    1    1    2    0    0 -0.29436930642E+03 -0.35172527024E+03  0.46842520699E+03  0.11542469965E+04  0.95000000000E+03 0.  0.
<mgrwt>
<rscale>  0 0.25084043E+04</rscale>
<asrwt>0</asrwt>
<pdfrwt beam="1">  1        2 0.54371859E+00 0.25084043E+04</pdfrwt>
<pdfrwt beam="2">  1       -2 0.68475340E-01 0.25084043E+04</pdfrwt>
<totfact> 0.13389158E+00</totfact>
</mgrwt>
</event>
<event>
 4    1  0.2482334E-008  0.3386197E+04  0.7816531E-02  0.8141302E-01
          2   -1    0    0  501    0  0.00000000000E+00  0.00000000000E+00  0.14412089514E+04  0.14412089514E+04  0.00000000000E+00 0.  1.
         -2   -1    0    0    0  501 -0.00000000000E+00 -0.00000000000E+00 -0.19890127690E+04  0.19890127690E+04  0.00000000000E+00 0. -1.
    2000013    1    1    2    0    0 -0.11602862079E+04  0.78394698683E+03 -0.21618710936E+03  0.17058938503E+04  0.95000000000E+03 0.  0.
   -2000013    1    1    2    0    0  0.11602862079E+04 -0.78394698683E+03 -0.33161670815E+03  0.17243278701E+04  0.95000000000E+03 0.  0.
<mgrwt>
<rscale>  0 0.33861973E+04</rscale>
<asrwt>0</asrwt>
<pdfrwt beam="1">  1        2 0.22172445E+00 0.33861973E+04</pdfrwt>
<pdfrwt beam="2">  1       -2 0.30600196E+00 0.33861973E+04</pdfrwt>
<totfact> 0.33192091E-01</totfact>
</mgrwt>
</event>
<event>
 4    1  0.2482334E-008  0.2892137E+04  0.7816531E-02  0.8275221E-01
          2   -1    0    0  501    0  0.00000000000E+00  0.00000000000E+00  0.24724823317E+04  0.24724823317E+04  0.00000000000E+00 0.  1.
         -2   -1    0    0    0  501 -0.00000000000E+00 -0.00000000000E+00 -0.84575518431E+03  0.84575518431E+03  0.00000000000E+00 0. -1.
    2000013    1    1    2    0    0  0.82303127294E+03 -0.46723858557E+03  0.19240187076E+03  0.13546995431E+04  0.95000000000E+03 0.  0.
   -2000013    1    1    2    0    0 -0.82303127294E+03  0.46723858557E+03  0.14343252767E+04  0.19635379730E+04  0.95000000000E+03 0.  0.
<mgrwt>
<rscale>  0 0.28921374E+04</rscale>
<asrwt>0</asrwt>
<pdfrwt beam="1">  1        2 0.38038189E+00 0.28921374E+04</pdfrwt>
<pdfrwt beam="2">  1       -2 0.13011618E+00 0.28921374E+04</pdfrwt>
<totfact> 0.13511281E+00</totfact>
</mgrwt>
</event>
<event>
 4    1  0.2482334E-008  0.2783072E+04  0.7816531E-02  0.8308543E-01
          2   -1    0    0  501    0  0.00000000000E+00  0.00000000000E+00  0.21237333352E+04  0.21237333352E+04  0.00000000000E+00 0.  1.
         -2   -1    0    0    0  501 -0.00000000000E+00 -0.00000000000E+00 -0.91177786755E+03  0.91177786755E+03  0.00000000000E+00 0. -1.
    2000013    1    1    2    0    0 -0.37691082302E+03  0.86845677381E+03  0.20139507965E+03  0.13562222954E+04  0.95000000000E+03 0.  0.
   -2000013    1    1    2    0    0  0.37691082302E+03 -0.86845677381E+03  0.10105603880E+04  0.16792889073E+04  0.95000000000E+03 0.  0.
<mgrwt>
<rscale>  0 0.27830724E+04</rscale>
<asrwt>0</asrwt>
<pdfrwt beam="1">  1        2 0.32672820E+00 0.27830724E+04</pdfrwt>
<pdfrwt beam="2">  1       -2 0.14027352E+00 0.27830724E+04</pdfrwt>
<totfact> 0.17744803E+00</totfact>
</mgrwt>
</event>
<event>
 4    1  0.2482334E-008  0.2978288E+04  0.7816531E-02  0.8249958E-01
         -2   -1    0    0    0  501 -0.00000000000E+00  0.00000000000E+00  0.72239958041E+03  0.72239958041E+03  0.00000000000E+00 0. -1.
          2   -1    0    0  501    0  0.00000000000E+00 -0.00000000000E+00 -0.30696988917E+04  0.30696988917E+04  0.00000000000E+00 0.  1.
    2000013    1    1    2    0    0 -0.98888045831E+03 -0.32365441522E+03 -0.55982733893E+03  0.15160947829E+04  0.95000000000E+03 0.  0.
   -2000013    1    1    2    0    0  0.98888045831E+03  0.32365441522E+03 -0.17874719723E+04  0.22760036892E+04  0.95000000000E+03 0.  0.
<mgrwt>
<rscale>  0 0.29782876E+04</rscale>
<asrwt>0</asrwt>
<pdfrwt beam="2">  1        2 0.47226136E+00 0.29782876E+04</pdfrwt>
<pdfrwt beam="1">  1       -2 0.11113840E+00 0.29782876E+04</pdfrwt>
<totfact> 0.86403255E-01</totfact>
</mgrwt>
</event>
<event>
 4    1  0.2482334E-008  0.2872063E+04  0.7816531E-02  0.8281239E-01
          2   -1    0    0  501    0  0.00000000000E+00  0.00000000000E+00  0.18483782082E+04  0.18483782082E+04  0.00000000000E+00 0.  1.
         -2   -1    0    0    0  501 -0.00000000000E+00 -0.00000000000E+00 -0.11156730601E+04  0.11156730601E+04  0.00000000000E+00 0. -1.
    2000013    1    1    2    0    0 -0.36913396508E+03  0.41046438588E+03 -0.58789459299E+03  0.12461384148E+04  0.95000000000E+03 0.  0.
   -2000013    1    1    2    0    0  0.36913396508E+03 -0.41046438588E+03  0.13205997410E+04  0.17179128535E+04  0.95000000000E+03 0.  0.
<mgrwt>
<rscale>  0 0.28720625E+04</rscale>
<asrwt>0</asrwt>
<pdfrwt beam="1">  1        2 0.28436588E+00 0.28720625E+04</pdfrwt>
<pdfrwt beam="2">  1       -2 0.17164201E+00 0.28720625E+04</pdfrwt>
<totfact> 0.14560638E+00</totfact>
</mgrwt>
</event>
<event>
 4    1  0.2482334E-008  0.4051584E+04  0.7816531E-02  0.7994221E-01
         -2   -1    0    0    0  501 -0.00000000000E+00  0.00000000000E+00  0.19892201779E+04  0.19892201779E+04  0.00000000000E+00 0. -1.
          2   -1    0    0  501    0  0.00000000000E+00 -0.00000000000E+00 -0.20630361647E+04  0.20630361647E+04  0.00000000000E+00 0.  1.
    2000013    1    1    2    0    0 -0.70492545129E+03  0.15052976636E+04 -0.69920533512E+03  0.20381925936E+04  0.95000000000E+03 0.  0.
   -2000013    1    1    2    0    0  0.70492545129E+03 -0.15052976636E+04  0.62538934830E+03  0.20140637490E+04  0.95000000000E+03 0.  0.
<mgrwt>
<rscale>  0 0.40515840E+04</rscale>
<asrwt>0</asrwt>
<pdfrwt beam="2">  1        2 0.31739018E+00 0.40515840E+04</pdfrwt>
<pdfrwt beam="1">  1       -2 0.30603387E+00 0.40515840E+04</pdfrwt>
<totfact> 0.14129876E-01</totfact>
</mgrwt>
</event>
<event>
 4    1  0.2482334E-008  0.2128410E+04  0.7816531E-02  0.8548831E-01
         -2   -1    0    0    0  501 -0.00000000000E+00  0.00000000000E+00  0.11212358628E+04  0.11212358628E+04  0.00000000000E+00 0. -1.
          2   -1    0    0  501    0  0.00000000000E+00 -0.00000000000E+00 -0.10100752024E+04  0.10100752024E+04  0.00000000000E+00 0.  1.
    2000013    1    1    2    0    0  0.10866566049E+03 -0.43771374270E+03 -0.10783213946E+03  0.10571325918E+04  0.95000000000E+03 0.  0.
   -2000013    1    1    2    0    0 -0.10866566049E+03  0.43771374270E+03  0.21899279990E+03  0.10741784734E+04  0.95000000000E+03 0.  0.
<mgrwt>
<rscale>  0 0.21284102E+04</rscale>
<asrwt>0</asrwt>
<pdfrwt beam="2">  1        2 0.15539618E+00 0.21284102E+04</pdfrwt>
<pdfrwt beam="1">  1       -2 0.17249783E+00 0.21284102E+04</pdfrwt>
<totfact> 0.46677628E+00</totfact>
</mgrwt>
</event>
<event>
 4    1  0.2482334E-008  0.2234507E+04  0.7816531E-02  0.8504201E-01
          2   -1    0    0  501    0  0.00000000000E+00  0.00000000000E+00  0.56886764790E+03  0.56886764790E+03  0.00000000000E+00 0.  1.
         -2   -1    0    0    0  501 -0.00000000000E+00 -0.00000000000E+00 -0.21942812351E+04  0.21942812351E+04  0.00000000000E+00 0. -1.
    2000013    1    1    2    0    0 -0.30956003734E+03  0.48987289764E+03 -0.93607228507E+03  0.14541438015E+04  0.95000000000E+03 0.  0.
   -2000013    1    1    2    0    0  0.30956003734E+03 -0.48987289764E+03 -0.68934130210E+03  0.13090050815E+04  0.95000000000E+03 0.  0.
<mgrwt>
<rscale>  0 0.22345072E+04</rscale>
<asrwt>0</asrwt>
<pdfrwt beam="1">  1        2 0.87518098E-01 0.22345072E+04</pdfrwt>
<pdfrwt beam="2">  1       -2 0.33758173E+00 0.22345072E+04</pdfrwt>
<totfact> 0.89840707E-01</totfact>
</mgrwt>
</event>
<event>
 4    1  0.2482334E-008  0.2563001E+04  0.7816531E-02  0.8380879E-01
         -2   -1    0    0    0  501 -0.00000000000E+00  0.00000000000E+00  0.15509178980E+04  0.15509178980E+04  0.00000000000E+00 0. -1.
          2   -1    0    0  501    0  0.00000000000E+00 -0.00000000000E+00 -0.10588845052E+04  0.10588845052E+04  0.00000000000E+00 0.  1.
    2000013    1    1    2    0    0 -0.53629623080E+03  0.55031410609E+03 -0.14741113578E+03  0.12307271450E+04  0.95000000000E+03 0.  0.
   -2000013    1    1    2    0    0  0.53629623080E+03 -0.55031410609E+03  0.63944452865E+03  0.13790752582E+04  0.95000000000E+03 0.  0.
<mgrwt>
<rscale>  0 0.25630005E+04</rscale>
<asrwt>0</asrwt>
<pdfrwt beam="2">  1        2 0.16290531E+00 0.25630005E+04</pdfrwt>
<pdfrwt beam="1">  1       -2 0.23860275E+00 0.25630005E+04</pdfrwt>
<totfact> 0.15492801E+00</totfact>
</mgrwt>
</event>
<event>
 4    1  0.2482334E-008  0.2652661E+04  0.7816531E-02  0.8350530E-01
          2   -1    0    0  501    0  0.00000000000E+00  0.00000000000E+00  0.26700785605E+04  0.26700785605E+04  0.00000000000E+00 0.  1.
         -2   -1    0    0    0  501 -0.00000000000E+00 -0.00000000000E+00 -0.65883929689E+03  0.65883929689E+03  0.00000000000E+00 0. -1.
    2000013    1    1    2    0    0 -0.82034093256E+03  0.80709336730E+02  0.15338556088E+04  0.19836043636E+04  0.95000000000E+03 0.  0.
   -2000013    1    1    2    0    0  0.82034093256E+03 -0.80709336730E+02  0.47738365480E+03  0.13453134938E+04  0.95000000000E+03 0.  0.
<mgrwt>
<rscale>  0 0.26526611E+04</rscale>
<asrwt>0</asrwt>
<pdfrwt beam="1">  1        2 0.41078131E+00 0.26526611E+04</pdfrwt>
<pdfrwt beam="2">  1       -2 0.10135989E+00 0.26526611E+04</pdfrwt>
<totfact> 0.19484513E+00</totfact>
</mgrwt>
</event>
<event>
 4    1  0.2482334E-008  0.2587421E+04  0.7816531E-02  0.8372487E-01
          1   -1    0    0  501    0  0.00000000000E+00  0.00000000000E+00  0.15553717362E+04  0.15553717362E+04  0.00000000000E+00 0.  1.
         -1   -1    0    0    0  501 -0.00000000000E+00 -0.00000000000E+00 -0.10760684677E+04  0.10760684677E+04  0.00000000000E+00 0. -1.
    2000013    1    1    2    0    0 -0.47472969852E+03  0.73783160809E+03  0.20129106922E+03  0.13087329228E+04  0.95000000000E+03 0.  0.
   -2000013    1    1    2    0    0  0.47472969852E+03 -0.73783160809E+03  0.27801219935E+03  0.13227072811E+04  0.95000000000E+03 0.  0.
<mgrwt>
<rscale>  0 0.25874207E+04</rscale>
<asrwt>0</asrwt>
<pdfrwt beam="1">  1        1 0.23928796E+00 0.25874207E+04</pdfrwt>
<pdfrwt beam="2">  1       -1 0.16554899E+00 0.25874207E+04</pdfrwt>
<totfact> 0.14019501E+00</totfact>
</mgrwt>
</event>
<event>
 4    1  0.2482334E-008  0.2241417E+04  0.7816531E-02  0.8501385E-01
          2   -1    0    0  501    0  0.00000000000E+00  0.00000000000E+00  0.31281762982E+04  0.31281762982E+04  0.00000000000E+00 0.  1.
         -2   -1    0    0    0  501 -0.00000000000E+00 -0.00000000000E+00 -0.40150787820E+03  0.40150787820E+03  0.00000000000E+00 0. -1.
    2000013    1    1    2    0    0 -0.45860838585E+03 -0.26011235887E+03  0.93061339739E+03  0.14305668059E+04  0.95000000000E+03 0.  0.
   -2000013    1    1    2    0    0  0.45860838585E+03  0.26011235887E+03  0.17960550226E+04  0.20991173705E+04  0.95000000000E+03 0.  0.
<mgrwt>
<rscale>  0 0.22414169E+04</rscale>
<asrwt>0</asrwt>
<pdfrwt beam="1">  1        2 0.48125788E+00 0.22414169E+04</pdfrwt>
<pdfrwt beam="2">  1       -2 0.61770445E-01 0.22414169E+04</pdfrwt>
<totfact> 0.32064260E+00</totfact>
</mgrwt>
</event>
<event>
 4    1  0.2482334E-008  0.2600533E+04  0.7816531E-02  0.8368020E-01
          1   -1    0    0  501    0  0.00000000000E+00  0.00000000000E+00  0.13035070233E+04  0.13035070233E+04  0.00000000000E+00 0. -1.
         -1   -1    0    0    0  501 -0.00000000000E+00 -0.00000000000E+00 -0.12970342446E+04  0.12970342446E+04  0.00000000000E+00 0.  1.
    2000013    1    1    2    0    0 -0.86466622727E+03  0.19891043151E+03 -0.28071901172E+02  0.13001927072E+04  0.95000000000E+03 0.  0.
   -2000013    1    1    2    0    0  0.86466622727E+03 -0.19891043151E+03  0.34544679852E+02  0.13003485607E+04  0.95000000000E+03 0.  0.
<mgrwt>
<rscale>  0 0.26005332E+04</rscale>
<asrwt>0</asrwt>
<pdfrwt beam="1">  1        1 0.20053954E+00 0.26005332E+04</pdfrwt>
<pdfrwt beam="2">  1       -1 0.19954373E+00 0.26005332E+04</pdfrwt>
<totfact> 0.12008109E+00</totfact>
</mgrwt>
</event>
<event>
 4    1  0.2482334E-008  0.3417069E+04  0.7816531E-02  0.8133730E-01
         -2   -1    0    0    0  501 -0.00000000000E+00  0.00000000000E+00  0.21248194941E+04  0.21248194941E+04  0.00000000000E+00 0. -1.
          2   -1    0    0  501    0  0.00000000000E+00 -0.00000000000E+00 -0.13738062848E+04  0.13738062848E+04  0.00000000000E+00 0.  1.
    2000013    1    1    2    0    0  0.54379743221E+03 -0.10466767832E+04  0.11851665919E+04  0.19231140857E+04  0.95000000000E+03 0.  0.
   -2000013    1    1    2    0    0 -0.54379743221E+03  0.10466767832E+04 -0.43415338269E+03  0.15755116932E+04  0.95000000000E+03 0.  0.
<mgrwt>
<rscale>  0 0.34170691E+04</rscale>
<asrwt>0</asrwt>
<pdfrwt beam="2">  1        2 0.21135481E+00 0.34170691E+04</pdfrwt>
<pdfrwt beam="1">  1       -2 0.32689531E+00 0.34170691E+04</pdfrwt>
<totfact> 0.26888134E-01</totfact>
</mgrwt>
</event>
<event>
 4    1  0.2482334E-008  0.2671541E+04  0.7816531E-02  0.8344299E-01
          2   -1    0    0  501    0  0.00000000000E+00  0.00000000000E+00  0.10569964564E+04  0.10569964564E+04  0.00000000000E+00 0.  1.
         -2   -1    0    0    0  501 -0.00000000000E+00 -0.00000000000E+00 -0.16880683489E+04  0.16880683489E+04  0.00000000000E+00 0. -1.
    2000013    1    1    2    0    0  0.35597561135E+02 -0.92015396377E+03 -0.50453216677E+03  0.14159813596E+04  0.95000000000E+03 0.  0.
   -2000013    1    1    2    0    0 -0.35597561135E+02  0.92015396377E+03 -0.12653972578E+03  0.13290834457E+04  0.95000000000E+03 0.  0.
<mgrwt>
<rscale>  0 0.26715406E+04</rscale>
<asrwt>0</asrwt>
<pdfrwt beam="1">  1        2 0.16261484E+00 0.26715406E+04</pdfrwt>
<pdfrwt beam="2">  1       -2 0.25970282E+00 0.26715406E+04</pdfrwt>
<totfact> 0.11415762E+00</totfact>
</mgrwt>
</event>
<event>
 4    1  0.2482334E-008  0.2773775E+04  0.7816531E-02  0.8311457E-01
          2   -1    0    0  501    0  0.00000000000E+00  0.00000000000E+00  0.26097228954E+04  0.26097228954E+04  0.00000000000E+00 0.  1.
         -2   -1    0    0    0  501 -0.00000000000E+00 -0.00000000000E+00 -0.73703485358E+03  0.73703485358E+03  0.00000000000E+00 0. -1.
    2000013    1    1    2    0    0  0.45675851791E+03  0.50394845742E+03  0.34748161266E+02  0.11688882864E+04  0.95000000000E+03 0.  0.
   -2000013    1    1    2    0    0 -0.45675851791E+03 -0.50394845742E+03  0.18379398805E+04  0.21778694625E+04  0.95000000000E+03 0.  0.
<mgrwt>
<rscale>  0 0.27737749E+04</rscale>
<asrwt>0</asrwt>
<pdfrwt beam="1">  1        2 0.40149583E+00 0.27737749E+04</pdfrwt>
<pdfrwt beam="2">  1       -2 0.11338998E+00 0.27737749E+04</pdfrwt>
<totfact> 0.15979273E+00</totfact>
</mgrwt>
</event>
<event>
 4    1  0.2482334E-008  0.2736308E+04  0.7816531E-02  0.8323320E-01
          2   -1    0    0  501    0  0.00000000000E+00  0.00000000000E+00  0.12091445934E+04  0.12091445934E+04  0.00000000000E+00 0.  1.
         -2   -1    0    0    0  501 -0.00000000000E+00 -0.00000000000E+00 -0.15480735529E+04  0.15480735529E+04  0.00000000000E+00 0. -1.
    2000013    1    1    2    0    0 -0.12740161813E+03 -0.93932045071E+03  0.98633953406E+02  0.13456532756E+04  0.95000000000E+03 0.  0.
   -2000013    1    1    2    0    0  0.12740161813E+03  0.93932045071E+03 -0.43756291286E+03  0.14115648707E+04  0.95000000000E+03 0.  0.
<mgrwt>
<rscale>  0 0.27363076E+04</rscale>
<asrwt>0</asrwt>
<pdfrwt beam="1">  1        2 0.18602224E+00 0.27363076E+04</pdfrwt>
<pdfrwt beam="2">  1       -2 0.23816516E+00 0.27363076E+04</pdfrwt>
<totfact> 0.12440439E+00</totfact>
</mgrwt>
</event>
<event>
 4    1  0.2482334E-008  0.2786607E+04  0.7816531E-02  0.8307439E-01
         -2   -1    0    0    0  501 -0.00000000000E+00  0.00000000000E+00  0.14083671412E+04  0.14083671412E+04  0.00000000000E+00 0. -1.
          2   -1    0    0  501    0  0.00000000000E+00 -0.00000000000E+00 -0.13784007038E+04  0.13784007038E+04  0.00000000000E+00 0.  1.
    2000013    1    1    2    0    0 -0.51472369508E+03  0.78304001922E+03  0.41588306749E+03  0.13976948450E+04  0.95000000000E+03 0.  0.
   -2000013    1    1    2    0    0  0.51472369508E+03 -0.78304001922E+03 -0.38591663006E+03  0.13890730000E+04  0.95000000000E+03 0.  0.
<mgrwt>
<rscale>  0 0.27866067E+04</rscale>
<asrwt>0</asrwt>
<pdfrwt beam="2">  1        2 0.21206165E+00 0.27866067E+04</pdfrwt>
<pdfrwt beam="1">  1       -2 0.21667187E+00 0.27866067E+04</pdfrwt>
<totfact> 0.13460204E+00</totfact>
</mgrwt>
</event>
<event>
 4    1  0.2482334E-008  0.2600988E+04  0.7816531E-02  0.8367866E-01
          2   -1    0    0  501    0  0.00000000000E+00  0.00000000000E+00  0.11862797669E+04  0.11862797669E+04  0.00000000000E+00 0. -1.
         -2   -1    0    0    0  501 -0.00000000000E+00 -0.00000000000E+00 -0.14257043248E+04  0.14257043248E+04  0.00000000000E+00 0.  1.
    2000013    1    1    2    0    0 -0.79066197946E+02 -0.88002639393E+03 -0.29408374304E+02  0.12977144409E+04  0.95000000000E+03 0.  0.
   -2000013    1    1    2    0    0  0.79066197946E+02  0.88002639393E+03 -0.21001618358E+03  0.13142696508E+04  0.95000000000E+03 0.  0.
<mgrwt>
<rscale>  0 0.26009877E+04</rscale>
<asrwt>0</asrwt>
<pdfrwt beam="1">  1        2 0.18250458E+00 0.26009877E+04</pdfrwt>
<pdfrwt beam="2">  1       -2 0.21933912E+00 0.26009877E+04</pdfrwt>
<totfact> 0.17037504E+00</totfact>
</mgrwt>
</event>
<event>
 4    1  0.2482334E-008  0.2106715E+04  0.7816531E-02  0.8558291E-01
         -2   -1    0    0    0  501 -0.00000000000E+00  0.00000000000E+00  0.56856044232E+03  0.56856044232E+03  0.00000000000E+00 0. -1.
          2   -1    0    0  501    0  0.00000000000E+00 -0.00000000000E+00 -0.19515296290E+04  0.19515296290E+04  0.00000000000E+00 0.  1.
    2000013    1    1    2    0    0  0.76149112986E+02 -0.44817281956E+03 -0.66741161159E+03  0.12468343205E+04  0.95000000000E+03 0.  0.
   -2000013    1    1    2    0    0 -0.76149112986E+02  0.44817281956E+03 -0.71555757510E+03  0.12732557508E+04  0.95000000000E+03 0.  0.
<mgrwt>
<rscale>  0 0.21067155E+04</rscale>
<asrwt>0</asrwt>
<pdfrwt beam="2">  1        2 0.30023533E+00 0.21067155E+04</pdfrwt>
<pdfrwt beam="1">  1       -2 0.87470837E-01 0.21067155E+04</pdfrwt>
<totfact> 0.73884658E+00</totfact>
</mgrwt>
</event>
<event>
 4    1  0.2482334E-008  0.2171812E+04  0.7816531E-02  0.8530253E-01
         -2   -1    0    0    0  501 -0.00000000000E+00  0.00000000000E+00  0.30557675450E+04  0.30557675450E+04  0.00000000000E+00 0. -1.
          2   -1    0    0  501    0  0.00000000000E+00 -0.00000000000E+00 -0.38589039790E+03  0.38589039790E+03  0.00000000000E+00 0.  1.
    2000013    1    1    2    0    0 -0.31909628616E+03 -0.41031648294E+03  0.14627920781E+04  0.18200117361E+04  0.95000000000E+03 0.  0.
   -2000013    1    1    2    0    0  0.31909628616E+03  0.41031648294E+03  0.12070850690E+04  0.16216462067E+04  0.95000000000E+03 0.  0.
<mgrwt>
<rscale>  0 0.21718116E+04</rscale>
<asrwt>0</asrwt>
<pdfrwt beam="2">  1        2 0.59367755E-01 0.21718116E+04</pdfrwt>
<pdfrwt beam="1">  1       -2 0.47011807E+00 0.21718116E+04</pdfrwt>
<totfact> 0.19400813E-01</totfact>
</mgrwt>
</event>
<event>
 4    1  0.2482334E-008  0.4389413E+04  0.7816531E-02  0.7930289E-01
          2   -1    0    0  501    0  0.00000000000E+00  0.00000000000E+00  0.20848583306E+04  0.20848583306E+04  0.00000000000E+00 0.  1.
         -2   -1    0    0    0  501 -0.00000000000E+00 -0.00000000000E+00 -0.23103424259E+04  0.23103424259E+04  0.00000000000E+00 0. -1.
    2000013    1    1    2    0    0 -0.56829260886E+03 -0.11868845688E+04  0.13665634499E+04  0.21217085407E+04  0.95000000000E+03 0.  0.
   -2000013    1    1    2    0    0  0.56829260886E+03  0.11868845688E+04 -0.15920475453E+04  0.22734922158E+04  0.95000000000E+03 0.  0.
<mgrwt>
<rscale>  0 0.43894130E+04</rscale>
<asrwt>0</asrwt>
<pdfrwt beam="1">  1        2 0.32074744E+00 0.43894130E+04</pdfrwt>
<pdfrwt beam="2">  1       -2 0.35543730E+00 0.43894130E+04</pdfrwt>
<totfact> 0.65837703E-02</totfact>
</mgrwt>
</event>
<event>
 4    1  0.2482334E-008  0.2390623E+04  0.7816531E-02  0.8443022E-01
          2   -1    0    0  501    0  0.00000000000E+00  0.00000000000E+00  0.11104306749E+04  0.11104306749E+04  0.00000000000E+00 0.  1.
         -2   -1    0    0    0  501 -0.00000000000E+00 -0.00000000000E+00 -0.12866810662E+04  0.12866810662E+04  0.00000000000E+00 0. -1.
    2000013    1    1    2    0    0  0.37342710719E+03  0.53232099764E+03  0.23439459034E+03  0.11748422332E+04  0.95000000000E+03 0.  0.
   -2000013    1    1    2    0    0 -0.37342710719E+03 -0.53232099764E+03 -0.41064498171E+03  0.12222695079E+04  0.95000000000E+03 0.  0.
<mgrwt>
<rscale>  0 0.23906235E+04</rscale>
<asrwt>0</asrwt>
<pdfrwt beam="1">  1        2 0.17083549E+00 0.23906235E+04</pdfrwt>
<pdfrwt beam="2">  1       -2 0.19795093E+00 0.23906235E+04</pdfrwt>
<totfact> 0.26500590E+00</totfact>
</mgrwt>
</event>
<event>
 4    1  0.2482334E-008  0.2836767E+04  0.7816531E-02  0.8291944E-01
          2   -1    0    0  501    0  0.00000000000E+00  0.00000000000E+00  0.30608977162E+04  0.30608977162E+04  0.00000000000E+00 0.  1.
         -2   -1    0    0    0  501 -0.00000000000E+00 -0.00000000000E+00 -0.65726188420E+03  0.65726188420E+03  0.00000000000E+00 0. -1.
    2000013    1    1    2    0    0  0.75973239330E+03 -0.63336595829E+03  0.16761506615E+04  0.21657162295E+04  0.95000000000E+03 0.  0.
   -2000013    1    1    2    0    0 -0.75973239330E+03  0.63336595829E+03  0.72748517044E+03  0.15524433709E+04  0.95000000000E+03 0.  0.
<mgrwt>
<rscale>  0 0.28367668E+04</rscale>
<asrwt>0</asrwt>
<pdfrwt beam="1">  1        2 0.47090734E+00 0.28367668E+04</pdfrwt>
<pdfrwt beam="2">  1       -2 0.10111721E+00 0.28367668E+04</pdfrwt>
<totfact> 0.11117424E+00</totfact>
</mgrwt>
</event>
<event>
 4    1  0.2482334E-008  0.2402814E+04  0.7816531E-02  0.8438451E-01
          2   -1    0    0  501    0  0.00000000000E+00  0.00000000000E+00  0.38152935086E+04  0.38152935086E+04  0.00000000000E+00 0.  1.
         -2   -1    0    0    0  501 -0.00000000000E+00 -0.00000000000E+00 -0.37831399125E+03  0.37831399125E+03  0.00000000000E+00 0. -1.
    2000013    1    1    2    0    0 -0.92133515188E+02 -0.55924658406E+03  0.90055816252E+03  0.14264467500E+04  0.95000000000E+03 0.  0.
   -2000013    1    1    2    0    0  0.92133515188E+02  0.55924658406E+03  0.25364213549E+04  0.27671607499E+04  0.95000000000E+03 0.  0.
<mgrwt>
<rscale>  0 0.24028141E+04</rscale>
<asrwt>0</asrwt>
<pdfrwt beam="1">  1        2 0.58696821E+00 0.24028141E+04</pdfrwt>
<pdfrwt beam="2">  1       -2 0.58202155E-01 0.24028141E+04</pdfrwt>
<totfact> 0.11911713E+00</totfact>
</mgrwt>
</event>
<event>
 4    1  0.2482334E-008  0.2582972E+04  0.7816531E-02  0.8374008E-01
          2   -1    0    0  501    0  0.00000000000E+00  0.00000000000E+00  0.16366326836E+04  0.16366326836E+04  0.00000000000E+00 0.  1.
         -2   -1    0    0    0  501 -0.00000000000E+00 -0.00000000000E+00 -0.10191268639E+04  0.10191268639E+04  0.00000000000E+00 0. -1.
    2000013    1    1    2    0    0  0.56374199585E+03 -0.66021810657E+03  0.19733243992E+03  0.13019727639E+04  0.95000000000E+03 0.  0.
   -2000013    1    1    2    0    0 -0.56374199585E+03  0.66021810657E+03  0.42017337977E+03  0.13537867835E+04  0.95000000000E+03 0.  0.
<mgrwt>
<rscale>  0 0.25829722E+04</rscale>
<asrwt>0</asrwt>
<pdfrwt beam="1">  1        2 0.25178964E+00 0.25829722E+04</pdfrwt>
<pdfrwt beam="2">  1       -2 0.15678875E+00 0.25829722E+04</pdfrwt>
<totfact> 0.25084308E+00</totfact>
</mgrwt>
</event>
<event>
 4    1  0.2482334E-008  0.2029999E+04  0.7816531E-02  0.8592722E-01
          2   -1    0    0  501    0  0.00000000000E+00  0.00000000000E+00  0.99758975902E+03  0.99758975902E+03  0.00000000000E+00 0.  1.
         -2   -1    0    0    0  501 -0.00000000000E+00 -0.00000000000E+00 -0.10327128907E+04  0.10327128907E+04  0.00000000000E+00 0. -1.
    2000013    1    1    2    0    0 -0.30560772413E+03  0.12021862917E+03 -0.15856211128E+03  0.10175905576E+04  0.95000000000E+03 0.  0.
   -2000013    1    1    2    0    0  0.30560772413E+03 -0.12021862917E+03  0.12343897956E+03  0.10127120921E+04  0.95000000000E+03 0.  0.
<mgrwt>
<rscale>  0 0.20299988E+04</rscale>
<asrwt>0</asrwt>
<pdfrwt beam="1">  1        2 0.15347535E+00 0.20299988E+04</pdfrwt>
<pdfrwt beam="2">  1       -2 0.15887891E+00 0.20299988E+04</pdfrwt>
<totfact> 0.60145812E+00</totfact>
</mgrwt>
</event>
<event>
 4    1  0.2482334E-008  0.2088986E+04  0.7816531E-02  0.8566111E-01
         -2   -1    0    0    0  501 -0.00000000000E+00  0.00000000000E+00  0.86831689446E+03  0.86831689446E+03  0.00000000000E+00 0. -1.
          2   -1    0    0  501    0  0.00000000000E+00 -0.00000000000E+00 -0.12564137621E+04  0.12564137621E+04  0.00000000000E+00 0.  1.
    2000013    1    1    2    0    0  0.22138687533E+03 -0.26048113145E+03  0.78117148422E+02  0.10126523872E+04  0.95000000000E+03 0.  0.
   -2000013    1    1    2    0    0 -0.22138687533E+03  0.26048113145E+03 -0.46621401605E+03  0.11120782694E+04  0.95000000000E+03 0.  0.
<mgrwt>
<rscale>  0 0.20889857E+04</rscale>
<asrwt>0</asrwt>
<pdfrwt beam="2">  1        2 0.19329442E+00 0.20889857E+04</pdfrwt>
<pdfrwt beam="1">  1       -2 0.13358722E+00 0.20889857E+04</pdfrwt>
<totfact> 0.65553031E+00</totfact>
</mgrwt>
</event>
<event>
 4    1  0.2482334E-008  0.2544266E+04  0.7816531E-02  0.8387383E-01
          2   -1    0    0  501    0  0.00000000000E+00  0.00000000000E+00  0.11656236393E+04  0.11656236393E+04  0.00000000000E+00 0.  1.
         -2   -1    0    0    0  501 -0.00000000000E+00 -0.00000000000E+00 -0.13883748133E+04  0.13883748133E+04  0.00000000000E+00 0. -1.
    2000013    1    1    2    0    0 -0.48075691929E+03  0.66110024413E+03 -0.33048042678E+03  0.12961088152E+04  0.95000000000E+03 0.  0.
   -2000013    1    1    2    0    0  0.48075691929E+03 -0.66110024413E+03  0.10772925277E+03  0.12578896375E+04  0.95000000000E+03 0.  0.
<mgrwt>
<rscale>  0 0.25442661E+04</rscale>
<asrwt>0</asrwt>
<pdfrwt beam="1">  1        2 0.17932671E+00 0.25442661E+04</pdfrwt>
<pdfrwt beam="2">  1       -2 0.21359612E+00 0.25442661E+04</pdfrwt>
<totfact> 0.19164699E+00</totfact>
</mgrwt>
</event>
<event>
 4    1  0.2482334E-008  0.3326213E+04  0.7816531E-02  0.8156257E-01
          2   -1    0    0  501    0  0.00000000000E+00  0.00000000000E+00  0.16394979272E+04  0.16394979272E+04  0.00000000000E+00 0.  1.
         -2   -1    0    0    0  501 -0.00000000000E+00 -0.00000000000E+00 -0.16870551844E+04  0.16870551844E+04  0.00000000000E+00 0. -1.
    2000013    1    1    2    0    0 -0.63023830024E+03  0.12020562727E+04 -0.16968349815E+03  0.16653624493E+04  0.95000000000E+03 0.  0.
   -2000013    1    1    2    0    0  0.63023830024E+03 -0.12020562727E+04  0.12212624100E+03  0.16611906623E+04  0.95000000000E+03 0.  0.
<mgrwt>
<rscale>  0 0.33262131E+04</rscale>
<asrwt>0</asrwt>
<pdfrwt beam="1">  1        2 0.25223045E+00 0.33262131E+04</pdfrwt>
<pdfrwt beam="2">  1       -2 0.25954695E+00 0.33262131E+04</pdfrwt>
<totfact> 0.49601268E-01</totfact>
</mgrwt>
</event>
<event>
 4    1  0.2482334E-008  0.2251313E+04  0.7816531E-02  0.8497369E-01
         -1   -1    0    0    0  501 -0.00000000000E+00  0.00000000000E+00  0.55836040345E+03  0.55836040345E+03  0.00000000000E+00 0. -1.
          1   -1    0    0  501    0  0.00000000000E+00 -0.00000000000E+00 -0.22693272523E+04  0.22693272523E+04  0.00000000000E+00 0.  1.
    2000013    1    1    2    0    0  0.44060624514E+03 -0.41163592387E+03 -0.81528139563E+03  0.13895185321E+04  0.95000000000E+03 0.  0.
   -2000013    1    1    2    0    0 -0.44060624514E+03  0.41163592387E+03 -0.89568545325E+03  0.14381691237E+04  0.95000000000E+03 0.  0.
<mgrwt>
<rscale>  0 0.22513129E+04</rscale>
<asrwt>0</asrwt>
<pdfrwt beam="2">  1        1 0.34912727E+00 0.22513129E+04</pdfrwt>
<pdfrwt beam="1">  1       -1 0.85901600E-01 0.22513129E+04</pdfrwt>
<totfact> 0.23720021E+00</totfact>
</mgrwt>
</event>
<event>
 4    1  0.2482334E-008  0.2424826E+04  0.7816531E-02  0.8430267E-01
         -2   -1    0    0    0  501 -0.00000000000E+00  0.00000000000E+00  0.11249581512E+04  0.11249581512E+04  0.00000000000E+00 0. -1.
          2   -1    0    0  501    0  0.00000000000E+00 -0.00000000000E+00 -0.13066665938E+04  0.13066665938E+04  0.00000000000E+00 0.  1.
    2000013    1    1    2    0    0 -0.62304549872E+03 -0.40806646084E+03 -0.20404810208E+03  0.12242710312E+04  0.95000000000E+03 0.  0.
   -2000013    1    1    2    0    0  0.62304549872E+03  0.40806646084E+03  0.22339659480E+02  0.12073537138E+04  0.95000000000E+03 0.  0.
<mgrwt>
<rscale>  0 0.24248260E+04</rscale>
<asrwt>0</asrwt>
<pdfrwt beam="2">  1        2 0.20102563E+00 0.24248260E+04</pdfrwt>
<pdfrwt beam="1">  1       -2 0.17307049E+00 0.24248260E+04</pdfrwt>
<totfact> 0.29809076E+00</totfact>
</mgrwt>
</event>
<event>
 4    1  0.2482334E-008  0.2304577E+04  0.7816531E-02  0.8476119E-01
         -2   -1    0    0    0  501 -0.00000000000E+00  0.00000000000E+00  0.55015456152E+03  0.55015456152E+03  0.00000000000E+00 0. -1.
          2   -1    0    0  501    0  0.00000000000E+00 -0.00000000000E+00 -0.24134465501E+04  0.24134465501E+04  0.00000000000E+00 0.  1.
    2000013    1    1    2    0    0 -0.40522625188E+02  0.45126180249E+03 -0.32849039872E+03  0.11025811714E+04  0.95000000000E+03 0.  0.
   -2000013    1    1    2    0    0  0.40522625188E+02 -0.45126180249E+03 -0.15348015899E+04  0.18610199402E+04  0.95000000000E+03 0.  0.
<mgrwt>
<rscale>  0 0.23045769E+04</rscale>
<asrwt>0</asrwt>
<pdfrwt beam="2">  1        2 0.37129946E+00 0.23045769E+04</pdfrwt>
<pdfrwt beam="1">  1       -2 0.84639165E-01 0.23045769E+04</pdfrwt>
<totfact> 0.43058636E+00</totfact>
</mgrwt>
</event>
<event>
 4    1  0.2482334E-008  0.2035415E+04  0.7816531E-02  0.8590240E-01
         -2   -1    0    0    0  501 -0.00000000000E+00  0.00000000000E+00  0.11018015854E+04  0.11018015854E+04  0.00000000000E+00 0. -1.
          2   -1    0    0  501    0  0.00000000000E+00 -0.00000000000E+00 -0.94003156130E+03  0.94003156130E+03  0.00000000000E+00 0.  1.
    2000013    1    1    2    0    0 -0.27559207594E+03 -0.16834686811E+03 -0.89759027093E+02  0.10073968152E+04  0.95000000000E+03 0.  0.
   -2000013    1    1    2    0    0  0.27559207594E+03  0.16834686811E+03  0.25152905120E+03  0.10344363315E+04  0.95000000000E+03 0.  0.
<mgrwt>
<rscale>  0 0.20354147E+04</rscale>
<asrwt>0</asrwt>
<pdfrwt beam="2">  1        2 0.14462024E+00 0.20354147E+04</pdfrwt>
<pdfrwt beam="1">  1       -2 0.16950794E+00 0.20354147E+04</pdfrwt>
<totfact> 0.54852996E+00</totfact>
</mgrwt>
</event>
<event>
 4    1  0.2482334E-008  0.2848834E+04  0.7816531E-02  0.8288266E-01
          1   -1    0    0  501    0  0.00000000000E+00  0.00000000000E+00  0.17763550964E+04  0.17763550964E+04  0.00000000000E+00 0.  1.
         -1   -1    0    0    0  501 -0.00000000000E+00 -0.00000000000E+00 -0.11422058440E+04  0.11422058440E+04  0.00000000000E+00 0. -1.
    2000013    1    1    2    0    0  0.63745624237E+03 -0.79986850170E+03  0.60742466952E+03  0.15223681585E+04  0.95000000000E+03 0.  0.
   -2000013    1    1    2    0    0 -0.63745624237E+03  0.79986850170E+03  0.26724582861E+02  0.13961927819E+04  0.95000000000E+03 0.  0.
<mgrwt>
<rscale>  0 0.28488336E+04</rscale>
<asrwt>0</asrwt>
<pdfrwt beam="1">  1        1 0.27328540E+00 0.28488336E+04</pdfrwt>
<pdfrwt beam="2">  1       -1 0.17572398E+00 0.28488336E+04</pdfrwt>
<totfact> 0.81450250E-01</totfact>
</mgrwt>
</event>
<event>
 4    1  0.2482334E-008  0.2793810E+04  0.7816531E-02  0.8305193E-01
          2   -1    0    0  501    0  0.00000000000E+00  0.00000000000E+00  0.14827737341E+04  0.14827737341E+04  0.00000000000E+00 0.  1.
         -2   -1    0    0    0  501 -0.00000000000E+00 -0.00000000000E+00 -0.13160085841E+04  0.13160085841E+04  0.00000000000E+00 0. -1.
    2000013    1    1    2    0    0 -0.88495300772E+03 -0.44730001612E+03  0.34001002951E+03  0.14146822790E+04  0.95000000000E+03 0.  0.
   -2000013    1    1    2    0    0  0.88495300772E+03  0.44730001612E+03 -0.17324487951E+03  0.13841000392E+04  0.95000000000E+03 0.  0.
<mgrwt>
<rscale>  0 0.27938096E+04</rscale>
<asrwt>0</asrwt>
<pdfrwt beam="1">  1        2 0.22811904E+00 0.27938096E+04</pdfrwt>
<pdfrwt beam="2">  1       -2 0.20246286E+00 0.27938096E+04</pdfrwt>
<totfact> 0.14484696E+00</totfact>
</mgrwt>
</event>
<event>
 4    1  0.2482334E-008  0.2653531E+04  0.7816531E-02  0.8350242E-01
         -2   -1    0    0    0  501 -0.00000000000E+00  0.00000000000E+00  0.92490733823E+03  0.92490733823E+03  0.00000000000E+00 0. -1.
          2   -1    0    0  501    0  0.00000000000E+00 -0.00000000000E+00 -0.19032244506E+04  0.19032244506E+04  0.00000000000E+00 0.  1.
    2000013    1    1    2    0    0 -0.11493021061E+03  0.88486040195E+03 -0.75372464706E+03  0.15055855100E+04  0.95000000000E+03 0.  0.
   -2000013    1    1    2    0    0  0.11493021061E+03 -0.88486040195E+03 -0.22459246530E+03  0.13225462789E+04  0.95000000000E+03 0.  0.
<mgrwt>
<rscale>  0 0.26535307E+04</rscale>
<asrwt>0</asrwt>
<pdfrwt beam="2">  1        2 0.29280376E+00 0.26535307E+04</pdfrwt>
<pdfrwt beam="1">  1       -2 0.14229344E+00 0.26535307E+04</pdfrwt>
<totfact> 0.22929204E+00</totfact>
</mgrwt>
</event>
<event>
 4    1  0.2482334E-008  0.3938392E+04  0.7816531E-02  0.8017091E-01
         -2   -1    0    0    0  501 -0.00000000000E+00  0.00000000000E+00  0.11463634876E+04  0.11463634876E+04  0.00000000000E+00 0. -1.
          2   -1    0    0  501    0  0.00000000000E+00 -0.00000000000E+00 -0.33826378728E+04  0.33826378728E+04  0.00000000000E+00 0.  1.
    2000013    1    1    2    0    0 -0.11110309128E+04 -0.10493040902E+04 -0.20379658424E+04  0.27186823164E+04  0.95000000000E+03 0.  0.
   -2000013    1    1    2    0    0  0.11110309128E+04  0.10493040902E+04 -0.19830854274E+03  0.18103190440E+04  0.95000000000E+03 0.  0.
<mgrwt>
<rscale>  0 0.39383918E+04</rscale>
<asrwt>0</asrwt>
<pdfrwt beam="2">  1        2 0.52040582E+00 0.39383918E+04</pdfrwt>
<pdfrwt beam="1">  1       -2 0.17636361E+00 0.39383918E+04</pdfrwt>
<totfact> 0.14907343E-01</totfact>
</mgrwt>
</event>
<event>
 4    1  0.2482334E-008  0.2410198E+04  0.7816531E-02  0.8435695E-01
          2   -1    0    0  501    0  0.00000000000E+00  0.00000000000E+00  0.11351481377E+04  0.11351481377E+04  0.00000000000E+00 0. -1.
         -2   -1    0    0    0  501 -0.00000000000E+00 -0.00000000000E+00 -0.12793603974E+04  0.12793603974E+04  0.00000000000E+00 0.  1.
    2000013    1    1    2    0    0  0.53155420069E+03  0.49466991560E+03  0.78213486095E+02  0.11982760713E+04  0.95000000000E+03 0.  0.
   -2000013    1    1    2    0    0 -0.53155420069E+03 -0.49466991560E+03 -0.22242574579E+03  0.12162324638E+04  0.95000000000E+03 0.  0.
<mgrwt>
<rscale>  0 0.24101980E+04</rscale>
<asrwt>0</asrwt>
<pdfrwt beam="1">  1        2 0.17463817E+00 0.24101980E+04</pdfrwt>
<pdfrwt beam="2">  1       -2 0.19682468E+00 0.24101980E+04</pdfrwt>
<totfact> 0.25993415E+00</totfact>
</mgrwt>
</event>
<event>
 4    1  0.2482334E-008  0.3605880E+04  0.7816531E-02  0.8089146E-01
         -2   -1    0    0    0  501 -0.00000000000E+00  0.00000000000E+00  0.24723554579E+04  0.24723554579E+04  0.00000000000E+00 0. -1.
          2   -1    0    0  501    0  0.00000000000E+00 -0.00000000000E+00 -0.13147758138E+04  0.13147758138E+04  0.00000000000E+00 0.  1.
    2000013    1    1    2    0    0 -0.13443525938E+04 -0.72115491232E+03  0.73006032818E+03  0.19398031825E+04  0.95000000000E+03 0.  0.
   -2000013    1    1    2    0    0  0.13443525938E+04  0.72115491232E+03  0.42751931584E+03  0.18473280892E+04  0.95000000000E+03 0.  0.
<mgrwt>
<rscale>  0 0.36058803E+04</rscale>
<asrwt>0</asrwt>
<pdfrwt beam="2">  1        2 0.20227320E+00 0.36058803E+04</pdfrwt>
<pdfrwt beam="1">  1       -2 0.38036238E+00 0.36058803E+04</pdfrwt>
<totfact> 0.13139076E-01</totfact>
</mgrwt>
</event>
<event>
 4    1  0.2482334E-008  0.3020236E+04  0.7816531E-02  0.8237976E-01
         -1   -1    0    0    0  501 -0.00000000000E+00  0.00000000000E+00  0.11547251445E+04  0.11547251445E+04  0.00000000000E+00 0. -1.
          1   -1    0    0  501    0  0.00000000000E+00 -0.00000000000E+00 -0.19748917136E+04  0.19748917136E+04  0.00000000000E+00 0.  1.
    2000013    1    1    2    0    0  0.32228757846E+03 -0.11203539719E+04 -0.55251986234E+03  0.16021362313E+04  0.95000000000E+03 0.  0.
   -2000013    1    1    2    0    0 -0.32228757846E+03  0.11203539719E+04 -0.26764670677E+03  0.15274806268E+04  0.95000000000E+03 0.  0.
<mgrwt>
<rscale>  0 0.30202365E+04</rscale>
<asrwt>0</asrwt>
<pdfrwt beam="2">  1        1 0.30382949E+00 0.30202365E+04</pdfrwt>
<pdfrwt beam="1">  1       -1 0.17765003E+00 0.30202365E+04</pdfrwt>
<totfact> 0.56978022E-01</totfact>
</mgrwt>
</event>
<event>
 4    1  0.2482334E-008  0.2318594E+04  0.7816531E-02  0.8470625E-01
          2   -1    0    0  501    0  0.00000000000E+00  0.00000000000E+00  0.19662169887E+04  0.19662169887E+04  0.00000000000E+00 0. -1.
         -2   -1    0    0    0  501 -0.00000000000E+00 -0.00000000000E+00 -0.68353090279E+03  0.68353090279E+03  0.00000000000E+00 0.  1.
    2000013    1    1    2    0    0  0.60584244488E+03 -0.16404921131E+03  0.39223637391E+03  0.12042867535E+04  0.95000000000E+03 0.  0.
   -2000013    1    1    2    0    0 -0.60584244488E+03  0.16404921131E+03  0.89044971202E+03  0.14454611380E+04  0.95000000000E+03 0.  0.
<mgrwt>
<rscale>  0 0.23185945E+04</rscale>
<asrwt>0</asrwt>
<pdfrwt beam="1">  1        2 0.30249492E+00 0.23185945E+04</pdfrwt>
<pdfrwt beam="2">  1       -2 0.10515860E+00 0.23185945E+04</pdfrwt>
<totfact> 0.46254817E+00</totfact>
</mgrwt>
</event>
<event>
 4    1  0.2482334E-008  0.2917605E+04  0.7816531E-02  0.8267659E-01
          2   -1    0    0  501    0  0.00000000000E+00  0.00000000000E+00  0.16556993227E+04  0.16556993227E+04  0.00000000000E+00 0.  1.
         -2   -1    0    0    0  501 -0.00000000000E+00 -0.00000000000E+00 -0.12853208156E+04  0.12853208156E+04  0.00000000000E+00 0. -1.
    2000013    1    1    2    0    0 -0.75872361103E+03 -0.52892972612E+03  0.79849353393E+03  0.15477467806E+04  0.95000000000E+03 0.  0.
   -2000013    1    1    2    0    0  0.75872361103E+03  0.52892972612E+03 -0.42811502687E+03  0.13932733577E+04  0.95000000000E+03 0.  0.
<mgrwt>
<rscale>  0 0.29176050E+04</rscale>
<asrwt>0</asrwt>
<pdfrwt beam="1">  1        2 0.25472297E+00 0.29176050E+04</pdfrwt>
<pdfrwt beam="2">  1       -2 0.19774166E+00 0.29176050E+04</pdfrwt>
<totfact> 0.12314639E+00</totfact>
</mgrwt>
</event>
<event>
 4    1  0.2482334E-008  0.2737700E+04  0.7816531E-02  0.8322875E-01
         -2   -1    0    0    0  501 -0.00000000000E+00  0.00000000000E+00  0.61228563347E+03  0.61228563347E+03  0.00000000000E+00 0. -1.
          2   -1    0    0  501    0  0.00000000000E+00 -0.00000000000E+00 -0.30602557085E+04  0.30602557085E+04  0.00000000000E+00 0.  1.
    2000013    1    1    2    0    0 -0.59143378562E+03 -0.78439728715E+03 -0.11185487927E+04  0.17659910613E+04  0.95000000000E+03 0.  0.
   -2000013    1    1    2    0    0  0.59143378562E+03  0.78439728715E+03 -0.13294212823E+04  0.19065502807E+04  0.95000000000E+03 0.  0.
<mgrwt>
<rscale>  0 0.27377002E+04</rscale>
<asrwt>0</asrwt>
<pdfrwt beam="2">  1        2 0.47080857E+00 0.27377002E+04</pdfrwt>
<pdfrwt beam="1">  1       -2 0.94197790E-01 0.27377002E+04</pdfrwt>
<totfact> 0.13259095E+00</totfact>
</mgrwt>
</event>
<event>
 4    1  0.2482334E-008  0.1979159E+04  0.7816531E-02  0.8616427E-01
         -2   -1    0    0    0  501 -0.00000000000E+00  0.00000000000E+00  0.40090393086E+03  0.40090393086E+03  0.00000000000E+00 0. -1.
          2   -1    0    0  501    0  0.00000000000E+00 -0.00000000000E+00 -0.24426488948E+04  0.24426488948E+04  0.00000000000E+00 0.  1.
    2000013    1    1    2    0    0  0.23151521089E+03  0.46352999819E+02 -0.81257051719E+03  0.12722101787E+04  0.95000000000E+03 0.  0.
   -2000013    1    1    2    0    0 -0.23151521089E+03 -0.46352999819E+02 -0.12291744467E+04  0.15713426469E+04  0.95000000000E+03 0.  0.
<mgrwt>
<rscale>  0 0.19791590E+04</rscale>
<asrwt>0</asrwt>
<pdfrwt beam="2">  1        2 0.37579213E+00 0.19791590E+04</pdfrwt>
<pdfrwt beam="1">  1       -2 0.61677529E-01 0.19791590E+04</pdfrwt>
<totfact> 0.85450832E+00</totfact>
</mgrwt>
</event>
<event>
 4    1  0.2482334E-008  0.3186452E+04  0.7816531E-02  0.8192404E-01
          2   -1    0    0  501    0  0.00000000000E+00  0.00000000000E+00  0.21772714269E+04  0.21772714269E+04  0.00000000000E+00 0.  1.
         -2   -1    0    0    0  501 -0.00000000000E+00 -0.00000000000E+00 -0.11658489161E+04  0.11658489161E+04  0.00000000000E+00 0. -1.
    2000013    1    1    2    0    0  0.17607780888E+03  0.12365895416E+04  0.79439891791E+03  0.17588992950E+04  0.95000000000E+03 0.  0.
   -2000013    1    1    2    0    0 -0.17607780888E+03 -0.12365895416E+04  0.21702359289E+03  0.15842210481E+04  0.95000000000E+03 0.  0.
<mgrwt>
<rscale>  0 0.31864523E+04</rscale>
<asrwt>0</asrwt>
<pdfrwt beam="1">  1        2 0.33496483E+00 0.31864523E+04</pdfrwt>
<pdfrwt beam="2">  1       -2 0.17936137E+00 0.31864523E+04</pdfrwt>
<totfact> 0.82124773E-01</totfact>
</mgrwt>
</event>
<event>
 4    1  0.2482334E-008  0.2692220E+04  0.7816531E-02  0.8337534E-01
         -2   -1    0    0    0  501 -0.00000000000E+00  0.00000000000E+00  0.95327584758E+03  0.95327584758E+03  0.00000000000E+00 0. -1.
          2   -1    0    0  501    0  0.00000000000E+00 -0.00000000000E+00 -0.19008269122E+04  0.19008269122E+04  0.00000000000E+00 0.  1.
    2000013    1    1    2    0    0 -0.61525332447E+03  0.60398389179E+03 -0.90593830097E+03  0.15705277457E+04  0.95000000000E+03 0.  0.
   -2000013    1    1    2    0    0  0.61525332447E+03 -0.60398389179E+03 -0.41612763687E+02  0.12835750141E+04  0.95000000000E+03 0.  0.
<mgrwt>
<rscale>  0 0.26922202E+04</rscale>
<asrwt>0</asrwt>
<pdfrwt beam="2">  1        2 0.29243491E+00 0.26922202E+04</pdfrwt>
<pdfrwt beam="1">  1       -2 0.14665782E+00 0.26922202E+04</pdfrwt>
<totfact> 0.21178750E+00</totfact>
</mgrwt>
</event>
<event>
 4    1  0.2482334E-008  0.2927329E+04  0.7816531E-02  0.8264792E-01
          2   -1    0    0  501    0  0.00000000000E+00  0.00000000000E+00  0.21122282077E+04  0.21122282077E+04  0.00000000000E+00 0.  1.
         -2   -1    0    0    0  501 -0.00000000000E+00 -0.00000000000E+00 -0.10142438595E+04  0.10142438595E+04  0.00000000000E+00 0. -1.
    2000013    1    1    2    0    0 -0.10472850807E+04 -0.37651326084E+03  0.51128888996E+03  0.15499950338E+04  0.95000000000E+03 0.  0.
   -2000013    1    1    2    0    0  0.10472850807E+04  0.37651326084E+03  0.58669545826E+03  0.15764770333E+04  0.95000000000E+03 0.  0.
<mgrwt>
<rscale>  0 0.29273295E+04</rscale>
<asrwt>0</asrwt>
<pdfrwt beam="1">  1        2 0.32495819E+00 0.29273295E+04</pdfrwt>
<pdfrwt beam="2">  1       -2 0.15603752E+00 0.29273295E+04</pdfrwt>
<totfact> 0.13430128E+00</totfact>
</mgrwt>
</event>
<event>
 4    1  0.2482334E-008  0.2646108E+04  0.7816531E-02  0.8352706E-01
         -2   -1    0    0    0  501 -0.00000000000E+00  0.00000000000E+00  0.65518576980E+03  0.65518576980E+03  0.00000000000E+00 0. -1.
          2   -1    0    0  501    0  0.00000000000E+00 -0.00000000000E+00 -0.26717181588E+04  0.26717181588E+04  0.00000000000E+00 0.  1.
    2000013    1    1    2    0    0 -0.89930633759E+03  0.12952038358E+03 -0.81990746728E+03  0.15492823092E+04  0.95000000000E+03 0.  0.
   -2000013    1    1    2    0    0  0.89930633759E+03 -0.12952038358E+03 -0.11966249217E+04  0.17776216194E+04  0.95000000000E+03 0.  0.
<mgrwt>
<rscale>  0 0.26461079E+04</rscale>
<asrwt>0</asrwt>
<pdfrwt beam="2">  1        2 0.41103357E+00 0.26461079E+04</pdfrwt>
<pdfrwt beam="1">  1       -2 0.10079781E+00 0.26461079E+04</pdfrwt>
<totfact> 0.19711069E+00</totfact>
</mgrwt>
</event>
<event>
 4    1  0.2482334E-008  0.2535771E+04  0.7816531E-02  0.8390352E-01
          2   -1    0    0  501    0  0.00000000000E+00  0.00000000000E+00  0.23415153688E+04  0.23415153688E+04  0.00000000000E+00 0.  1.
         -2   -1    0    0    0  501 -0.00000000000E+00 -0.00000000000E+00 -0.68653555043E+03  0.68653555043E+03  0.00000000000E+00 0. -1.
    2000013    1    1    2    0    0  0.80965525039E+03  0.17617800827E+03  0.66527553914E+03  0.14253672713E+04  0.95000000000E+03 0.  0.
   -2000013    1    1    2    0    0 -0.80965525039E+03 -0.17617800827E+03  0.98970427926E+03  0.16026836480E+04  0.95000000000E+03 0.  0.
<mgrwt>
<rscale>  0 0.25357709E+04</rscale>
<asrwt>0</asrwt>
<pdfrwt beam="1">  1        2 0.36023313E+00 0.25357709E+04</pdfrwt>
<pdfrwt beam="2">  1       -2 0.10562085E+00 0.25357709E+04</pdfrwt>
<totfact> 0.27666995E+00</totfact>
</mgrwt>
</event>
<event>
 4    1  0.2482334E-008  0.2727942E+04  0.7816531E-02  0.8325995E-01
         -2   -1    0    0    0  501 -0.00000000000E+00  0.00000000000E+00  0.80910665167E+03  0.80910665167E+03  0.00000000000E+00 0. -1.
          2   -1    0    0  501    0  0.00000000000E+00 -0.00000000000E+00 -0.22993462321E+04  0.22993462321E+04  0.00000000000E+00 0.  1.
    2000013    1    1    2    0    0  0.86263781887E+03  0.14872504738E+03 -0.12439666490E+04  0.17933812116E+04  0.95000000000E+03 0.  0.
   -2000013    1    1    2    0    0 -0.86263781887E+03 -0.14872504738E+03 -0.24627293146E+03  0.13150716722E+04  0.95000000000E+03 0.  0.
<mgrwt>
<rscale>  0 0.27279416E+04</rscale>
<asrwt>0</asrwt>
<pdfrwt beam="2">  1        2 0.35374557E+00 0.27279416E+04</pdfrwt>
<pdfrwt beam="1">  1       -2 0.12447795E+00 0.27279416E+04</pdfrwt>
<totfact> 0.19241986E+00</totfact>
</mgrwt>
</event>
<event>
 4    1  0.2482334E-008  0.2366436E+04  0.7816531E-02  0.8452178E-01
         -2   -1    0    0    0  501 -0.00000000000E+00  0.00000000000E+00  0.53474495852E+03  0.53474495852E+03  0.00000000000E+00 0. -1.
          2   -1    0    0  501    0  0.00000000000E+00 -0.00000000000E+00 -0.26180786188E+04  0.26180786188E+04  0.00000000000E+00 0.  1.
    2000013    1    1    2    0    0 -0.35003072136E+03  0.54500783951E+03 -0.14136395312E+04  0.18222051957E+04  0.95000000000E+03 0.  0.
   -2000013    1    1    2    0    0  0.35003072136E+03 -0.54500783951E+03 -0.66969412912E+03  0.13306183817E+04  0.95000000000E+03 0.  0.
<mgrwt>
<rscale>  0 0.23664356E+04</rscale>
<asrwt>0</asrwt>
<pdfrwt beam="2">  1        2 0.40278131E+00 0.23664356E+04</pdfrwt>
<pdfrwt beam="1">  1       -2 0.82268457E-01 0.23664356E+04</pdfrwt>
<totfact> 0.34749011E+00</totfact>
</mgrwt>
</event>
<event>
 4    1  0.2482334E-008  0.2237410E+04  0.7816531E-02  0.8503017E-01
         -2   -1    0    0    0  501 -0.00000000000E+00  0.00000000000E+00  0.46621815632E+03  0.46621815632E+03  0.00000000000E+00 0. -1.
          2   -1    0    0  501    0  0.00000000000E+00 -0.00000000000E+00 -0.26843680831E+04  0.26843680831E+04  0.00000000000E+00 0.  1.
    2000013    1    1    2    0    0 -0.22114711600E+03  0.53246284436E+03 -0.92776686499E+03  0.14476443221E+04  0.95000000000E+03 0.  0.
   -2000013    1    1    2    0    0  0.22114711600E+03 -0.53246284436E+03 -0.12903830617E+04  0.17029419173E+04  0.95000000000E+03 0.  0.
<mgrwt>
<rscale>  0 0.22374102E+04</rscale>
<asrwt>0</asrwt>
<pdfrwt beam="2">  1        2 0.41297971E+00 0.22374102E+04</pdfrwt>
<pdfrwt beam="1">  1       -2 0.71725870E-01 0.22374102E+04</pdfrwt>
<totfact> 0.43580666E+00</totfact>
</mgrwt>
</event>
<event>
 4    1  0.2482334E-008  0.2473249E+04  0.7816531E-02  0.8412578E-01
          2   -1    0    0  501    0  0.00000000000E+00  0.00000000000E+00  0.14389854415E+04  0.14389854415E+04  0.00000000000E+00 0.  1.
         -2   -1    0    0    0  501 -0.00000000000E+00 -0.00000000000E+00 -0.10627211283E+04  0.10627211283E+04  0.00000000000E+00 0. -1.
    2000013    1    1    2    0    0 -0.53857184620E+03 -0.50948584552E+03  0.46900460721E+03  0.12930973598E+04  0.95000000000E+03 0.  0.
   -2000013    1    1    2    0    0  0.53857184620E+03  0.50948584552E+03 -0.92740294086E+02  0.12086092100E+04  0.95000000000E+03 0.  0.
<mgrwt>
<rscale>  0 0.24732491E+04</rscale>
<asrwt>0</asrwt>
<pdfrwt beam="1">  1        2 0.22138238E+00 0.24732491E+04</pdfrwt>
<pdfrwt beam="2">  1       -2 0.16349556E+00 0.24732491E+04</pdfrwt>
<totfact> 0.29178859E+00</totfact>
</mgrwt>
</event>
<event>
 4    1  0.2482334E-008  0.3656028E+04  0.7816531E-02  0.8077777E-01
          1   -1    0    0  501    0  0.00000000000E+00  0.00000000000E+00  0.36272326009E+04  0.36272326009E+04  0.00000000000E+00 0. -1.
         -1   -1    0    0    0  501 -0.00000000000E+00 -0.00000000000E+00 -0.92126318525E+03  0.92126318525E+03  0.00000000000E+00 0.  1.
    2000013    1    1    2    0    0 -0.55828842700E+03 -0.12601340523E+04  0.22668008366E+04  0.28178910253E+04  0.95000000000E+03 0.  0.
   -2000013    1    1    2    0    0  0.55828842700E+03  0.12601340523E+04  0.43916857909E+03  0.17306047609E+04  0.95000000000E+03 0.  0.
<mgrwt>
<rscale>  0 0.36560284E+04</rscale>
<asrwt>0</asrwt>
<pdfrwt beam="1">  1        1 0.55803578E+00 0.36560284E+04</pdfrwt>
<pdfrwt beam="2">  1       -1 0.14173280E+00 0.36560284E+04</pdfrwt>
<totfact> 0.64510905E-02</totfact>
</mgrwt>
</event>
<event>
 4    1  0.2482334E-008  0.2176092E+04  0.7816531E-02  0.8528446E-01
          2   -1    0    0  501    0  0.00000000000E+00  0.00000000000E+00  0.33033987929E+04  0.33033987929E+04  0.00000000000E+00 0.  1.
         -2   -1    0    0    0  501 -0.00000000000E+00 -0.00000000000E+00 -0.35837154727E+03  0.35837154727E+03  0.00000000000E+00 0. -1.
    2000013    1    1    2    0    0  0.21341782769E+03 -0.30411471248E+03  0.83549236788E+03  0.13185523973E+04  0.95000000000E+03 0.  0.
   -2000013    1    1    2    0    0 -0.21341782769E+03  0.30411471248E+03  0.21095348777E+04  0.23432179429E+04  0.95000000000E+03 0.  0.
<mgrwt>
<rscale>  0 0.21760920E+04</rscale>
<asrwt>0</asrwt>
<pdfrwt beam="1">  1        2 0.50821518E+00 0.21760920E+04</pdfrwt>
<pdfrwt beam="2">  1       -2 0.55134086E-01 0.21760920E+04</pdfrwt>
<totfact> 0.31473594E+00</totfact>
</mgrwt>
</event>
<event>
 4    1  0.2482334E-008  0.4712071E+04  0.7816531E-02  0.7874526E-01
         -2   -1    0    0    0  501 -0.00000000000E+00  0.00000000000E+00  0.18810853271E+04  0.18810853271E+04  0.00000000000E+00 0. -1.
          2   -1    0    0  501    0  0.00000000000E+00 -0.00000000000E+00 -0.29509042464E+04  0.29509042464E+04  0.00000000000E+00 0.  1.
    2000013    1    1    2    0    0  0.14106894203E+04 -0.73374747041E+03  0.95815761777E+03  0.20854246597E+04  0.95000000000E+03 0.  0.
   -2000013    1    1    2    0    0 -0.14106894203E+04  0.73374747041E+03 -0.20279765370E+04  0.27465649138E+04  0.95000000000E+03 0.  0.
<mgrwt>
<rscale>  0 0.47120707E+04</rscale>
<asrwt>0</asrwt>
<pdfrwt beam="2">  1        2 0.45398527E+00 0.47120707E+04</pdfrwt>
<pdfrwt beam="1">  1       -2 0.28939774E+00 0.47120707E+04</pdfrwt>
<totfact> 0.51335510E-02</totfact>
</mgrwt>
</event>
<event>
 4    1  0.2482334E-008  0.2320367E+04  0.7816531E-02  0.8469934E-01
         -2   -1    0    0    0  501 -0.00000000000E+00  0.00000000000E+00  0.50073722858E+03  0.50073722858E+03  0.00000000000E+00 0. -1.
          2   -1    0    0  501    0  0.00000000000E+00 -0.00000000000E+00 -0.26880877601E+04  0.26880877601E+04  0.00000000000E+00 0.  1.
    2000013    1    1    2    0    0 -0.10852761882E+03  0.42672703741E+03 -0.40701639438E+03  0.11234040029E+04  0.95000000000E+03 0.  0.
   -2000013    1    1    2    0    0  0.10852761882E+03 -0.42672703741E+03 -0.17803341371E+04  0.20654209857E+04  0.95000000000E+03 0.  0.
<mgrwt>
<rscale>  0 0.23203669E+04</rscale>
<asrwt>0</asrwt>
<pdfrwt beam="2">  1        2 0.41355197E+00 0.23203669E+04</pdfrwt>
<pdfrwt beam="1">  1       -2 0.77036496E-01 0.23203669E+04</pdfrwt>
<totfact> 0.36758635E+00</totfact>
</mgrwt>
</event>
<event>
 4    1  0.2482334E-008  0.2105223E+04  0.7816531E-02  0.8558946E-01
          2   -1    0    0  501    0  0.00000000000E+00  0.00000000000E+00  0.10072275488E+04  0.10072275488E+04  0.00000000000E+00 0.  1.
         -2   -1    0    0    0  501 -0.00000000000E+00 -0.00000000000E+00 -0.11000407436E+04  0.11000407436E+04  0.00000000000E+00 0. -1.
    2000013    1    1    2    0    0  0.24193567825E+03  0.21952893603E+02  0.33668770195E+03  0.10367610190E+04  0.95000000000E+03 0.  0.
   -2000013    1    1    2    0    0 -0.24193567825E+03 -0.21952893603E+02 -0.42950089684E+03  0.10705072734E+04  0.95000000000E+03 0.  0.
<mgrwt>
<rscale>  0 0.21052234E+04</rscale>
<asrwt>0</asrwt>
<pdfrwt beam="1">  1        2 0.15495809E+00 0.21052234E+04</pdfrwt>
<pdfrwt beam="2">  1       -2 0.16923704E+00 0.21052234E+04</pdfrwt>
<totfact> 0.49534439E+00</totfact>
</mgrwt>
</event>
<event>
 4    1  0.2482334E-008  0.2541826E+04  0.7816531E-02  0.8388235E-01
         -2   -1    0    0    0  501 -0.00000000000E+00  0.00000000000E+00  0.17051047208E+04  0.17051047208E+04  0.00000000000E+00 0. -1.
          2   -1    0    0  501    0  0.00000000000E+00 -0.00000000000E+00 -0.94728454866E+03  0.94728454866E+03  0.00000000000E+00 0.  1.
    2000013    1    1    2    0    0 -0.12775158724E+03 -0.80531852263E+03  0.15062253118E+03  0.12609700781E+04  0.95000000000E+03 0.  0.
   -2000013    1    1    2    0    0  0.12775158724E+03  0.80531852263E+03  0.60719764095E+03  0.13914191914E+04  0.95000000000E+03 0.  0.
<mgrwt>
<rscale>  0 0.25418256E+04</rscale>
<asrwt>0</asrwt>
<pdfrwt beam="2">  1        2 0.14573608E+00 0.25418256E+04</pdfrwt>
<pdfrwt beam="1">  1       -2 0.26232380E+00 0.25418256E+04</pdfrwt>
<totfact> 0.13082816E+00</totfact>
</mgrwt>
</event>
<event>
 4    1  0.2482334E-008  0.2234952E+04  0.7816531E-02  0.8504020E-01
         -2   -1    0    0    0  501 -0.00000000000E+00  0.00000000000E+00  0.85245736272E+03  0.85245736272E+03  0.00000000000E+00 0. -1.
          2   -1    0    0  501    0  0.00000000000E+00 -0.00000000000E+00 -0.14648850971E+04  0.14648850971E+04  0.00000000000E+00 0.  1.
    2000013    1    1    2    0    0 -0.26297350538E+03 -0.52595409421E+03 -0.32867612112E+03  0.11646075589E+04  0.95000000000E+03 0.  0.
   -2000013    1    1    2    0    0  0.26297350538E+03  0.52595409421E+03 -0.28375161329E+03  0.11527349009E+04  0.95000000000E+03 0.  0.
<mgrwt>
<rscale>  0 0.22349515E+04</rscale>
<asrwt>0</asrwt>
<pdfrwt beam="2">  1        2 0.22536694E+00 0.22349515E+04</pdfrwt>
<pdfrwt beam="1">  1       -2 0.13114729E+00 0.22349515E+04</pdfrwt>
<totfact> 0.51451146E+00</totfact>
</mgrwt>
</event>
<event>
 4    1  0.2482334E-008  0.2659243E+04  0.7816531E-02  0.8348352E-01
          2   -1    0    0  501    0  0.00000000000E+00  0.00000000000E+00  0.79031624115E+03  0.79031624115E+03  0.00000000000E+00 0.  1.
         -2   -1    0    0    0  501 -0.00000000000E+00 -0.00000000000E+00 -0.22369440780E+04  0.22369440780E+04  0.00000000000E+00 0. -1.
    2000013    1    1    2    0    0  0.23778773544E+03 -0.82868123208E+03 -0.32546651821E+03  0.13235120120E+04  0.95000000000E+03 0.  0.
   -2000013    1    1    2    0    0 -0.23778773544E+03  0.82868123208E+03 -0.11211613186E+04  0.17037483071E+04  0.95000000000E+03 0.  0.
<mgrwt>
<rscale>  0 0.26592429E+04</rscale>
<asrwt>0</asrwt>
<pdfrwt beam="1">  1        2 0.12158712E+00 0.26592429E+04</pdfrwt>
<pdfrwt beam="2">  1       -2 0.34414524E+00 0.26592429E+04</pdfrwt>
<totfact> 0.52198425E-01</totfact>
</mgrwt>
</event>
<event>
 4    1  0.2482334E-008  0.3526054E+04  0.7816531E-02  0.8107643E-01
          2   -1    0    0  501    0  0.00000000000E+00  0.00000000000E+00  0.17195517364E+04  0.17195517364E+04  0.00000000000E+00 0.  1.
         -2   -1    0    0    0  501 -0.00000000000E+00 -0.00000000000E+00 -0.18076017351E+04  0.18076017351E+04  0.00000000000E+00 0. -1.
    2000013    1    1    2    0    0  0.69989752233E+03  0.10826381330E+04 -0.78168476452E+03  0.17819912850E+04  0.95000000000E+03 0.  0.
   -2000013    1    1    2    0    0 -0.69989752233E+03 -0.10826381330E+04  0.69363476579E+03  0.17451621865E+04  0.95000000000E+03 0.  0.
<mgrwt>
<rscale>  0 0.35260543E+04</rscale>
<asrwt>0</asrwt>
<pdfrwt beam="1">  1        2 0.26454642E+00 0.35260543E+04</pdfrwt>
<pdfrwt beam="2">  1       -2 0.27809257E+00 0.35260543E+04</pdfrwt>
<totfact> 0.33922946E-01</totfact>
</mgrwt>
</event>
<event>
 4    1  0.2482334E-008  0.2903970E+04  0.7816531E-02  0.8271697E-01
         -2   -1    0    0    0  501 -0.00000000000E+00  0.00000000000E+00  0.11595694232E+04  0.11595694232E+04  0.00000000000E+00 0.  1.
          2   -1    0    0  501    0  0.00000000000E+00 -0.00000000000E+00 -0.18181408672E+04  0.18181408672E+04  0.00000000000E+00 0. -1.
    2000013    1    1    2    0    0 -0.60676532515E+03 -0.87015428339E+03 -0.38486176860E+02  0.14245398634E+04  0.95000000000E+03 0.  0.
   -2000013    1    1    2    0    0  0.60676532515E+03  0.87015428339E+03 -0.62008526713E+03  0.15531704270E+04  0.95000000000E+03 0.  0.
<mgrwt>
<rscale>  0 0.29039701E+04</rscale>
<asrwt>0</asrwt>
<pdfrwt beam="2">  1        2 0.27971398E+00 0.29039701E+04</pdfrwt>
<pdfrwt beam="1">  1       -2 0.17839530E+00 0.29039701E+04</pdfrwt>
<totfact> 0.13534019E+00</totfact>
</mgrwt>
</event>
<event>
 4    1  0.2482334E-008  0.2661536E+04  0.7816531E-02  0.8347594E-01
          2   -1    0    0  501    0  0.00000000000E+00  0.00000000000E+00  0.10526459885E+04  0.10526459885E+04  0.00000000000E+00 0.  1.
         -2   -1    0    0    0  501 -0.00000000000E+00 -0.00000000000E+00 -0.16823734782E+04  0.16823734782E+04  0.00000000000E+00 0. -1.
    2000013    1    1    2    0    0  0.91808558645E+03  0.12703593548E+03 -0.41462349791E+03  0.13904790246E+04  0.95000000000E+03 0.  0.
   -2000013    1    1    2    0    0 -0.91808558645E+03 -0.12703593548E+03 -0.21510399180E+03  0.13445404420E+04  0.95000000000E+03 0.  0.
<mgrwt>
<rscale>  0 0.26615362E+04</rscale>
<asrwt>0</asrwt>
<pdfrwt beam="1">  1        2 0.16194554E+00 0.26615362E+04</pdfrwt>
<pdfrwt beam="2">  1       -2 0.25882669E+00 0.26615362E+04</pdfrwt>
<totfact> 0.11640257E+00</totfact>
</mgrwt>
</event>
<event>
 4    1  0.2482334E-008  0.3254987E+04  0.7816531E-02  0.8174444E-01
         -2   -1    0    0    0  501 -0.00000000000E+00  0.00000000000E+00  0.12226573681E+04  0.12226573681E+04  0.00000000000E+00 0. -1.
          2   -1    0    0  501    0  0.00000000000E+00 -0.00000000000E+00 -0.21663755505E+04  0.21663755505E+04  0.00000000000E+00 0.  1.
    2000013    1    1    2    0    0  0.89846439501E+02  0.13141121161E+04 -0.36131720322E+03  0.16637347017E+04  0.95000000000E+03 0.  0.
   -2000013    1    1    2    0    0 -0.89846439501E+02 -0.13141121161E+04 -0.58240097916E+03  0.17252982168E+04  0.95000000000E+03 0.  0.
<mgrwt>
<rscale>  0 0.32549870E+04</rscale>
<asrwt>0</asrwt>
<pdfrwt beam="2">  1        2 0.33328854E+00 0.32549870E+04</pdfrwt>
<pdfrwt beam="1">  1       -2 0.18810114E+00 0.32549870E+04</pdfrwt>
<totfact> 0.72175890E-01</totfact>
</mgrwt>
</event>
<event>
 4    1  0.2482334E-008  0.3184362E+04  0.7816531E-02  0.8192959E-01
         -1   -1    0    0    0  501 -0.00000000000E+00  0.00000000000E+00  0.98266715832E+03  0.98266715832E+03  0.00000000000E+00 0. -1.
          1   -1    0    0  501    0  0.00000000000E+00 -0.00000000000E+00 -0.25797553485E+04  0.25797553485E+04  0.00000000000E+00 0.  1.
    2000013    1    1    2    0    0 -0.20887832691E+03 -0.92577409519E+03  0.15850647272E+03  0.13521509282E+04  0.95000000000E+03 0.  0.
   -2000013    1    1    2    0    0  0.20887832691E+03  0.92577409519E+03 -0.17555946629E+04  0.22102715786E+04  0.95000000000E+03 0.  0.
<mgrwt>
<rscale>  0 0.31843623E+04</rscale>
<asrwt>0</asrwt>
<pdfrwt beam="2">  1        1 0.39688543E+00 0.31843623E+04</pdfrwt>
<pdfrwt beam="1">  1       -1 0.15117957E+00 0.31843623E+04</pdfrwt>
<totfact> 0.34099953E-01</totfact>
</mgrwt>
</event>
<event>
 4    1  0.2482334E-008  0.2488524E+04  0.7816531E-02  0.8407085E-01
         -2   -1    0    0    0  501 -0.00000000000E+00  0.00000000000E+00  0.13606039789E+04  0.13606039789E+04  0.00000000000E+00 0. -1.
          2   -1    0    0  501    0  0.00000000000E+00 -0.00000000000E+00 -0.11378684352E+04  0.11378684352E+04  0.00000000000E+00 0.  1.
    2000013    1    1    2    0    0 -0.69906993275E+03 -0.26667351069E+03 -0.18284770156E+03  0.12230072829E+04  0.95000000000E+03 0.  0.
   -2000013    1    1    2    0    0  0.69906993275E+03  0.26667351069E+03  0.40558324526E+03  0.12754651312E+04  0.95000000000E+03 0.  0.
<mgrwt>
<rscale>  0 0.24885243E+04</rscale>
<asrwt>0</asrwt>
<pdfrwt beam="2">  1        2 0.17505668E+00 0.24885243E+04</pdfrwt>
<pdfrwt beam="1">  1       -2 0.20932369E+00 0.24885243E+04</pdfrwt>
<totfact> 0.21321035E+00</totfact>
</mgrwt>
</event>
<event>
 4    1  0.2482334E-008  0.2583936E+04  0.7816531E-02  0.8373678E-01
          2   -1    0    0  501    0  0.00000000000E+00  0.00000000000E+00  0.29404427353E+04  0.29404427353E+04  0.00000000000E+00 0.  1.
         -2   -1    0    0    0  501 -0.00000000000E+00 -0.00000000000E+00 -0.56766311312E+03  0.56766311312E+03  0.00000000000E+00 0. -1.
    2000013    1    1    2    0    0  0.82947591139E+03 -0.27245255017E+03  0.10961263827E+04  0.16930013959E+04  0.95000000000E+03 0.  0.
   -2000013    1    1    2    0    0 -0.82947591139E+03  0.27245255017E+03  0.12766532395E+04  0.18151044525E+04  0.95000000000E+03 0.  0.
<mgrwt>
<rscale>  0 0.25839357E+04</rscale>
<asrwt>0</asrwt>
<pdfrwt beam="1">  1        2 0.45237580E+00 0.25839357E+04</pdfrwt>
<pdfrwt beam="2">  1       -2 0.87332788E-01 0.25839357E+04</pdfrwt>
<totfact> 0.19024859E+00</totfact>
</mgrwt>
</event>
<event>
 4    1  0.2482334E-008  0.2734924E+04  0.7816531E-02  0.8323761E-01
          2   -1    0    0  501    0  0.00000000000E+00  0.00000000000E+00  0.43654835175E+04  0.43654835175E+04  0.00000000000E+00 0.  1.
         -2   -1    0    0    0  501 -0.00000000000E+00 -0.00000000000E+00 -0.42834952984E+03  0.42834952984E+03  0.00000000000E+00 0. -1.
    2000013    1    1    2    0    0 -0.93268189332E+03 -0.14497820778E+03  0.24534956983E+04  0.27951843117E+04  0.95000000000E+03 0.  0.
   -2000013    1    1    2    0    0  0.93268189332E+03  0.14497820778E+03  0.14836382894E+04  0.19986487357E+04  0.95000000000E+03 0.  0.
<mgrwt>
<rscale>  0 0.27349244E+04</rscale>
<asrwt>0</asrwt>
<pdfrwt beam="1">  1        2 0.67161282E+00 0.27349244E+04</pdfrwt>
<pdfrwt beam="2">  1       -2 0.65899931E-01 0.27349244E+04</pdfrwt>
<totfact> 0.30704111E-01</totfact>
</mgrwt>
</event>
<event>
 4    1  0.2482334E-008  0.2416082E+04  0.7816531E-02  0.8433507E-01
         -1   -1    0    0    0  501 -0.00000000000E+00  0.00000000000E+00  0.57981223665E+03  0.57981223665E+03  0.00000000000E+00 0. -1.
          1   -1    0    0  501    0  0.00000000000E+00 -0.00000000000E+00 -0.25169572727E+04  0.25169572727E+04  0.00000000000E+00 0.  1.
    2000013    1    1    2    0    0  0.57229783116E+03  0.47872367787E+03 -0.95228601827E+03  0.15381969405E+04  0.95000000000E+03 0.  0.
   -2000013    1    1    2    0    0 -0.57229783116E+03 -0.47872367787E+03 -0.98485901774E+03  0.15585725688E+04  0.95000000000E+03 0.  0.
<mgrwt>
<rscale>  0 0.24160816E+04</rscale>
<asrwt>0</asrwt>
<pdfrwt beam="2">  1        1 0.38722420E+00 0.24160816E+04</pdfrwt>
<pdfrwt beam="1">  1       -1 0.89201881E-01 0.24160816E+04</pdfrwt>
<totfact> 0.14531837E+00</totfact>
</mgrwt>
</event>
<event>
 4    1  0.2482334E-008  0.3026242E+04  0.7816531E-02  0.8236277E-01
         -2   -1    0    0    0  501 -0.00000000000E+00  0.00000000000E+00  0.14526522419E+04  0.14526522419E+04  0.00000000000E+00 0. -1.
          2   -1    0    0  501    0  0.00000000000E+00 -0.00000000000E+00 -0.15761063659E+04  0.15761063659E+04  0.00000000000E+00 0.  1.
    2000013    1    1    2    0    0  0.63651122479E+03  0.16685500399E+03  0.91583881014E+03  0.14745330982E+04  0.95000000000E+03 0.  0.
   -2000013    1    1    2    0    0 -0.63651122479E+03 -0.16685500399E+03 -0.10392929342E+04  0.15542255096E+04  0.95000000000E+03 0.  0.
<mgrwt>
<rscale>  0 0.30262415E+04</rscale>
<asrwt>0</asrwt>
<pdfrwt beam="2">  1        2 0.24247790E+00 0.30262415E+04</pdfrwt>
<pdfrwt beam="1">  1       -2 0.22348496E+00 0.30262415E+04</pdfrwt>
<totfact> 0.92299236E-01</totfact>
</mgrwt>
</event>
<event>
 4    1  0.2482334E-008  0.2232315E+04  0.7816531E-02  0.8505097E-01
         -4   -1    0    0    0  501 -0.00000000000E+00  0.00000000000E+00  0.15179766961E+04  0.15179766961E+04  0.00000000000E+00 0. -1.
          4   -1    0    0  501    0  0.00000000000E+00 -0.00000000000E+00 -0.82070291129E+03  0.82070291129E+03  0.00000000000E+00 0.  1.
    2000013    1    1    2    0    0 -0.31162390171E+03  0.42306038480E+03  0.77018538648E+02  0.10883572027E+04  0.95000000000E+03 0.  0.
   -2000013    1    1    2    0    0  0.31162390171E+03 -0.42306038480E+03  0.62025524614E+03  0.12503224047E+04  0.95000000000E+03 0.  0.
<mgrwt>
<rscale>  0 0.22323153E+04</rscale>
<asrwt>0</asrwt>
<pdfrwt beam="2">  1        4 0.12626199E+00 0.22323153E+04</pdfrwt>
<pdfrwt beam="1">  1       -4 0.23353488E+00 0.22323153E+04</pdfrwt>
<totfact> 0.67939753E-02</totfact>
</mgrwt>
</event>
<event>
 4    1  0.2482334E-008  0.2380479E+04  0.7816531E-02  0.8446848E-01
          1   -1    0    0  501    0  0.00000000000E+00  0.00000000000E+00  0.12196757944E+04  0.12196757944E+04  0.00000000000E+00 0.  1.
         -1   -1    0    0    0  501 -0.00000000000E+00 -0.00000000000E+00 -0.11615135563E+04  0.11615135563E+04  0.00000000000E+00 0. -1.
    2000013    1    1    2    0    0  0.33591013433E+03  0.55251824691E+03 -0.28094352815E+03  0.11830221036E+04  0.95000000000E+03 0.  0.
   -2000013    1    1    2    0    0 -0.33591013433E+03 -0.55251824691E+03  0.33910576619E+03  0.11981672472E+04  0.95000000000E+03 0.  0.
<mgrwt>
<rscale>  0 0.23804789E+04</rscale>
<asrwt>0</asrwt>
<pdfrwt beam="1">  1        1 0.18764243E+00 0.23804789E+04</pdfrwt>
<pdfrwt beam="2">  1       -1 0.17869439E+00 0.23804789E+04</pdfrwt>
<totfact> 0.19735484E+00</totfact>
</mgrwt>
</event>
<event>
 4    1  0.2482334E-008  0.2410662E+04  0.7816531E-02  0.8435523E-01
         -2   -1    0    0    0  501 -0.00000000000E+00  0.00000000000E+00  0.10185472212E+04  0.10185472212E+04  0.00000000000E+00 0. -1.
          2   -1    0    0  501    0  0.00000000000E+00 -0.00000000000E+00 -0.14263671603E+04  0.14263671603E+04  0.00000000000E+00 0.  1.
    2000013    1    1    2    0    0 -0.44101150328E+03  0.51509640689E+03  0.10120825030E+03  0.11715624458E+04  0.95000000000E+03 0.  0.
   -2000013    1    1    2    0    0  0.44101150328E+03 -0.51509640689E+03 -0.50902818943E+03  0.12733519357E+04  0.95000000000E+03 0.  0.
<mgrwt>
<rscale>  0 0.24106616E+04</rscale>
<asrwt>0</asrwt>
<pdfrwt beam="2">  1        2 0.21944110E+00 0.24106616E+04</pdfrwt>
<pdfrwt beam="1">  1       -2 0.15669957E+00 0.24106616E+04</pdfrwt>
<totfact> 0.33478284E+00</totfact>
</mgrwt>
</event>
<event>
 4    1  0.2482334E-008  0.2679929E+04  0.7816531E-02  0.8341547E-01
         -1   -1    0    0    0  501 -0.00000000000E+00  0.00000000000E+00  0.11768338974E+04  0.11768338974E+04  0.00000000000E+00 0.  1.
          1   -1    0    0  501    0  0.00000000000E+00 -0.00000000000E+00 -0.15257074354E+04  0.15257074354E+04  0.00000000000E+00 0. -1.
    2000013    1    1    2    0    0  0.62165956616E+03 -0.66277736613E+03  0.87115877114E+02  0.13175065955E+04  0.95000000000E+03 0.  0.
   -2000013    1    1    2    0    0 -0.62165956616E+03  0.66277736613E+03 -0.43598941513E+03  0.13850347372E+04  0.95000000000E+03 0.  0.
<mgrwt>
<rscale>  0 0.26799285E+04</rscale>
<asrwt>0</asrwt>
<pdfrwt beam="2">  1        1 0.23472422E+00 0.26799285E+04</pdfrwt>
<pdfrwt beam="1">  1       -1 0.18105137E+00 0.26799285E+04</pdfrwt>
<totfact> 0.11232569E+00</totfact>
</mgrwt>
</event>
<event>
 4    1  0.2482334E-008  0.2314225E+04  0.7816531E-02  0.8472334E-01
          2   -1    0    0  501    0  0.00000000000E+00  0.00000000000E+00  0.22390491553E+04  0.22390491553E+04  0.00000000000E+00 0.  1.
         -2   -1    0    0    0  501 -0.00000000000E+00 -0.00000000000E+00 -0.59798110493E+03  0.59798110493E+03  0.00000000000E+00 0. -1.
    2000013    1    1    2    0    0 -0.48438769545E+03 -0.33584791685E+03  0.11862247650E+04  0.16300473784E+04  0.95000000000E+03 0.  0.
   -2000013    1    1    2    0    0  0.48438769545E+03  0.33584791685E+03  0.45484328536E+03  0.12069828818E+04  0.95000000000E+03 0.  0.
<mgrwt>
<rscale>  0 0.23142248E+04</rscale>
<asrwt>0</asrwt>
<pdfrwt beam="1">  1        2 0.34446910E+00 0.23142248E+04</pdfrwt>
<pdfrwt beam="2">  1       -2 0.91997094E-01 0.23142248E+04</pdfrwt>
<totfact> 0.44641627E+00</totfact>
</mgrwt>
</event>
<event>
 4    1  0.2482334E-008  0.3000503E+04  0.7816531E-02  0.8243587E-01
         -2   -1    0    0    0  501 -0.00000000000E+00  0.00000000000E+00  0.16039946402E+04  0.16039946402E+04  0.00000000000E+00 0. -1.
          2   -1    0    0  501    0  0.00000000000E+00 -0.00000000000E+00 -0.14032185230E+04  0.14032185230E+04  0.00000000000E+00 0.  1.
    2000013    1    1    2    0    0 -0.11091822980E+04  0.37920475789E+02 -0.24174265917E+03  0.14807642776E+04  0.95000000000E+03 0.  0.
   -2000013    1    1    2    0    0  0.11091822980E+04 -0.37920475789E+02  0.44251877637E+03  0.15264488855E+04  0.95000000000E+03 0.  0.
<mgrwt>
<rscale>  0 0.30005033E+04</rscale>
<asrwt>0</asrwt>
<pdfrwt beam="2">  1        2 0.21587977E+00 0.30005033E+04</pdfrwt>
<pdfrwt beam="1">  1       -2 0.24676841E+00 0.30005033E+04</pdfrwt>
<totfact> 0.82981745E-01</totfact>
</mgrwt>
</event>
<event>
 4    1  0.2482334E-008  0.3147815E+04  0.7816531E-02  0.8202737E-01
         -2   -1    0    0    0  501 -0.00000000000E+00  0.00000000000E+00  0.65297006665E+03  0.65297006665E+03  0.00000000000E+00 0. -1.
          2   -1    0    0  501    0  0.00000000000E+00 -0.00000000000E+00 -0.37937180295E+04  0.37937180295E+04  0.00000000000E+00 0.  1.
    2000013    1    1    2    0    0  0.12034882009E+04  0.17614240702E+03 -0.20064030412E+04  0.25313164877E+04  0.95000000000E+03 0.  0.
   -2000013    1    1    2    0    0 -0.12034882009E+04 -0.17614240702E+03 -0.11343449217E+04  0.19153716085E+04  0.95000000000E+03 0.  0.
<mgrwt>
<rscale>  0 0.31478147E+04</rscale>
<asrwt>0</asrwt>
<pdfrwt beam="2">  1        2 0.58364892E+00 0.31478147E+04</pdfrwt>
<pdfrwt beam="1">  1       -2 0.10045693E+00 0.31478147E+04</pdfrwt>
<totfact> 0.34267027E-01</totfact>
</mgrwt>
</event>
<event>
 4    1  0.2482334E-008  0.2011778E+04  0.7816531E-02  0.8601134E-01
          2   -1    0    0  501    0  0.00000000000E+00  0.00000000000E+00  0.24055988737E+04  0.24055988737E+04  0.00000000000E+00 0.  1.
         -2   -1    0    0    0  501 -0.00000000000E+00 -0.00000000000E+00 -0.42060746473E+03  0.42060746473E+03  0.00000000000E+00 0. -1.
    2000013    1    1    2    0    0  0.13023064844E+03 -0.20499898513E+03  0.13076546497E+04  0.16344556552E+04  0.95000000000E+03 0.  0.
   -2000013    1    1    2    0    0 -0.13023064844E+03  0.20499898513E+03  0.67733675927E+03  0.11917506833E+04  0.95000000000E+03 0.  0.
<mgrwt>
<rscale>  0 0.20117782E+04</rscale>
<asrwt>0</asrwt>
<pdfrwt beam="1">  1        2 0.37009213E+00 0.20117782E+04</pdfrwt>
<pdfrwt beam="2">  1       -2 0.64708842E-01 0.20117782E+04</pdfrwt>
<totfact> 0.80765352E+00</totfact>
</mgrwt>
</event>
<event>
 4    1  0.2482334E-008  0.3401057E+04  0.7816531E-02  0.8137647E-01
         -2   -1    0    0    0  501 -0.00000000000E+00  0.00000000000E+00  0.95387127590E+03  0.95387127590E+03  0.00000000000E+00 0. -1.
          2   -1    0    0  501    0  0.00000000000E+00 -0.00000000000E+00 -0.30316429098E+04  0.30316429098E+04  0.00000000000E+00 0.  1.
    2000013    1    1    2    0    0 -0.99545733908E+03 -0.31736569270E+03 -0.21491382815E+04  0.25715659918E+04  0.95000000000E+03 0.  0.
   -2000013    1    1    2    0    0  0.99545733908E+03  0.31736569270E+03  0.71366647603E+02  0.14139481940E+04  0.95000000000E+03 0.  0.
<mgrwt>
<rscale>  0 0.34010569E+04</rscale>
<asrwt>0</asrwt>
<pdfrwt beam="2">  1        2 0.46640660E+00 0.34010569E+04</pdfrwt>
<pdfrwt beam="1">  1       -2 0.14674943E+00 0.34010569E+04</pdfrwt>
<totfact> 0.43706868E-01</totfact>
</mgrwt>
</event>
<event>
 4    1  0.2482334E-008  0.2687738E+04  0.7816531E-02  0.8338994E-01
          2   -1    0    0  501    0  0.00000000000E+00  0.00000000000E+00  0.84878168343E+03  0.84878168343E+03  0.00000000000E+00 0.  1.
         -2   -1    0    0    0  501 -0.00000000000E+00 -0.00000000000E+00 -0.21277370069E+04  0.21277370069E+04  0.00000000000E+00 0. -1.
    2000013    1    1    2    0    0 -0.62200477323E+03  0.58620021133E+03 -0.17890413754E+03  0.12903593748E+04  0.95000000000E+03 0.  0.
   -2000013    1    1    2    0    0  0.62200477323E+03 -0.58620021133E+03 -0.11000511859E+04  0.16861593155E+04  0.95000000000E+03 0.  0.
<mgrwt>
<rscale>  0 0.26877382E+04</rscale>
<asrwt>0</asrwt>
<pdfrwt beam="1">  1        2 0.13058180E+00 0.26877382E+04</pdfrwt>
<pdfrwt beam="2">  1       -2 0.32734415E+00 0.26877382E+04</pdfrwt>
<totfact> 0.60223666E-01</totfact>
</mgrwt>
</event>
<event>
 4    1  0.2482334E-008  0.2701369E+04  0.7816531E-02  0.8334561E-01
          1   -1    0    0  501    0  0.00000000000E+00  0.00000000000E+00  0.22256219930E+04  0.22256219930E+04  0.00000000000E+00 0.  1.
         -1   -1    0    0    0  501 -0.00000000000E+00 -0.00000000000E+00 -0.81970260550E+03  0.81970260550E+03  0.00000000000E+00 0. -1.
    2000013    1    1    2    0    0 -0.19276410869E+03 -0.57549647472E+03  0.15416587900E+04  0.19098602092E+04  0.95000000000E+03 0.  0.
   -2000013    1    1    2    0    0  0.19276410869E+03  0.57549647472E+03 -0.13573940247E+03  0.11354643893E+04  0.95000000000E+03 0.  0.
<mgrwt>
<rscale>  0 0.27013687E+04</rscale>
<asrwt>0</asrwt>
<pdfrwt beam="1">  1        1 0.34240338E+00 0.27013687E+04</pdfrwt>
<pdfrwt beam="2">  1       -1 0.12610809E+00 0.27013687E+04</pdfrwt>
<totfact> 0.99982377E-01</totfact>
</mgrwt>
</event>
<event>
 4    1  0.2482334E-008  0.2450528E+04  0.7816531E-02  0.8420825E-01
          2   -1    0    0  501    0  0.00000000000E+00  0.00000000000E+00  0.19961574148E+04  0.19961574148E+04  0.00000000000E+00 0.  1.
         -2   -1    0    0    0  501 -0.00000000000E+00 -0.00000000000E+00 -0.75208085223E+03  0.75208085223E+03  0.00000000000E+00 0. -1.
    2000013    1    1    2    0    0 -0.63292535877E+03  0.20414630579E+03  0.10657021312E+04  0.15749575412E+04  0.95000000000E+03 0.  0.
   -2000013    1    1    2    0    0  0.63292535877E+03 -0.20414630579E+03  0.17837443133E+03  0.11732807259E+04  0.95000000000E+03 0.  0.
<mgrwt>
<rscale>  0 0.24505279E+04</rscale>
<asrwt>0</asrwt>
<pdfrwt beam="1">  1        2 0.30710114E+00 0.24505279E+04</pdfrwt>
<pdfrwt beam="2">  1       -2 0.11570475E+00 0.24505279E+04</pdfrwt>
<totfact> 0.34927401E+00</totfact>
</mgrwt>
</event>
<event>
 4    1  0.2482334E-008  0.2787886E+04  0.7816531E-02  0.8307039E-01
         -2   -1    0    0    0  501 -0.00000000000E+00  0.00000000000E+00  0.12454066094E+04  0.12454066094E+04  0.00000000000E+00 0. -1.
          2   -1    0    0  501    0  0.00000000000E+00 -0.00000000000E+00 -0.15601948388E+04  0.15601948388E+04  0.00000000000E+00 0.  1.
    2000013    1    1    2    0    0 -0.86567790636E+03  0.13862819664E+03  0.36741848659E+03  0.13439167976E+04  0.95000000000E+03 0.  0.
   -2000013    1    1    2    0    0  0.86567790636E+03 -0.13862819664E+03 -0.68220671607E+03  0.14616846506E+04  0.95000000000E+03 0.  0.
<mgrwt>
<rscale>  0 0.27878859E+04</rscale>
<asrwt>0</asrwt>
<pdfrwt beam="2">  1        2 0.24002998E+00 0.27878859E+04</pdfrwt>
<pdfrwt beam="1">  1       -2 0.19160102E+00 0.27878859E+04</pdfrwt>
<totfact> 0.15465424E+00</totfact>
</mgrwt>
</event>
<event>
 4    1  0.2482334E-008  0.2145907E+04  0.7816531E-02  0.8541286E-01
          2   -1    0    0  501    0  0.00000000000E+00  0.00000000000E+00  0.17524215984E+04  0.17524215984E+04  0.00000000000E+00 0.  1.
         -2   -1    0    0    0  501 -0.00000000000E+00 -0.00000000000E+00 -0.65693619125E+03  0.65693619125E+03  0.00000000000E+00 0. -1.
    2000013    1    1    2    0    0  0.44024788965E+03  0.14339605821E+03  0.75582950170E+03  0.12992916799E+04  0.95000000000E+03 0.  0.
   -2000013    1    1    2    0    0 -0.44024788965E+03 -0.14339605821E+03  0.33965590542E+03  0.11100661097E+04  0.95000000000E+03 0.  0.
<mgrwt>
<rscale>  0 0.21459070E+04</rscale>
<asrwt>0</asrwt>
<pdfrwt beam="1">  1        2 0.26960332E+00 0.21459070E+04</pdfrwt>
<pdfrwt beam="2">  1       -2 0.10106711E+00 0.21459070E+04</pdfrwt>
<totfact> 0.67810246E+00</totfact>
</mgrwt>
</event>
<event>
 4    1  0.2482334E-008  0.1971265E+04  0.7816531E-02  0.8620174E-01
         -2   -1    0    0    0  501 -0.00000000000E+00  0.00000000000E+00  0.52981790755E+03  0.52981790755E+03  0.00000000000E+00 0. -1.
          2   -1    0    0  501    0  0.00000000000E+00 -0.00000000000E+00 -0.18335941961E+04  0.18335941961E+04  0.00000000000E+00 0.  1.
    2000013    1    1    2    0    0 -0.32978226909E+02  0.25930580240E+03 -0.68231309876E+03  0.11984899780E+04  0.95000000000E+03 0.  0.
   -2000013    1    1    2    0    0  0.32978226909E+02 -0.25930580240E+03 -0.62146318981E+03  0.11649221257E+04  0.95000000000E+03 0.  0.
<mgrwt>
<rscale>  0 0.19712646E+04</rscale>
<asrwt>0</asrwt>
<pdfrwt beam="2">  1        2 0.28209142E+00 0.19712646E+04</pdfrwt>
<pdfrwt beam="1">  1       -2 0.81510446E-01 0.19712646E+04</pdfrwt>
<totfact> 0.10199915E+01</totfact>
</mgrwt>
</event>
<event>
 4    1  0.2482334E-008  0.2875336E+04  0.7816531E-02  0.8280254E-01
         -2   -1    0    0    0  501 -0.00000000000E+00  0.00000000000E+00  0.86209229810E+03  0.86209229810E+03  0.00000000000E+00 0. -1.
          2   -1    0    0  501    0  0.00000000000E+00 -0.00000000000E+00 -0.23975262494E+04  0.23975262494E+04  0.00000000000E+00 0.  1.
    2000013    1    1    2    0    0  0.88997745292E+03 -0.60396702803E+03 -0.66919470654E+03  0.15834006419E+04  0.95000000000E+03 0.  0.
   -2000013    1    1    2    0    0 -0.88997745292E+03  0.60396702803E+03 -0.86623924471E+03  0.16762179055E+04  0.95000000000E+03 0.  0.
<mgrwt>
<rscale>  0 0.28753357E+04</rscale>
<asrwt>0</asrwt>
<pdfrwt beam="2">  1        2 0.36885019E+00 0.28753357E+04</pdfrwt>
<pdfrwt beam="1">  1       -2 0.13262958E+00 0.28753357E+04</pdfrwt>
<totfact> 0.14234981E+00</totfact>
</mgrwt>
</event>
<event>
 4    1  0.2482334E-008  0.2098202E+04  0.7816531E-02  0.8562036E-01
         -2   -1    0    0    0  501 -0.00000000000E+00  0.00000000000E+00  0.78256394136E+03  0.78256394136E+03  0.00000000000E+00 0. -1.
          2   -1    0    0  501    0  0.00000000000E+00 -0.00000000000E+00 -0.14064184929E+04  0.14064184929E+04  0.00000000000E+00 0.  1.
    2000013    1    1    2    0    0  0.14315873617E+03 -0.39432124725E+03 -0.46712070065E+03  0.11387209574E+04  0.95000000000E+03 0.  0.
   -2000013    1    1    2    0    0 -0.14315873617E+03  0.39432124725E+03 -0.15673385085E+03  0.10502614769E+04  0.95000000000E+03 0.  0.
<mgrwt>
<rscale>  0 0.20982015E+04</rscale>
<asrwt>0</asrwt>
<pdfrwt beam="2">  1        2 0.21637207E+00 0.20982015E+04</pdfrwt>
<pdfrwt beam="1">  1       -2 0.12039445E+00 0.20982015E+04</pdfrwt>
<totfact> 0.69665816E+00</totfact>
</mgrwt>
</event>
<event>
 4    1  0.2482334E-008  0.2583890E+04  0.7816531E-02  0.8373694E-01
         -2   -1    0    0    0  501 -0.00000000000E+00  0.00000000000E+00  0.17290414558E+04  0.17290414558E+04  0.00000000000E+00 0. -1.
          2   -1    0    0  501    0  0.00000000000E+00 -0.00000000000E+00 -0.96534516586E+03  0.96534516586E+03  0.00000000000E+00 0.  1.
    2000013    1    1    2    0    0  0.41930548196E+03  0.34602937900E+03  0.10975429820E+04  0.15500496817E+04  0.95000000000E+03 0.  0.
   -2000013    1    1    2    0    0 -0.41930548196E+03 -0.34602937900E+03 -0.33384669208E+03  0.11443369400E+04  0.95000000000E+03 0.  0.
<mgrwt>
<rscale>  0 0.25838899E+04</rscale>
<asrwt>0</asrwt>
<pdfrwt beam="2">  1        2 0.14851464E+00 0.25838899E+04</pdfrwt>
<pdfrwt beam="1">  1       -2 0.26600638E+00 0.25838899E+04</pdfrwt>
<totfact> 0.12045413E+00</totfact>
</mgrwt>
</event>
<event>
 4    1  0.2482334E-008  0.1997417E+04  0.7816531E-02  0.8607829E-01
         -2   -1    0    0    0  501 -0.00000000000E+00  0.00000000000E+00  0.32416313782E+03  0.32416313782E+03  0.00000000000E+00 0. -1.
          2   -1    0    0  501    0  0.00000000000E+00 -0.00000000000E+00 -0.30769033693E+04  0.30769033693E+04  0.00000000000E+00 0.  1.
    2000013    1    1    2    0    0 -0.16767721731E+03 -0.24625649957E+03 -0.12427220240E+04  0.15923617496E+04  0.95000000000E+03 0.  0.
   -2000013    1    1    2    0    0  0.16767721731E+03  0.24625649957E+03 -0.15100182075E+04  0.18087047575E+04  0.95000000000E+03 0.  0.
<mgrwt>
<rscale>  0 0.19974170E+04</rscale>
<asrwt>0</asrwt>
<pdfrwt beam="2">  1        2 0.47336976E+00 0.19974170E+04</pdfrwt>
<pdfrwt beam="1">  1       -2 0.49871251E-01 0.19974170E+04</pdfrwt>
<totfact> 0.55189971E+00</totfact>
</mgrwt>
</event>
<event>
 4    1  0.2482334E-008  0.3261304E+04  0.7816531E-02  0.8172812E-01
         -2   -1    0    0    0  501 -0.00000000000E+00  0.00000000000E+00  0.23325877829E+04  0.23325877829E+04  0.00000000000E+00 0. -1.
          2   -1    0    0  501    0  0.00000000000E+00 -0.00000000000E+00 -0.11399468436E+04  0.11399468436E+04  0.00000000000E+00 0.  1.
    2000013    1    1    2    0    0  0.61458919760E+02 -0.11072646455E+04  0.13690769844E+04  0.20016702983E+04  0.95000000000E+03 0.  0.
   -2000013    1    1    2    0    0 -0.61458919760E+02  0.11072646455E+04 -0.17643604503E+03  0.14708643282E+04  0.95000000000E+03 0.  0.
<mgrwt>
<rscale>  0 0.32613041E+04</rscale>
<asrwt>0</asrwt>
<pdfrwt beam="2">  1        2 0.17537644E+00 0.32613041E+04</pdfrwt>
<pdfrwt beam="1">  1       -2 0.35885966E+00 0.32613041E+04</pdfrwt>
<totfact> 0.23577704E-01</totfact>
</mgrwt>
</event>
<event>
 4    1  0.2482334E-008  0.2844857E+04  0.7816531E-02  0.8289476E-01
         -2   -1    0    0    0  501 -0.00000000000E+00  0.00000000000E+00  0.66804046295E+03  0.66804046295E+03  0.00000000000E+00 0. -1.
          2   -1    0    0  501    0  0.00000000000E+00 -0.00000000000E+00 -0.30287130604E+04  0.30287130604E+04  0.00000000000E+00 0.  1.
    2000013    1    1    2    0    0  0.86294704229E+03  0.49313778769E+03 -0.70654340744E+03  0.15458221314E+04  0.95000000000E+03 0.  0.
   -2000013    1    1    2    0    0 -0.86294704229E+03 -0.49313778769E+03 -0.16541291900E+04  0.21509313919E+04  0.95000000000E+03 0.  0.
<mgrwt>
<rscale>  0 0.28448570E+04</rscale>
<asrwt>0</asrwt>
<pdfrwt beam="2">  1        2 0.46595585E+00 0.28448570E+04</pdfrwt>
<pdfrwt beam="1">  1       -2 0.10277546E+00 0.28448570E+04</pdfrwt>
<totfact> 0.11199729E+00</totfact>
</mgrwt>
</event>
<event>
 4    1  0.2482334E-008  0.2527461E+04  0.7816531E-02  0.8393267E-01
         -2   -1    0    0    0  501 -0.00000000000E+00  0.00000000000E+00  0.79147115654E+03  0.79147115654E+03  0.00000000000E+00 0. -1.
          2   -1    0    0  501    0  0.00000000000E+00 -0.00000000000E+00 -0.20177807242E+04  0.20177807242E+04  0.00000000000E+00 0.  1.
    2000013    1    1    2    0    0 -0.14959414560E+03  0.73672157476E+03 -0.21336045170E+03  0.12301055928E+04  0.95000000000E+03 0.  0.
   -2000013    1    1    2    0    0  0.14959414560E+03 -0.73672157476E+03 -0.10129491159E+04  0.15791462879E+04  0.95000000000E+03 0.  0.
<mgrwt>
<rscale>  0 0.25274614E+04</rscale>
<asrwt>0</asrwt>
<pdfrwt beam="2">  1        2 0.31042780E+00 0.25274614E+04</pdfrwt>
<pdfrwt beam="1">  1       -2 0.12176479E+00 0.25274614E+04</pdfrwt>
<totfact> 0.29755888E+00</totfact>
</mgrwt>
</event>
<event>
 4    1  0.2482334E-008  0.2344171E+04  0.7816531E-02  0.8460706E-01
          2   -1    0    0  501    0  0.00000000000E+00  0.00000000000E+00  0.30031015960E+04  0.30031015960E+04  0.00000000000E+00 0.  1.
         -2   -1    0    0    0  501 -0.00000000000E+00 -0.00000000000E+00 -0.45745502416E+03  0.45745502416E+03  0.00000000000E+00 0. -1.
    2000013    1    1    2    0    0 -0.40155545579E+03  0.36060868651E+03  0.64651061413E+03  0.12695516465E+04  0.95000000000E+03 0.  0.
   -2000013    1    1    2    0    0  0.40155545579E+03 -0.36060868651E+03  0.18991359577E+04  0.21910049736E+04  0.95000000000E+03 0.  0.
<mgrwt>
<rscale>  0 0.23441706E+04</rscale>
<asrwt>0</asrwt>
<pdfrwt beam="1">  1        2 0.46201562E+00 0.23441706E+04</pdfrwt>
<pdfrwt beam="2">  1       -2 0.70377698E-01 0.23441706E+04</pdfrwt>
<totfact> 0.28785884E+00</totfact>
</mgrwt>
</event>
<event>
 4    1  0.2482334E-008  0.2770806E+04  0.7816531E-02  0.8312390E-01
          2   -1    0    0  501    0  0.00000000000E+00  0.00000000000E+00  0.83070287723E+03  0.83070287723E+03  0.00000000000E+00 0.  1.
         -2   -1    0    0    0  501 -0.00000000000E+00 -0.00000000000E+00 -0.23105023831E+04  0.23105023831E+04  0.00000000000E+00 0. -1.
    2000013    1    1    2    0    0 -0.27162881836E+03 -0.77300536013E+03 -0.14062886855E+04  0.18845337271E+04  0.95000000000E+03 0.  0.
   -2000013    1    1    2    0    0  0.27162881836E+03  0.77300536013E+03 -0.73510820409E+02  0.12566715332E+04  0.95000000000E+03 0.  0.
<mgrwt>
<rscale>  0 0.27708056E+04</rscale>
<asrwt>0</asrwt>
<pdfrwt beam="1">  1        2 0.12780044E+00 0.27708056E+04</pdfrwt>
<pdfrwt beam="2">  1       -2 0.35546191E+00 0.27708056E+04</pdfrwt>
<totfact> 0.41041827E-01</totfact>
</mgrwt>
</event>
<event>
 4    1  0.2482334E-008  0.2219358E+04  0.7816531E-02  0.8510414E-01
         -2   -1    0    0    0  501 -0.00000000000E+00  0.00000000000E+00  0.12369189770E+04  0.12369189770E+04  0.00000000000E+00 0. -1.
          2   -1    0    0  501    0  0.00000000000E+00 -0.00000000000E+00 -0.99552838925E+03  0.99552838925E+03  0.00000000000E+00 0.  1.
    2000013    1    1    2    0    0 -0.76248256914E+02 -0.55990805377E+03  0.21913527154E+03  0.11268678239E+04  0.95000000000E+03 0.  0.
   -2000013    1    1    2    0    0  0.76248256914E+02  0.55990805377E+03  0.22255316229E+02  0.11055795423E+04  0.95000000000E+03 0.  0.
<mgrwt>
<rscale>  0 0.22193584E+04</rscale>
<asrwt>0</asrwt>
<pdfrwt beam="2">  1        2 0.15315821E+00 0.22193584E+04</pdfrwt>
<pdfrwt beam="1">  1       -2 0.19029523E+00 0.22193584E+04</pdfrwt>
<totfact> 0.35695253E+00</totfact>
</mgrwt>
</event>
<event>
 4    1  0.2482334E-008  0.2362625E+04  0.7816531E-02  0.8453630E-01
          2   -1    0    0  501    0  0.00000000000E+00  0.00000000000E+00  0.17062676407E+04  0.17062676407E+04  0.00000000000E+00 0.  1.
         -2   -1    0    0    0  501 -0.00000000000E+00 -0.00000000000E+00 -0.81786652879E+03  0.81786652879E+03  0.00000000000E+00 0. -1.
    2000013    1    1    2    0    0 -0.24343536295E+03  0.65383525143E+03  0.52857990516E+03  0.12917654695E+04  0.95000000000E+03 0.  0.
   -2000013    1    1    2    0    0  0.24343536295E+03 -0.65383525143E+03  0.35982120672E+03  0.12323687000E+04  0.95000000000E+03 0.  0.
<mgrwt>
<rscale>  0 0.23626250E+04</rscale>
<asrwt>0</asrwt>
<pdfrwt beam="1">  1        2 0.26250271E+00 0.23626250E+04</pdfrwt>
<pdfrwt beam="2">  1       -2 0.12582562E+00 0.23626250E+04</pdfrwt>
<totfact> 0.41388723E+00</totfact>
</mgrwt>
</event>
<event>
 4    1  0.2482334E-008  0.2080874E+04  0.7816531E-02  0.8569716E-01
         -2   -1    0    0    0  501 -0.00000000000E+00  0.00000000000E+00  0.17864384511E+04  0.17864384511E+04  0.00000000000E+00 0. -1.
          2   -1    0    0  501    0  0.00000000000E+00 -0.00000000000E+00 -0.60595925901E+03  0.60595925901E+03  0.00000000000E+00 0.  1.
    2000013    1    1    2    0    0 -0.35469168477E+03 -0.23139039536E+03  0.61980328277E+03  0.12107864451E+04  0.95000000000E+03 0.  0.
   -2000013    1    1    2    0    0  0.35469168477E+03  0.23139039536E+03  0.56067590935E+03  0.11816112650E+04  0.95000000000E+03 0.  0.
<mgrwt>
<rscale>  0 0.20808738E+04</rscale>
<asrwt>0</asrwt>
<pdfrwt beam="2">  1        2 0.93224502E-01 0.20808738E+04</pdfrwt>
<pdfrwt beam="1">  1       -2 0.27483668E+00 0.20808738E+04</pdfrwt>
<totfact> 0.20485849E+00</totfact>
</mgrwt>
</event>
<event>
 4    1  0.2482334E-008  0.2597181E+04  0.7816531E-02  0.8369159E-01
          2   -1    0    0  501    0  0.00000000000E+00  0.00000000000E+00  0.25803148943E+04  0.25803148943E+04  0.00000000000E+00 0.  1.
         -2   -1    0    0    0  501 -0.00000000000E+00 -0.00000000000E+00 -0.65353923886E+03  0.65353923886E+03  0.00000000000E+00 0. -1.
    2000013    1    1    2    0    0  0.72169298654E+03 -0.20923947314E+03  0.15463675961E+04  0.19642745903E+04  0.95000000000E+03 0.  0.
   -2000013    1    1    2    0    0 -0.72169298654E+03  0.20923947314E+03  0.38040805931E+03  0.12695795428E+04  0.95000000000E+03 0.  0.
<mgrwt>
<rscale>  0 0.25971808E+04</rscale>
<asrwt>0</asrwt>
<pdfrwt beam="1">  1        2 0.39697152E+00 0.25971808E+04</pdfrwt>
<pdfrwt beam="2">  1       -2 0.10054450E+00 0.25971808E+04</pdfrwt>
<totfact> 0.22542343E+00</totfact>
</mgrwt>
</event>
<event>
 4    1  0.2482334E-008  0.2102994E+04  0.7816531E-02  0.8559926E-01
          1   -1    0    0  501    0  0.00000000000E+00  0.00000000000E+00  0.22277786302E+04  0.22277786302E+04  0.00000000000E+00 0.  1.
         -1   -1    0    0    0  501 -0.00000000000E+00 -0.00000000000E+00 -0.49629961730E+03  0.49629961730E+03  0.00000000000E+00 0. -1.
    2000013    1    1    2    0    0 -0.30010649584E+03 -0.33088120483E+03  0.94345305037E+03  0.14114354179E+04  0.95000000000E+03 0.  0.
   -2000013    1    1    2    0    0  0.30010649584E+03  0.33088120483E+03  0.78802596250E+03  0.13126428296E+04  0.95000000000E+03 0.  0.
<mgrwt>
<rscale>  0 0.21029938E+04</rscale>
<asrwt>0</asrwt>
<pdfrwt beam="1">  1        1 0.34273517E+00 0.21029938E+04</pdfrwt>
<pdfrwt beam="2">  1       -1 0.76353789E-01 0.21029938E+04</pdfrwt>
<totfact> 0.33016679E+00</totfact>
</mgrwt>
</event>
<event>
 4    1  0.2482334E-008  0.2218903E+04  0.7816531E-02  0.8510601E-01
          2   -1    0    0  501    0  0.00000000000E+00  0.00000000000E+00  0.12127448322E+04  0.12127448322E+04  0.00000000000E+00 0.  1.
         -2   -1    0    0    0  501 -0.00000000000E+00 -0.00000000000E+00 -0.10149561393E+04  0.10149561393E+04  0.00000000000E+00 0. -1.
    2000013    1    1    2    0    0  0.28962644725E+03  0.47668645961E+03 -0.33039607923E+02  0.11021365956E+04  0.95000000000E+03 0.  0.
   -2000013    1    1    2    0    0 -0.28962644725E+03 -0.47668645961E+03  0.23082830088E+03  0.11255643759E+04  0.95000000000E+03 0.  0.
<mgrwt>
<rscale>  0 0.22189032E+04</rscale>
<asrwt>0</asrwt>
<pdfrwt beam="1">  1        2 0.18657613E+00 0.22189032E+04</pdfrwt>
<pdfrwt beam="2">  1       -2 0.15614710E+00 0.22189032E+04</pdfrwt>
<totfact> 0.45714253E+00</totfact>
</mgrwt>
</event>
<event>
 4    1  0.2482334E-008  0.2261281E+04  0.7816531E-02  0.8493346E-01
          2   -1    0    0  501    0  0.00000000000E+00  0.00000000000E+00  0.52250270662E+03  0.52250270662E+03  0.00000000000E+00 0.  1.
         -2   -1    0    0    0  501 -0.00000000000E+00 -0.00000000000E+00 -0.24465855979E+04  0.24465855979E+04  0.00000000000E+00 0. -1.
    2000013    1    1    2    0    0 -0.56403348008E+03  0.63269053546E+02 -0.12663398537E+04  0.16817411706E+04  0.95000000000E+03 0.  0.
   -2000013    1    1    2    0    0  0.56403348008E+03 -0.63269053546E+02 -0.65774303759E+03  0.12873471339E+04  0.95000000000E+03 0.  0.
<mgrwt>
<rscale>  0 0.22612807E+04</rscale>
<asrwt>0</asrwt>
<pdfrwt beam="1">  1        2 0.80385032E-01 0.22612807E+04</pdfrwt>
<pdfrwt beam="2">  1       -2 0.37639778E+00 0.22612807E+04</pdfrwt>
<totfact> 0.56261215E-01</totfact>
</mgrwt>
</event>
<event>
 4    1  0.2482334E-008  0.2090193E+04  0.7816531E-02  0.8565576E-01
          2   -1    0    0  501    0  0.00000000000E+00  0.00000000000E+00  0.15977991334E+04  0.15977991334E+04  0.00000000000E+00 0.  1.
         -2   -1    0    0    0  501 -0.00000000000E+00 -0.00000000000E+00 -0.68358223427E+03  0.68358223427E+03  0.00000000000E+00 0. -1.
    2000013    1    1    2    0    0 -0.25929059346E+02  0.35653413310E+03  0.18547033897E+03  0.10318372695E+04  0.95000000000E+03 0.  0.
   -2000013    1    1    2    0    0  0.25929059346E+02 -0.35653413310E+03  0.72874656015E+03  0.12495440981E+04  0.95000000000E+03 0.  0.
<mgrwt>
<rscale>  0 0.20901934E+04</rscale>
<asrwt>0</asrwt>
<pdfrwt beam="1">  1        2 0.24581525E+00 0.20901934E+04</pdfrwt>
<pdfrwt beam="2">  1       -2 0.10516650E+00 0.20901934E+04</pdfrwt>
<totfact> 0.75539298E+00</totfact>
</mgrwt>
</event>
<event>
 4    1  0.2482334E-008  0.2910308E+04  0.7816531E-02  0.8269817E-01
          2   -1    0    0  501    0  0.00000000000E+00  0.00000000000E+00  0.27851579172E+04  0.27851579172E+04  0.00000000000E+00 0.  1.
         -2   -1    0    0    0  501 -0.00000000000E+00 -0.00000000000E+00 -0.76027023419E+03  0.76027023419E+03  0.00000000000E+00 0. -1.
    2000013    1    1    2    0    0 -0.92468211001E+02 -0.10605782346E+04  0.13604320183E+04  0.19714593169E+04  0.95000000000E+03 0.  0.
   -2000013    1    1    2    0    0  0.92468211001E+02  0.10605782346E+04  0.66445566475E+03  0.15739688345E+04  0.95000000000E+03 0.  0.
<mgrwt>
<rscale>  0 0.29103077E+04</rscale>
<asrwt>0</asrwt>
<pdfrwt beam="1">  1        2 0.42848583E+00 0.29103077E+04</pdfrwt>
<pdfrwt beam="2">  1       -2 0.11696465E+00 0.29103077E+04</pdfrwt>
<totfact> 0.11511333E+00</totfact>
</mgrwt>
</event>
<event>
 4    1  0.2482334E-008  0.2306486E+04  0.7816531E-02  0.8475368E-01
         -2   -1    0    0    0  501 -0.00000000000E+00  0.00000000000E+00  0.44694431026E+03  0.44694431026E+03  0.00000000000E+00 0. -1.
          2   -1    0    0  501    0  0.00000000000E+00 -0.00000000000E+00 -0.29756931867E+04  0.29756931867E+04  0.00000000000E+00 0.  1.
    2000013    1    1    2    0    0  0.17585141461E+03  0.62333236542E+03 -0.13971182590E+04  0.18093939282E+04  0.95000000000E+03 0.  0.
   -2000013    1    1    2    0    0 -0.17585141461E+03 -0.62333236542E+03 -0.11316306174E+04  0.16132435687E+04  0.95000000000E+03 0.  0.
<mgrwt>
<rscale>  0 0.23064858E+04</rscale>
<asrwt>0</asrwt>
<pdfrwt beam="2">  1        2 0.45779893E+00 0.23064858E+04</pdfrwt>
<pdfrwt beam="1">  1       -2 0.68760667E-01 0.23064858E+04</pdfrwt>
<totfact> 0.31604549E+00</totfact>
</mgrwt>
</event>
<event>
 4    1  0.2482334E-008  0.1992191E+04  0.7816531E-02  0.8610280E-01
          2   -1    0    0  501    0  0.00000000000E+00  0.00000000000E+00  0.53299064273E+03  0.53299064273E+03  0.00000000000E+00 0.  1.
         -2   -1    0    0    0  501 -0.00000000000E+00 -0.00000000000E+00 -0.18615833418E+04  0.18615833418E+04  0.00000000000E+00 0. -1.
    2000013    1    1    2    0    0  0.23832717469E+03  0.13035193516E+03 -0.81593188768E+03  0.12814196481E+04  0.95000000000E+03 0.  0.
   -2000013    1    1    2    0    0 -0.23832717469E+03 -0.13035193516E+03 -0.51266081141E+03  0.11131543364E+04  0.95000000000E+03 0.  0.
<mgrwt>
<rscale>  0 0.19921913E+04</rscale>
<asrwt>0</asrwt>
<pdfrwt beam="1">  1        2 0.81998563E-01 0.19921913E+04</pdfrwt>
<pdfrwt beam="2">  1       -2 0.28639743E+00 0.19921913E+04</pdfrwt>
<totfact> 0.20459307E+00</totfact>
</mgrwt>
</event>
<event>
 4    1  0.2482334E-008  0.2374828E+04  0.7816531E-02  0.8448988E-01
          2   -1    0    0  501    0  0.00000000000E+00  0.00000000000E+00  0.18445175285E+04  0.18445175285E+04  0.00000000000E+00 0.  1.
         -2   -1    0    0    0  501 -0.00000000000E+00 -0.00000000000E+00 -0.76440126822E+03  0.76440126822E+03  0.00000000000E+00 0. -1.
    2000013    1    1    2    0    0  0.22169513735E+03  0.17536256545E+02 -0.20340421326E+03  0.99665918357E+03  0.95000000000E+03 0.  0.
   -2000013    1    1    2    0    0 -0.22169513735E+03 -0.17536256545E+02  0.12835204736E+04  0.16122596132E+04  0.95000000000E+03 0.  0.
<mgrwt>
<rscale>  0 0.23748276E+04</rscale>
<asrwt>0</asrwt>
<pdfrwt beam="1">  1        2 0.28377193E+00 0.23748276E+04</pdfrwt>
<pdfrwt beam="2">  1       -2 0.11760020E+00 0.23748276E+04</pdfrwt>
<totfact> 0.41005208E+00</totfact>
</mgrwt>
</event>
<event>
 4    1  0.2482334E-008  0.2869797E+04  0.7816531E-02  0.8281921E-01
          2   -1    0    0  501    0  0.00000000000E+00  0.00000000000E+00  0.11280944308E+04  0.11280944308E+04  0.00000000000E+00 0.  1.
         -2   -1    0    0    0  501 -0.00000000000E+00 -0.00000000000E+00 -0.18251428365E+04  0.18251428365E+04  0.00000000000E+00 0. -1.
    2000013    1    1    2    0    0  0.47385135355E+03 -0.96050362331E+03 -0.24911768605E+03  0.14531558544E+04  0.95000000000E+03 0.  0.
   -2000013    1    1    2    0    0 -0.47385135355E+03  0.96050362331E+03 -0.44793071961E+03  0.15000814129E+04  0.95000000000E+03 0.  0.
<mgrwt>
<rscale>  0 0.28697968E+04</rscale>
<asrwt>0</asrwt>
<pdfrwt beam="1">  1        2 0.17355299E+00 0.28697968E+04</pdfrwt>
<pdfrwt beam="2">  1       -2 0.28079120E+00 0.28697968E+04</pdfrwt>
<totfact> 0.75438320E-01</totfact>
</mgrwt>
</event>
<event>
 4    1  0.2482334E-008  0.3052691E+04  0.7816531E-02  0.8228843E-01
          2   -1    0    0  501    0  0.00000000000E+00  0.00000000000E+00  0.15508382694E+04  0.15508382694E+04  0.00000000000E+00 0.  1.
         -2   -1    0    0    0  501 -0.00000000000E+00 -0.00000000000E+00 -0.15022398468E+04  0.15022398468E+04  0.00000000000E+00 0. -1.
    2000013    1    1    2    0    0  0.96743608131E+03 -0.68155548753E+03 -0.13936928797E+03  0.15239338084E+04  0.95000000000E+03 0.  0.
   -2000013    1    1    2    0    0 -0.96743608131E+03  0.68155548753E+03  0.18796771054E+03  0.15291443078E+04  0.95000000000E+03 0.  0.
<mgrwt>
<rscale>  0 0.30526913E+04</rscale>
<asrwt>0</asrwt>
<pdfrwt beam="1">  1        2 0.23859050E+00 0.30526913E+04</pdfrwt>
<pdfrwt beam="2">  1       -2 0.23111382E+00 0.30526913E+04</pdfrwt>
<totfact> 0.85222007E-01</totfact>
</mgrwt>
</event>
<event>
 4    1  0.2482334E-008  0.2202519E+04  0.7816531E-02  0.8517381E-01
         -2   -1    0    0    0  501 -0.00000000000E+00  0.00000000000E+00  0.80789955340E+03  0.80789955340E+03  0.00000000000E+00 0. -1.
          2   -1    0    0  501    0  0.00000000000E+00 -0.00000000000E+00 -0.15011421588E+04  0.15011421588E+04  0.00000000000E+00 0.  1.
    2000013    1    1    2    0    0 -0.25720692763E+03 -0.22031532025E+03 -0.81025181044E+03  0.12937164451E+04  0.95000000000E+03 0.  0.
   -2000013    1    1    2    0    0  0.25720692763E+03  0.22031532025E+03  0.11700920506E+03  0.10153252671E+04  0.95000000000E+03 0.  0.
<mgrwt>
<rscale>  0 0.22025186E+04</rscale>
<asrwt>0</asrwt>
<pdfrwt beam="2">  1        2 0.23094495E+00 0.22025186E+04</pdfrwt>
<pdfrwt beam="1">  1       -2 0.12429224E+00 0.22025186E+04</pdfrwt>
<totfact> 0.56345561E+00</totfact>
</mgrwt>
</event>
<event>
 4    1  0.2482334E-008  0.2609147E+04  0.7816531E-02  0.8365101E-01
          1   -1    0    0  501    0  0.00000000000E+00  0.00000000000E+00  0.15558864356E+04  0.15558864356E+04  0.00000000000E+00 0.  1.
         -1   -1    0    0    0  501 -0.00000000000E+00 -0.00000000000E+00 -0.10938537606E+04  0.10938537606E+04  0.00000000000E+00 0. -1.
    2000013    1    1    2    0    0  0.83643371378E+03  0.27152948945E+03  0.39496717914E+03  0.13534580502E+04  0.95000000000E+03 0.  0.
   -2000013    1    1    2    0    0 -0.83643371378E+03 -0.27152948945E+03  0.67065495908E+02  0.12962821460E+04  0.95000000000E+03 0.  0.
<mgrwt>
<rscale>  0 0.26091472E+04</rscale>
<asrwt>0</asrwt>
<pdfrwt beam="1">  1        1 0.23936714E+00 0.26091472E+04</pdfrwt>
<pdfrwt beam="2">  1       -1 0.16828519E+00 0.26091472E+04</pdfrwt>
<totfact> 0.13342674E+00</totfact>
</mgrwt>
</event>
<event>
 4    1  0.2482334E-008  0.2282439E+04  0.7816531E-02  0.8484878E-01
         -2   -1    0    0    0  501 -0.00000000000E+00  0.00000000000E+00  0.10832164219E+04  0.10832164219E+04  0.00000000000E+00 0. -1.
          2   -1    0    0  501    0  0.00000000000E+00 -0.00000000000E+00 -0.12023282069E+04  0.12023282069E+04  0.00000000000E+00 0.  1.
    2000013    1    1    2    0    0 -0.13596996633E+03 -0.41615714177E+03  0.39736214243E+03  0.11189599057E+04  0.95000000000E+03 0.  0.
   -2000013    1    1    2    0    0  0.13596996633E+03  0.41615714177E+03 -0.51647392748E+03  0.11665847231E+04  0.95000000000E+03 0.  0.
<mgrwt>
<rscale>  0 0.22824387E+04</rscale>
<asrwt>0</asrwt>
<pdfrwt beam="2">  1        2 0.18497357E+00 0.22824387E+04</pdfrwt>
<pdfrwt beam="1">  1       -2 0.16664868E+00 0.22824387E+04</pdfrwt>
<totfact> 0.38612498E+00</totfact>
</mgrwt>
</event>
<event>
 4    1  0.2482334E-008  0.2074091E+04  0.7816531E-02  0.8572743E-01
          2   -1    0    0  501    0  0.00000000000E+00  0.00000000000E+00  0.14774288184E+04  0.14774288184E+04  0.00000000000E+00 0.  1.
         -2   -1    0    0    0  501 -0.00000000000E+00 -0.00000000000E+00 -0.72792936551E+03  0.72792936551E+03  0.00000000000E+00 0. -1.
    2000013    1    1    2    0    0 -0.11011992218E+03 -0.39563214020E+03  0.44457659658E+03  0.11264100221E+04  0.95000000000E+03 0.  0.
   -2000013    1    1    2    0    0  0.11011992218E+03  0.39563214020E+03  0.30492285632E+03  0.10789481618E+04  0.95000000000E+03 0.  0.
<mgrwt>
<rscale>  0 0.20740914E+04</rscale>
<asrwt>0</asrwt>
<pdfrwt beam="1">  1        2 0.22729674E+00 0.20740914E+04</pdfrwt>
<pdfrwt beam="2">  1       -2 0.11198913E+00 0.20740914E+04</pdfrwt>
<totfact> 0.75954061E+00</totfact>
</mgrwt>
</event>
<event>
 4    1  0.2482334E-008  0.2036355E+04  0.7816531E-02  0.8589809E-01
         -2   -1    0    0    0  501 -0.00000000000E+00  0.00000000000E+00  0.16791022191E+04  0.16791022191E+04  0.00000000000E+00 0. -1.
          2   -1    0    0  501    0  0.00000000000E+00 -0.00000000000E+00 -0.61740488244E+03  0.61740488244E+03  0.00000000000E+00 0.  1.
    2000013    1    1    2    0    0  0.32936213819E+03  0.45654056189E+01  0.71159082318E+03  0.12318123886E+04  0.95000000000E+03 0.  0.
   -2000013    1    1    2    0    0 -0.32936213819E+03 -0.45654056189E+01  0.35010651344E+03  0.10646947129E+04  0.95000000000E+03 0.  0.
<mgrwt>
<rscale>  0 0.20363555E+04</rscale>
<asrwt>0</asrwt>
<pdfrwt beam="2">  1        2 0.94985367E-01 0.20363555E+04</pdfrwt>
<pdfrwt beam="1">  1       -2 0.25832342E+00 0.20363555E+04</pdfrwt>
<totfact> 0.25347084E+00</totfact>
</mgrwt>
</event>
<event>
 4    1  0.2482334E-008  0.1965481E+04  0.7816531E-02  0.8622932E-01
         -2   -1    0    0    0  501 -0.00000000000E+00  0.00000000000E+00  0.16215158001E+04  0.16215158001E+04  0.00000000000E+00 0. -1.
          2   -1    0    0  501    0  0.00000000000E+00 -0.00000000000E+00 -0.59560248071E+03  0.59560248071E+03  0.00000000000E+00 0.  1.
    2000013    1    1    2    0    0  0.18247624170E+03  0.15960412144E+03  0.43722084205E+03  0.10735143777E+04  0.95000000000E+03 0.  0.
   -2000013    1    1    2    0    0 -0.18247624170E+03 -0.15960412144E+03  0.58869247733E+03  0.11436039031E+04  0.95000000000E+03 0.  0.
<mgrwt>
<rscale>  0 0.19654809E+04</rscale>
<asrwt>0</asrwt>
<pdfrwt beam="2">  1        2 0.91631151E-01 0.19654809E+04</pdfrwt>
<pdfrwt beam="1">  1       -2 0.24946397E+00 0.19654809E+04</pdfrwt>
<totfact> 0.30181715E+00</totfact>
</mgrwt>
</event>
<event>
 4    1  0.2482334E-008  0.2430932E+04  0.7816531E-02  0.8428013E-01
          2   -1    0    0  501    0  0.00000000000E+00  0.00000000000E+00  0.16366502863E+04  0.16366502863E+04  0.00000000000E+00 0.  1.
         -2   -1    0    0    0  501 -0.00000000000E+00 -0.00000000000E+00 -0.90267128596E+03  0.90267128596E+03  0.00000000000E+00 0. -1.
    2000013    1    1    2    0    0 -0.14393729670E+03 -0.72761545862E+03  0.20276974161E+03  0.12221938345E+04  0.95000000000E+03 0.  0.
   -2000013    1    1    2    0    0  0.14393729670E+03  0.72761545862E+03  0.53120925873E+03  0.13171277378E+04  0.95000000000E+03 0.  0.
<mgrwt>
<rscale>  0 0.24309317E+04</rscale>
<asrwt>0</asrwt>
<pdfrwt beam="1">  1        2 0.25179235E+00 0.24309317E+04</pdfrwt>
<pdfrwt beam="2">  1       -2 0.13887251E+00 0.24309317E+04</pdfrwt>
<totfact> 0.35003088E+00</totfact>
</mgrwt>
</event>
<event>
 4    1  0.2482334E-008  0.2881979E+04  0.7816531E-02  0.8278260E-01
         -2   -1    0    0    0  501 -0.00000000000E+00  0.00000000000E+00  0.19182595113E+04  0.19182595113E+04  0.00000000000E+00 0. -1.
          2   -1    0    0  501    0  0.00000000000E+00 -0.00000000000E+00 -0.10824660035E+04  0.10824660035E+04  0.00000000000E+00 0.  1.
    2000013    1    1    2    0    0 -0.10509710959E+04  0.18605452990E+03  0.22367908784E+03  0.14462672183E+04  0.95000000000E+03 0.  0.
   -2000013    1    1    2    0    0  0.10509710959E+04 -0.18605452990E+03  0.61211441990E+03  0.15544582965E+04  0.95000000000E+03 0.  0.
<mgrwt>
<rscale>  0 0.28819790E+04</rscale>
<asrwt>0</asrwt>
<pdfrwt beam="2">  1        2 0.16653323E+00 0.28819790E+04</pdfrwt>
<pdfrwt beam="1">  1       -2 0.29511685E+00 0.28819790E+04</pdfrwt>
<totfact> 0.65735685E-01</totfact>
</mgrwt>
</event>
<event>
 4    1  0.2482334E-008  0.3093691E+04  0.7816531E-02  0.8217472E-01
          2   -1    0    0  501    0  0.00000000000E+00  0.00000000000E+00  0.99012436317E+03  0.99012436317E+03  0.00000000000E+00 0.  1.
         -2   -1    0    0    0  501 -0.00000000000E+00 -0.00000000000E+00 -0.24165961607E+04  0.24165961607E+04  0.00000000000E+00 0. -1.
    2000013    1    1    2    0    0  0.11185076954E+04 -0.46046838252E+03 -0.89464773881E+03  0.17793215484E+04  0.95000000000E+03 0.  0.
   -2000013    1    1    2    0    0 -0.11185076954E+04  0.46046838252E+03 -0.53182405875E+03  0.16273989755E+04  0.95000000000E+03 0.  0.
<mgrwt>
<rscale>  0 0.30936908E+04</rscale>
<asrwt>0</asrwt>
<pdfrwt beam="1">  1        2 0.15232683E+00 0.30936908E+04</pdfrwt>
<pdfrwt beam="2">  1       -2 0.37178402E+00 0.30936908E+04</pdfrwt>
<totfact> 0.24540695E-01</totfact>
</mgrwt>
</event>
<event>
 4    1  0.2482334E-008  0.2145582E+04  0.7816531E-02  0.8541426E-01
          2   -1    0    0  501    0  0.00000000000E+00  0.00000000000E+00  0.11262896890E+04  0.11262896890E+04  0.00000000000E+00 0.  1.
         -2   -1    0    0    0  501 -0.00000000000E+00 -0.00000000000E+00 -0.10218337584E+04  0.10218337584E+04  0.00000000000E+00 0. -1.
    2000013    1    1    2    0    0  0.48568336295E+03  0.15958175070E+02 -0.58527797743E+02  0.10686760480E+04  0.95000000000E+03 0.  0.
   -2000013    1    1    2    0    0 -0.48568336295E+03 -0.15958175070E+02  0.16298372837E+03  0.10794473994E+04  0.95000000000E+03 0.  0.
<mgrwt>
<rscale>  0 0.21455823E+04</rscale>
<asrwt>0</asrwt>
<pdfrwt beam="1">  1        2 0.17327534E+00 0.21455823E+04</pdfrwt>
<pdfrwt beam="2">  1       -2 0.15720519E+00 0.21455823E+04</pdfrwt>
<totfact> 0.50923733E+00</totfact>
</mgrwt>
</event>
<event>
 4    1  0.2482334E-008  0.2740944E+04  0.7816531E-02  0.8321841E-01
         -2   -1    0    0    0  501 -0.00000000000E+00  0.00000000000E+00  0.64824966103E+03  0.64824966103E+03  0.00000000000E+00 0. -1.
          2   -1    0    0  501    0  0.00000000000E+00 -0.00000000000E+00 -0.28973296507E+04  0.28973296507E+04  0.00000000000E+00 0.  1.
    2000013    1    1    2    0    0 -0.72150389795E+03  0.18722539375E+03 -0.28614468952E+03  0.12409673671E+04  0.95000000000E+03 0.  0.
   -2000013    1    1    2    0    0  0.72150389795E+03 -0.18722539375E+03 -0.19629353001E+04  0.23046119446E+04  0.95000000000E+03 0.  0.
<mgrwt>
<rscale>  0 0.27409436E+04</rscale>
<asrwt>0</asrwt>
<pdfrwt beam="2">  1        2 0.44574301E+00 0.27409436E+04</pdfrwt>
<pdfrwt beam="1">  1       -2 0.99730720E-01 0.27409436E+04</pdfrwt>
<totfact> 0.14653593E+00</totfact>
</mgrwt>
</event>
<event>
 4    1  0.2482334E-008  0.2552279E+04  0.7816531E-02  0.8384594E-01
          2   -1    0    0  501    0  0.00000000000E+00  0.00000000000E+00  0.13081207431E+04  0.13081207431E+04  0.00000000000E+00 0.  1.
         -2   -1    0    0    0  501 -0.00000000000E+00 -0.00000000000E+00 -0.12449401218E+04  0.12449401218E+04  0.00000000000E+00 0. -1.
    2000013    1    1    2    0    0  0.26282004529E+03 -0.77277158538E+03 -0.21298755330E+03  0.12704778618E+04  0.95000000000E+03 0.  0.
   -2000013    1    1    2    0    0 -0.26282004529E+03  0.77277158538E+03  0.27616817463E+03  0.12825830032E+04  0.95000000000E+03 0.  0.
<mgrwt>
<rscale>  0 0.25522790E+04</rscale>
<asrwt>0</asrwt>
<pdfrwt beam="1">  1        2 0.20124935E+00 0.25522790E+04</pdfrwt>
<pdfrwt beam="2">  1       -2 0.19152925E+00 0.25522790E+04</pdfrwt>
<totfact> 0.21984445E+00</totfact>
</mgrwt>
</event>
<event>
 4    1  0.2482334E-008  0.2816762E+04  0.7816531E-02  0.8298083E-01
          2   -1    0    0  501    0  0.00000000000E+00  0.00000000000E+00  0.33551024225E+04  0.33551024225E+04  0.00000000000E+00 0.  1.
         -2   -1    0    0    0  501 -0.00000000000E+00 -0.00000000000E+00 -0.59120022256E+03  0.59120022256E+03  0.00000000000E+00 0. -1.
    2000013    1    1    2    0    0 -0.77168869775E+03  0.46574743825E+03  0.65583868311E+03  0.14645984094E+04  0.95000000000E+03 0.  0.
   -2000013    1    1    2    0    0  0.77168869775E+03 -0.46574743825E+03  0.21080635169E+04  0.24817042357E+04  0.95000000000E+03 0.  0.
<mgrwt>
<rscale>  0 0.28167622E+04</rscale>
<asrwt>0</asrwt>
<pdfrwt beam="1">  1        2 0.51616959E+00 0.28167622E+04</pdfrwt>
<pdfrwt beam="2">  1       -2 0.90953883E-01 0.28167622E+04</pdfrwt>
<totfact> 0.91635482E-01</totfact>
</mgrwt>
</event>
<event>
 4    1  0.2482334E-008  0.2592981E+04  0.7816531E-02  0.8370589E-01
          2   -1    0    0  501    0  0.00000000000E+00  0.00000000000E+00  0.10575066142E+04  0.10575066142E+04  0.00000000000E+00 0.  1.
         -2   -1    0    0    0  501 -0.00000000000E+00 -0.00000000000E+00 -0.15894817737E+04  0.15894817737E+04  0.00000000000E+00 0. -1.
    2000013    1    1    2    0    0 -0.26562673841E+03  0.84128783782E+03 -0.27419865751E+03  0.13251444050E+04  0.95000000000E+03 0.  0.
   -2000013    1    1    2    0    0  0.26562673841E+03 -0.84128783782E+03 -0.25777650193E+03  0.13218439829E+04  0.95000000000E+03 0.  0.
<mgrwt>
<rscale>  0 0.25929809E+04</rscale>
<asrwt>0</asrwt>
<pdfrwt beam="1">  1        2 0.16269333E+00 0.25929809E+04</pdfrwt>
<pdfrwt beam="2">  1       -2 0.24453566E+00 0.25929809E+04</pdfrwt>
<totfact> 0.14230511E+00</totfact>
</mgrwt>
</event>
<event>
 4    1  0.2482334E-008  0.2174417E+04  0.7816531E-02  0.8529152E-01
          2   -1    0    0  501    0  0.00000000000E+00  0.00000000000E+00  0.19707029778E+04  0.19707029778E+04  0.00000000000E+00 0.  1.
         -2   -1    0    0    0  501 -0.00000000000E+00 -0.00000000000E+00 -0.59979741416E+03  0.59979741416E+03  0.00000000000E+00 0. -1.
    2000013    1    1    2    0    0  0.42326211483E+03  0.14838560652E+03  0.35454739026E+03  0.11087709222E+04  0.95000000000E+03 0.  0.
   -2000013    1    1    2    0    0 -0.42326211483E+03 -0.14838560652E+03  0.10163581734E+04  0.14617294697E+04  0.95000000000E+03 0.  0.
<mgrwt>
<rscale>  0 0.21744172E+04</rscale>
<asrwt>0</asrwt>
<pdfrwt beam="1">  1        2 0.30318507E+00 0.21744172E+04</pdfrwt>
<pdfrwt beam="2">  1       -2 0.92276527E-01 0.21744172E+04</pdfrwt>
<totfact> 0.63367291E+00</totfact>
</mgrwt>
</event>
<event>
 4    1  0.2482334E-008  0.2602968E+04  0.7816531E-02  0.8367194E-01
          2   -1    0    0  501    0  0.00000000000E+00  0.00000000000E+00  0.18643105063E+04  0.18643105063E+04  0.00000000000E+00 0.  1.
         -2   -1    0    0    0  501 -0.00000000000E+00 -0.00000000000E+00 -0.90857201009E+03  0.90857201009E+03  0.00000000000E+00 0. -1.
    2000013    1    1    2    0    0  0.66926810878E+03  0.42015143757E+03  0.91308856321E+03  0.15364497246E+04  0.95000000000E+03 0.  0.
   -2000013    1    1    2    0    0 -0.66926810878E+03 -0.42015143757E+03  0.42649933036E+02  0.12364327918E+04  0.95000000000E+03 0.  0.
<mgrwt>
<rscale>  0 0.26029678E+04</rscale>
<asrwt>0</asrwt>
<pdfrwt beam="1">  1        2 0.28681700E+00 0.26029678E+04</pdfrwt>
<pdfrwt beam="2">  1       -2 0.13978031E+00 0.26029678E+04</pdfrwt>
<totfact> 0.25350243E+00</totfact>
</mgrwt>
</event>
<event>
 4    1  0.2482334E-008  0.3785485E+04  0.7816531E-02  0.8049277E-01
         -2   -1    0    0    0  501 -0.00000000000E+00  0.00000000000E+00  0.18411098641E+04  0.18411098641E+04  0.00000000000E+00 0. -1.
          2   -1    0    0  501    0  0.00000000000E+00 -0.00000000000E+00 -0.19458229873E+04  0.19458229873E+04  0.00000000000E+00 0.  1.
    2000013    1    1    2    0    0  0.79632430503E+03 -0.94129554464E+03 -0.11297105631E+04  0.19232565241E+04  0.95000000000E+03 0.  0.
   -2000013    1    1    2    0    0 -0.79632430503E+03  0.94129554464E+03  0.10249974399E+04  0.18636763273E+04  0.95000000000E+03 0.  0.
<mgrwt>
<rscale>  0 0.37854849E+04</rscale>
<asrwt>0</asrwt>
<pdfrwt beam="2">  1        2 0.29935738E+00 0.37854849E+04</pdfrwt>
<pdfrwt beam="1">  1       -2 0.28324767E+00 0.37854849E+04</pdfrwt>
<totfact> 0.23130871E-01</totfact>
</mgrwt>
</event>
<event>
 4    1  0.2482334E-008  0.2462402E+04  0.7816531E-02  0.8416504E-01
          2   -1    0    0  501    0  0.00000000000E+00  0.00000000000E+00  0.26592343824E+04  0.26592343824E+04  0.00000000000E+00 0.  1.
         -2   -1    0    0    0  501 -0.00000000000E+00 -0.00000000000E+00 -0.57003483244E+03  0.57003483244E+03  0.00000000000E+00 0. -1.
    2000013    1    1    2    0    0  0.14111610478E+03 -0.68529107303E+03  0.58313535319E+03  0.13160867942E+04  0.95000000000E+03 0.  0.
   -2000013    1    1    2    0    0 -0.14111610478E+03  0.68529107303E+03  0.15060641968E+04  0.19131824206E+04  0.95000000000E+03 0.  0.
<mgrwt>
<rscale>  0 0.24624023E+04</rscale>
<asrwt>0</asrwt>
<pdfrwt beam="1">  1        2 0.40911298E+00 0.24624023E+04</pdfrwt>
<pdfrwt beam="2">  1       -2 0.87697668E-01 0.24624023E+04</pdfrwt>
<totfact> 0.28177336E+00</totfact>
</mgrwt>
</event>
<event>
 4    1  0.2482334E-008  0.2220014E+04  0.7816531E-02  0.8510144E-01
         -2   -1    0    0    0  501 -0.00000000000E+00  0.00000000000E+00  0.37039835816E+03  0.37039835816E+03  0.00000000000E+00 0. -1.
          2   -1    0    0  501    0  0.00000000000E+00 -0.00000000000E+00 -0.33264620045E+04  0.33264620045E+04  0.00000000000E+00 0.  1.
    2000013    1    1    2    0    0  0.36638845173E+03 -0.40421811665E+03 -0.17758414633E+04  0.20865631278E+04  0.95000000000E+03 0.  0.
   -2000013    1    1    2    0    0 -0.36638845173E+03  0.40421811665E+03 -0.11802221831E+04  0.16102972349E+04  0.95000000000E+03 0.  0.
<mgrwt>
<rscale>  0 0.22200145E+04</rscale>
<asrwt>0</asrwt>
<pdfrwt beam="2">  1        2 0.51176341E+00 0.22200145E+04</pdfrwt>
<pdfrwt beam="1">  1       -2 0.56984360E-01 0.22200145E+04</pdfrwt>
<totfact> 0.28240387E+00</totfact>
</mgrwt>
</event>
<event>
 4    1  0.2482334E-008  0.2083587E+04  0.7816531E-02  0.8568508E-01
         -2   -1    0    0    0  501 -0.00000000000E+00  0.00000000000E+00  0.11431313730E+04  0.11431313730E+04  0.00000000000E+00 0. -1.
          2   -1    0    0  501    0  0.00000000000E+00 -0.00000000000E+00 -0.94943961719E+03  0.94943961719E+03  0.00000000000E+00 0.  1.
    2000013    1    1    2    0    0 -0.33522057025E+03 -0.26395668861E+03  0.12504269994E+03  0.10488954385E+04  0.95000000000E+03 0.  0.
   -2000013    1    1    2    0    0  0.33522057025E+03  0.26395668861E+03  0.68649055827E+02  0.10436755516E+04  0.95000000000E+03 0.  0.
<mgrwt>
<rscale>  0 0.20835875E+04</rscale>
<asrwt>0</asrwt>
<pdfrwt beam="2">  1        2 0.14606763E+00 0.20835875E+04</pdfrwt>
<pdfrwt beam="1">  1       -2 0.17586637E+00 0.20835875E+04</pdfrwt>
<totfact> 0.48568699E+00</totfact>
</mgrwt>
</event>
<event>
 4    1  0.2482334E-008  0.2519657E+04  0.7816531E-02  0.8396016E-01
         -2   -1    0    0    0  501 -0.00000000000E+00  0.00000000000E+00  0.40840099594E+03  0.40840099594E+03  0.00000000000E+00 0. -1.
          2   -1    0    0  501    0  0.00000000000E+00 -0.00000000000E+00 -0.38862966500E+04  0.38862966500E+04  0.00000000000E+00 0.  1.
    2000013    1    1    2    0    0  0.67799123381E+03  0.42948404333E+03 -0.13957642557E+04  0.18694348114E+04  0.95000000000E+03 0.  0.
   -2000013    1    1    2    0    0 -0.67799123381E+03 -0.42948404333E+03 -0.20821313984E+04  0.24252628345E+04  0.95000000000E+03 0.  0.
<mgrwt>
<rscale>  0 0.25196567E+04</rscale>
<asrwt>0</asrwt>
<pdfrwt beam="2">  1        2 0.59789180E+00 0.25196567E+04</pdfrwt>
<pdfrwt beam="1">  1       -2 0.62830922E-01 0.25196567E+04</pdfrwt>
<totfact> 0.88332029E-01</totfact>
</mgrwt>
</event>
<event>
 4    1  0.2482334E-008  0.3778591E+04  0.7816531E-02  0.8050765E-01
          2   -1    0    0  501    0  0.00000000000E+00  0.00000000000E+00  0.32022353724E+04  0.32022353724E+04  0.00000000000E+00 0.  1.
         -2   -1    0    0    0  501 -0.00000000000E+00 -0.00000000000E+00 -0.11146707631E+04  0.11146707631E+04  0.00000000000E+00 0. -1.
    2000013    1    1    2    0    0 -0.12557168007E+04  0.90306806784E+03  0.16424396813E+04  0.24479511280E+04  0.95000000000E+03 0.  0.
   -2000013    1    1    2    0    0  0.12557168007E+04 -0.90306806784E+03  0.44512492799E+03  0.18689550075E+04  0.95000000000E+03 0.  0.
<mgrwt>
<rscale>  0 0.37785913E+04</rscale>
<asrwt>0</asrwt>
<pdfrwt beam="1">  1        2 0.49265159E+00 0.37785913E+04</pdfrwt>
<pdfrwt beam="2">  1       -2 0.17148781E+00 0.37785913E+04</pdfrwt>
<totfact> 0.21570783E-01</totfact>
</mgrwt>
</event>
<event>
 4    1  0.2482334E-008  0.2359334E+04  0.7816531E-02  0.8454887E-01
          2   -1    0    0  501    0  0.00000000000E+00  0.00000000000E+00  0.12865910013E+04  0.12865910013E+04  0.00000000000E+00 0.  1.
         -2   -1    0    0    0  501 -0.00000000000E+00 -0.00000000000E+00 -0.10816293925E+04  0.10816293925E+04  0.00000000000E+00 0. -1.
    2000013    1    1    2    0    0 -0.32319934150E+03 -0.55323408320E+03  0.38387372707E+03  0.12084638197E+04  0.95000000000E+03 0.  0.
   -2000013    1    1    2    0    0  0.32319934150E+03  0.55323408320E+03 -0.17891211824E+03  0.11597565741E+04  0.95000000000E+03 0.  0.
<mgrwt>
<rscale>  0 0.23593343E+04</rscale>
<asrwt>0</asrwt>
<pdfrwt beam="1">  1        2 0.19793708E+00 0.23593343E+04</pdfrwt>
<pdfrwt beam="2">  1       -2 0.16640452E+00 0.23593343E+04</pdfrwt>
<totfact> 0.34350208E+00</totfact>
</mgrwt>
</event>
<event>
 4    1  0.2482334E-008  0.2888292E+04  0.7816531E-02  0.8276370E-01
         -2   -1    0    0    0  501 -0.00000000000E+00  0.00000000000E+00  0.13580057797E+04  0.13580057797E+04  0.00000000000E+00 0. -1.
          2   -1    0    0  501    0  0.00000000000E+00 -0.00000000000E+00 -0.15357497672E+04  0.15357497672E+04  0.00000000000E+00 0.  1.
    2000013    1    1    2    0    0 -0.39011923973E+03 -0.10075452858E+04 -0.21447476450E+03  0.14545927089E+04  0.95000000000E+03 0.  0.
   -2000013    1    1    2    0    0  0.39011923973E+03  0.10075452858E+04  0.36730776916E+02  0.14391628380E+04  0.95000000000E+03 0.  0.
<mgrwt>
<rscale>  0 0.28882916E+04</rscale>
<asrwt>0</asrwt>
<pdfrwt beam="2">  1        2 0.23626919E+00 0.28882916E+04</pdfrwt>
<pdfrwt beam="1">  1       -2 0.20892397E+00 0.28882916E+04</pdfrwt>
<totfact> 0.12181380E+00</totfact>
</mgrwt>
</event>
<event>
 4    1  0.2482334E-008  0.2473751E+04  0.7816531E-02  0.8412397E-01
         -1   -1    0    0    0  501 -0.00000000000E+00  0.00000000000E+00  0.58481920469E+03  0.58481920469E+03  0.00000000000E+00 0. -1.
          1   -1    0    0  501    0  0.00000000000E+00 -0.00000000000E+00 -0.26159555977E+04  0.26159555977E+04  0.00000000000E+00 0.  1.
    2000013    1    1    2    0    0  0.73370297231E+02 -0.78609988765E+03 -0.93348139314E+03  0.15482970468E+04  0.95000000000E+03 0.  0.
   -2000013    1    1    2    0    0 -0.73370297231E+02  0.78609988765E+03 -0.10976549999E+04  0.16524777556E+04  0.95000000000E+03 0.  0.
<mgrwt>
<rscale>  0 0.24737511E+04</rscale>
<asrwt>0</asrwt>
<pdfrwt beam="2">  1        1 0.40245470E+00 0.24737511E+04</pdfrwt>
<pdfrwt beam="1">  1       -1 0.89972187E-01 0.24737511E+04</pdfrwt>
<totfact> 0.12100329E+00</totfact>
</mgrwt>
</event>
<event>
 4    1  0.2482334E-008  0.2335038E+04  0.7816531E-02  0.8464233E-01
          2   -1    0    0  501    0  0.00000000000E+00  0.00000000000E+00  0.10318609737E+04  0.10318609737E+04  0.00000000000E+00 0.  1.
         -2   -1    0    0    0  501 -0.00000000000E+00 -0.00000000000E+00 -0.13210122518E+04  0.13210122518E+04  0.00000000000E+00 0. -1.
    2000013    1    1    2    0    0 -0.28198641020E+03  0.39594677029E+03 -0.62180770354E+03  0.12350850176E+04  0.95000000000E+03 0.  0.
   -2000013    1    1    2    0    0  0.28198641020E+03 -0.39594677029E+03  0.33265642539E+03  0.11177882079E+04  0.95000000000E+03 0.  0.
<mgrwt>
<rscale>  0 0.23350383E+04</rscale>
<asrwt>0</asrwt>
<pdfrwt beam="1">  1        2 0.15874784E+00 0.23350383E+04</pdfrwt>
<pdfrwt beam="2">  1       -2 0.20323265E+00 0.23350383E+04</pdfrwt>
<totfact> 0.27518206E+00</totfact>
</mgrwt>
</event>
<event>
 4    1  0.2482334E-008  0.2255040E+04  0.7816531E-02  0.8495862E-01
          2   -1    0    0  501    0  0.00000000000E+00  0.00000000000E+00  0.30623432510E+04  0.30623432510E+04  0.00000000000E+00 0.  1.
         -2   -1    0    0    0  501 -0.00000000000E+00 -0.00000000000E+00 -0.41513988409E+03  0.41513988409E+03  0.00000000000E+00 0. -1.
    2000013    1    1    2    0    0  0.22394042593E+03 -0.46591175686E+03  0.18150865521E+04  0.21128800891E+04  0.95000000000E+03 0.  0.
   -2000013    1    1    2    0    0 -0.22394042593E+03  0.46591175686E+03  0.83211681489E+03  0.13646030460E+04  0.95000000000E+03 0.  0.
<mgrwt>
<rscale>  0 0.22550395E+04</rscale>
<asrwt>0</asrwt>
<pdfrwt beam="1">  1        2 0.47112972E+00 0.22550395E+04</pdfrwt>
<pdfrwt beam="2">  1       -2 0.63867676E-01 0.22550395E+04</pdfrwt>
<totfact> 0.32847204E+00</totfact>
</mgrwt>
</event>
<event>
 4    1  0.2482334E-008  0.2098797E+04  0.7816531E-02  0.8561773E-01
          2   -1    0    0  501    0  0.00000000000E+00  0.00000000000E+00  0.15412064693E+04  0.15412064693E+04  0.00000000000E+00 0.  1.
         -2   -1    0    0    0  501 -0.00000000000E+00 -0.00000000000E+00 -0.71452940297E+03  0.71452940297E+03  0.00000000000E+00 0. -1.
    2000013    1    1    2    0    0 -0.24989353686E+03  0.35242196237E+03  0.29516541213E+03  0.10845601135E+04  0.95000000000E+03 0.  0.
   -2000013    1    1    2    0    0  0.24989353686E+03 -0.35242196237E+03  0.53151165420E+03  0.11711757587E+04  0.95000000000E+03 0.  0.
<mgrwt>
<rscale>  0 0.20987971E+04</rscale>
<asrwt>0</asrwt>
<pdfrwt beam="1">  1        2 0.23710869E+00 0.20987971E+04</pdfrwt>
<pdfrwt beam="2">  1       -2 0.10992760E+00 0.20987971E+04</pdfrwt>
<totfact> 0.72986221E+00</totfact>
</mgrwt>
</event>
<event>
 4    1  0.2482334E-008  0.5662707E+04  0.7816531E-02  0.7733689E-01
          2   -1    0    0  501    0  0.00000000000E+00  0.00000000000E+00  0.38389831425E+04  0.38389831425E+04  0.00000000000E+00 0.  1.
         -2   -1    0    0    0  501 -0.00000000000E+00 -0.00000000000E+00 -0.20881994175E+04  0.20881994175E+04  0.00000000000E+00 0. -1.
    2000013    1    1    2    0    0 -0.95377815465E+03 -0.10082653669E+04 -0.15086539683E+04  0.22593867784E+04  0.95000000000E+03 0.  0.
   -2000013    1    1    2    0    0  0.95377815465E+03  0.10082653669E+04  0.32594376934E+04  0.36677957816E+04  0.95000000000E+03 0.  0.
<mgrwt>
<rscale>  0 0.56627069E+04</rscale>
<asrwt>0</asrwt>
<pdfrwt beam="1">  1        2 0.59061279E+00 0.56627069E+04</pdfrwt>
<pdfrwt beam="2">  1       -2 0.32126145E+00 0.56627069E+04</pdfrwt>
<totfact> 0.74201544E-03</totfact>
</mgrwt>
</event>
<event>
 4    1  0.2482334E-008  0.4054076E+04  0.7816531E-02  0.7993726E-01
         -2   -1    0    0    0  501 -0.00000000000E+00  0.00000000000E+00  0.13179210703E+04  0.13179210703E+04  0.00000000000E+00 0.  1.
          2   -1    0    0  501    0  0.00000000000E+00 -0.00000000000E+00 -0.31177000596E+04  0.31177000596E+04  0.00000000000E+00 0. -1.
    2000013    1    1    2    0    0  0.12538368341E+04 -0.33933726763E+03 -0.22484159838E+04  0.27649830061E+04  0.95000000000E+03 0.  0.
   -2000013    1    1    2    0    0 -0.12538368341E+04  0.33933726763E+03  0.44863699447E+03  0.16706381238E+04  0.95000000000E+03 0.  0.
<mgrwt>
<rscale>  0 0.40540758E+04</rscale>
<asrwt>0</asrwt>
<pdfrwt beam="2">  1        2 0.47964616E+00 0.40540758E+04</pdfrwt>
<pdfrwt beam="1">  1       -2 0.20275709E+00 0.40540758E+04</pdfrwt>
<totfact> 0.14679116E-01</totfact>
</mgrwt>
</event>
<event>
 4    1  0.2482334E-008  0.2336262E+04  0.7816531E-02  0.8463759E-01
         -2   -1    0    0    0  501 -0.00000000000E+00  0.00000000000E+00  0.12164664560E+04  0.12164664560E+04  0.00000000000E+00 0. -1.
          2   -1    0    0  501    0  0.00000000000E+00 -0.00000000000E+00 -0.11217158571E+04  0.11217158571E+04  0.00000000000E+00 0.  1.
    2000013    1    1    2    0    0  0.42184560037E+03 -0.18959021243E+03  0.54591284898E+03  0.11892934869E+04  0.95000000000E+03 0.  0.
   -2000013    1    1    2    0    0 -0.42184560037E+03  0.18959021243E+03 -0.45116225008E+03  0.11488888263E+04  0.95000000000E+03 0.  0.
<mgrwt>
<rscale>  0 0.23362617E+04</rscale>
<asrwt>0</asrwt>
<pdfrwt beam="2">  1        2 0.17257167E+00 0.23362617E+04</pdfrwt>
<pdfrwt beam="1">  1       -2 0.18714869E+00 0.23362617E+04</pdfrwt>
<totfact> 0.30936542E+00</totfact>
</mgrwt>
</event>
<event>
 4    1  0.2482334E-008  0.3611272E+04  0.7816531E-02  0.8087915E-01
         -1   -1    0    0    0  501 -0.00000000000E+00  0.00000000000E+00  0.12517647265E+04  0.12517647265E+04  0.00000000000E+00 0. -1.
          1   -1    0    0  501    0  0.00000000000E+00 -0.00000000000E+00 -0.26045804300E+04  0.26045804300E+04  0.00000000000E+00 0.  1.
    2000013    1    1    2    0    0  0.10088908327E+04  0.11133059628E+04 -0.10149576224E+04  0.20469367001E+04  0.95000000000E+03 0.  0.
   -2000013    1    1    2    0    0 -0.10088908327E+04 -0.11133059628E+04 -0.33785808113E+03  0.18094084564E+04  0.95000000000E+03 0.  0.
<mgrwt>
<rscale>  0 0.36112723E+04</rscale>
<asrwt>0</asrwt>
<pdfrwt beam="2">  1        1 0.40070467E+00 0.36112723E+04</pdfrwt>
<pdfrwt beam="1">  1       -1 0.19257919E+00 0.36112723E+04</pdfrwt>
<totfact> 0.15688058E-01</totfact>
</mgrwt>
</event>
<event>
 4    1  0.2482334E-008  0.2288921E+04  0.7816531E-02  0.8482302E-01
          2   -1    0    0  501    0  0.00000000000E+00  0.00000000000E+00  0.24052783944E+04  0.24052783944E+04  0.00000000000E+00 0.  1.
         -2   -1    0    0    0  501 -0.00000000000E+00 -0.00000000000E+00 -0.54454833012E+03  0.54454833012E+03  0.00000000000E+00 0. -1.
    2000013    1    1    2    0    0  0.38461365716E+03  0.48244728076E+03  0.11405811128E+04  0.16075161956E+04  0.95000000000E+03 0.  0.
   -2000013    1    1    2    0    0 -0.38461365716E+03 -0.48244728076E+03  0.72014895146E+03  0.13423105290E+04  0.95000000000E+03 0.  0.
<mgrwt>
<rscale>  0 0.22889214E+04</rscale>
<asrwt>0</asrwt>
<pdfrwt beam="1">  1        2 0.37004282E+00 0.22889214E+04</pdfrwt>
<pdfrwt beam="2">  1       -2 0.83776668E-01 0.22889214E+04</pdfrwt>
<totfact> 0.44609268E+00</totfact>
</mgrwt>
</event>
<event>
 4    1  0.2482334E-008  0.2584341E+04  0.7816531E-02  0.8373540E-01
          2   -1    0    0  501    0  0.00000000000E+00  0.00000000000E+00  0.34932555943E+04  0.34932555943E+04  0.00000000000E+00 0.  1.
         -2   -1    0    0    0  501 -0.00000000000E+00 -0.00000000000E+00 -0.47797963802E+03  0.47797963802E+03  0.00000000000E+00 0. -1.
    2000013    1    1    2    0    0  0.48304058698E+03  0.70007110799E+03  0.18291521513E+04  0.22297366117E+04  0.95000000000E+03 0.  0.
   -2000013    1    1    2    0    0 -0.48304058698E+03 -0.70007110799E+03  0.11861238050E+04  0.17414986207E+04  0.95000000000E+03 0.  0.
<mgrwt>
<rscale>  0 0.25843413E+04</rscale>
<asrwt>0</asrwt>
<pdfrwt beam="1">  1        2 0.53742392E+00 0.25843413E+04</pdfrwt>
<pdfrwt beam="2">  1       -2 0.73535331E-01 0.25843413E+04</pdfrwt>
<totfact> 0.12152150E+00</totfact>
</mgrwt>
</event>
<event>
 4    1  0.2482334E-008  0.2524990E+04  0.7816531E-02  0.8394136E-01
         -1   -1    0    0    0  501 -0.00000000000E+00  0.00000000000E+00  0.16842052966E+04  0.16842052966E+04  0.00000000000E+00 0. -1.
          1   -1    0    0  501    0  0.00000000000E+00 -0.00000000000E+00 -0.94637726138E+03  0.94637726138E+03  0.00000000000E+00 0.  1.
    2000013    1    1    2    0    0 -0.30815675555E+03  0.59736229477E+03  0.87886425558E+03  0.14583225559E+04  0.95000000000E+03 0.  0.
   -2000013    1    1    2    0    0  0.30815675555E+03 -0.59736229477E+03 -0.14103622032E+03  0.11722600022E+04  0.95000000000E+03 0.  0.
<mgrwt>
<rscale>  0 0.25249900E+04</rscale>
<asrwt>0</asrwt>
<pdfrwt beam="2">  1        1 0.14559650E+00 0.25249900E+04</pdfrwt>
<pdfrwt beam="1">  1       -1 0.25910851E+00 0.25249900E+04</pdfrwt>
<totfact> 0.89942159E-01</totfact>
</mgrwt>
</event>
<event>
 4    1  0.2482334E-008  0.2276552E+04  0.7816531E-02  0.8487224E-01
         -2   -1    0    0    0  501 -0.00000000000E+00  0.00000000000E+00  0.72953472111E+03  0.72953472111E+03  0.00000000000E+00 0. -1.
          2   -1    0    0  501    0  0.00000000000E+00 -0.00000000000E+00 -0.17760255740E+04  0.17760255740E+04  0.00000000000E+00 0.  1.
    2000013    1    1    2    0    0  0.32823968141E+03  0.88022347351E+02  0.56719855145E+02  0.10105475566E+04  0.95000000000E+03 0.  0.
   -2000013    1    1    2    0    0 -0.32823968141E+03 -0.88022347351E+02 -0.11032107080E+04  0.14950127385E+04  0.95000000000E+03 0.  0.
<mgrwt>
<rscale>  0 0.22765521E+04</rscale>
<asrwt>0</asrwt>
<pdfrwt beam="2">  1        2 0.27323470E+00 0.22765521E+04</pdfrwt>
<pdfrwt beam="1">  1       -2 0.11223611E+00 0.22765521E+04</pdfrwt>
<totfact> 0.50570397E+00</totfact>
</mgrwt>
</event>
<event>
 4    1  0.2482334E-008  0.2492254E+04  0.7816531E-02  0.8405750E-01
         -2   -1    0    0    0  501 -0.00000000000E+00  0.00000000000E+00  0.14893049692E+04  0.14893049692E+04  0.00000000000E+00 0. -1.
          2   -1    0    0  501    0  0.00000000000E+00 -0.00000000000E+00 -0.10426557486E+04  0.10426557486E+04  0.00000000000E+00 0.  1.
    2000013    1    1    2    0    0 -0.51585289471E+03  0.43888023107E+03  0.66803409662E+03  0.13444291058E+04  0.95000000000E+03 0.  0.
   -2000013    1    1    2    0    0  0.51585289471E+03 -0.43888023107E+03 -0.22138487606E+03  0.11875316120E+04  0.95000000000E+03 0.  0.
<mgrwt>
<rscale>  0 0.24922539E+04</rscale>
<asrwt>0</asrwt>
<pdfrwt beam="2">  1        2 0.16040858E+00 0.24922539E+04</pdfrwt>
<pdfrwt beam="1">  1       -2 0.22912384E+00 0.24922539E+04</pdfrwt>
<totfact> 0.18280027E+00</totfact>
</mgrwt>
</event>
<event>
 4    1  0.2482334E-008  0.3284565E+04  0.7816531E-02  0.8166834E-01
          2   -1    0    0  501    0  0.00000000000E+00  0.00000000000E+00  0.14615525202E+04  0.14615525202E+04  0.00000000000E+00 0.  1.
         -2   -1    0    0    0  501 -0.00000000000E+00 -0.00000000000E+00 -0.18453603090E+04  0.18453603090E+04  0.00000000000E+00 0. -1.
    2000013    1    1    2    0    0 -0.20910806665E+03  0.12959719859E+04  0.76973937754E+02  0.16222498448E+04  0.95000000000E+03 0.  0.
   -2000013    1    1    2    0    0  0.20910806665E+03 -0.12959719859E+04 -0.46078172652E+03  0.16846629845E+04  0.95000000000E+03 0.  0.
<mgrwt>
<rscale>  0 0.32845645E+04</rscale>
<asrwt>0</asrwt>
<pdfrwt beam="1">  1        2 0.22485424E+00 0.32845645E+04</pdfrwt>
<pdfrwt beam="2">  1       -2 0.28390158E+00 0.32845645E+04</pdfrwt>
<totfact> 0.44494126E-01</totfact>
</mgrwt>
</event>
<event>
 4    1  0.2482334E-008  0.2449778E+04  0.7816531E-02  0.8421099E-01
          2   -1    0    0  501    0  0.00000000000E+00  0.00000000000E+00  0.88154504029E+03  0.88154504029E+03  0.00000000000E+00 0.  1.
         -2   -1    0    0    0  501 -0.00000000000E+00 -0.00000000000E+00 -0.17019582901E+04  0.17019582901E+04  0.00000000000E+00 0. -1.
    2000013    1    1    2    0    0  0.70552152337E+03 -0.14339722876E+03 -0.11280286263E+03  0.11973085947E+04  0.95000000000E+03 0.  0.
   -2000013    1    1    2    0    0 -0.70552152337E+03  0.14339722876E+03 -0.70761038718E+03  0.13861947357E+04  0.95000000000E+03 0.  0.
<mgrwt>
<rscale>  0 0.24497779E+04</rscale>
<asrwt>0</asrwt>
<pdfrwt beam="1">  1        2 0.13562232E+00 0.24497779E+04</pdfrwt>
<pdfrwt beam="2">  1       -2 0.26183973E+00 0.24497779E+04</pdfrwt>
<totfact> 0.14694238E+00</totfact>
</mgrwt>
</event>
<event>
 4    1  0.2482334E-008  0.2343790E+04  0.7816531E-02  0.8460853E-01
         -2   -1    0    0    0  501 -0.00000000000E+00  0.00000000000E+00  0.69804722995E+03  0.69804722995E+03  0.00000000000E+00 0. -1.
          2   -1    0    0  501    0  0.00000000000E+00 -0.00000000000E+00 -0.19673998631E+04  0.19673998631E+04  0.00000000000E+00 0.  1.
    2000013    1    1    2    0    0 -0.31905521087E+03 -0.26505440089E+03 -0.13044984352E+02  0.10366871440E+04  0.95000000000E+03 0.  0.
   -2000013    1    1    2    0    0  0.31905521087E+03  0.26505440089E+03 -0.12563076488E+04  0.16287599490E+04  0.95000000000E+03 0.  0.
<mgrwt>
<rscale>  0 0.23437901E+04</rscale>
<asrwt>0</asrwt>
<pdfrwt beam="2">  1        2 0.30267690E+00 0.23437901E+04</pdfrwt>
<pdfrwt beam="1">  1       -2 0.10739188E+00 0.23437901E+04</pdfrwt>
<totfact> 0.43815574E+00</totfact>
</mgrwt>
</event>
<event>
 4    1  0.2482334E-008  0.2104798E+04  0.7816531E-02  0.8559133E-01
         -2   -1    0    0    0  501 -0.00000000000E+00  0.00000000000E+00  0.79766967347E+03  0.79766967347E+03  0.00000000000E+00 0. -1.
          2   -1    0    0  501    0  0.00000000000E+00 -0.00000000000E+00 -0.13884739686E+04  0.13884739686E+04  0.00000000000E+00 0.  1.
    2000013    1    1    2    0    0 -0.36139039093E+03  0.76409691388E+02 -0.56744483743E+03  0.11665912305E+04  0.95000000000E+03 0.  0.
   -2000013    1    1    2    0    0  0.36139039093E+03 -0.76409691388E+02 -0.23359457676E+02  0.10195524115E+04  0.95000000000E+03 0.  0.
<mgrwt>
<rscale>  0 0.21047979E+04</rscale>
<asrwt>0</asrwt>
<pdfrwt beam="2">  1        2 0.21361138E+00 0.21047979E+04</pdfrwt>
<pdfrwt beam="1">  1       -2 0.12271841E+00 0.21047979E+04</pdfrwt>
<totfact> 0.67975496E+00</totfact>
</mgrwt>
</event>
<event>
 4    1  0.2482334E-008  0.3189666E+04  0.7816531E-02  0.8191552E-01
          2   -1    0    0  501    0  0.00000000000E+00  0.00000000000E+00  0.27805403335E+04  0.27805403335E+04  0.00000000000E+00 0.  1.
         -2   -1    0    0    0  501 -0.00000000000E+00 -0.00000000000E+00 -0.91474770395E+03  0.91474770395E+03  0.00000000000E+00 0. -1.
    2000013    1    1    2    0    0  0.11798299582E+04 -0.49028195772E+03  0.10404437773E+04  0.19019459462E+04  0.95000000000E+03 0.  0.
   -2000013    1    1    2    0    0 -0.11798299582E+04  0.49028195772E+03  0.82534885222E+03  0.17933420913E+04  0.95000000000E+03 0.  0.
<mgrwt>
<rscale>  0 0.31896664E+04</rscale>
<asrwt>0</asrwt>
<pdfrwt beam="1">  1        2 0.42777543E+00 0.31896664E+04</pdfrwt>
<pdfrwt beam="2">  1       -2 0.14073042E+00 0.31896664E+04</pdfrwt>
<totfact> 0.70917028E-01</totfact>
</mgrwt>
</event>
<event>
 4    1  0.2482334E-008  0.1995609E+04  0.7816531E-02  0.8608676E-01
          2   -1    0    0  501    0  0.00000000000E+00  0.00000000000E+00  0.13250072498E+04  0.13250072498E+04  0.00000000000E+00 0.  1.
         -2   -1    0    0    0  501 -0.00000000000E+00 -0.00000000000E+00 -0.75140288389E+03  0.75140288389E+03  0.00000000000E+00 0. -1.
    2000013    1    1    2    0    0  0.19175690691E+03 -0.14263377335E+03  0.89385524792E+02  0.98366908902E+03  0.95000000000E+03 0.  0.
   -2000013    1    1    2    0    0 -0.19175690691E+03  0.14263377335E+03  0.48421884115E+03  0.10927410447E+04  0.95000000000E+03 0.  0.
<mgrwt>
<rscale>  0 0.19956094E+04</rscale>
<asrwt>0</asrwt>
<pdfrwt beam="1">  1        2 0.20384727E+00 0.19956094E+04</pdfrwt>
<pdfrwt beam="2">  1       -2 0.11560044E+00 0.19956094E+04</pdfrwt>
<totfact> 0.86513796E+00</totfact>
</mgrwt>
</event>
<event>
 4    1  0.2482334E-008  0.2605013E+04  0.7816531E-02  0.8366500E-01
         -4   -1    0    0    0  501 -0.00000000000E+00  0.00000000000E+00  0.20077900702E+04  0.20077900702E+04  0.00000000000E+00 0. -1.
          4   -1    0    0  501    0  0.00000000000E+00 -0.00000000000E+00 -0.84497063599E+03  0.84497063599E+03  0.00000000000E+00 0.  1.
    2000013    1    1    2    0    0 -0.80622644877E+03 -0.24661016106E+03  0.89729740291E+03  0.15551399575E+04  0.95000000000E+03 0.  0.
   -2000013    1    1    2    0    0  0.80622644877E+03  0.24661016106E+03  0.26552203129E+03  0.12976207487E+04  0.95000000000E+03 0.  0.
<mgrwt>
<rscale>  0 0.26050134E+04</rscale>
<asrwt>0</asrwt>
<pdfrwt beam="2">  1        4 0.12999548E+00 0.26050134E+04</pdfrwt>
<pdfrwt beam="1">  1       -4 0.30889078E+00 0.26050134E+04</pdfrwt>
<totfact> 0.20715981E-02</totfact>
</mgrwt>
</event>
<event>
 4    1  0.2482334E-008  0.2001839E+04  0.7816531E-02  0.8605761E-01
         -2   -1    0    0    0  501 -0.00000000000E+00  0.00000000000E+00  0.71939274625E+03  0.71939274625E+03  0.00000000000E+00 0. -1.
          2   -1    0    0  501    0  0.00000000000E+00 -0.00000000000E+00 -0.13926189747E+04  0.13926189747E+04  0.00000000000E+00 0.  1.
    2000013    1    1    2    0    0  0.21336631772E+03 -0.21986825630E+03 -0.25856362383E+03  0.10311267542E+04  0.95000000000E+03 0.  0.
   -2000013    1    1    2    0    0 -0.21336631772E+03  0.21986825630E+03 -0.41466260461E+03  0.10808849667E+04  0.95000000000E+03 0.  0.
<mgrwt>
<rscale>  0 0.20018391E+04</rscale>
<asrwt>0</asrwt>
<pdfrwt beam="2">  1        2 0.21424907E+00 0.20018391E+04</pdfrwt>
<pdfrwt beam="1">  1       -2 0.11067581E+00 0.20018391E+04</pdfrwt>
<totfact> 0.87881748E+00</totfact>
</mgrwt>
</event>
<event>
 4    1  0.2482334E-008  0.2339118E+04  0.7816531E-02  0.8462655E-01
         -2   -1    0    0    0  501 -0.00000000000E+00  0.00000000000E+00  0.43592748501E+03  0.43592748501E+03  0.00000000000E+00 0. -1.
          2   -1    0    0  501    0  0.00000000000E+00 -0.00000000000E+00 -0.31378341426E+04  0.31378341426E+04  0.00000000000E+00 0.  1.
    2000013    1    1    2    0    0 -0.27550709632E+03  0.16209673724E+03 -0.43020785646E+03  0.10907604284E+04  0.95000000000E+03 0.  0.
   -2000013    1    1    2    0    0  0.27550709632E+03 -0.16209673724E+03 -0.22716988011E+04  0.24830011992E+04  0.95000000000E+03 0.  0.
<mgrwt>
<rscale>  0 0.23391179E+04</rscale>
<asrwt>0</asrwt>
<pdfrwt beam="2">  1        2 0.48274371E+00 0.23391179E+04</pdfrwt>
<pdfrwt beam="1">  1       -2 0.67065768E-01 0.23391179E+04</pdfrwt>
<totfact> 0.26267760E+00</totfact>
</mgrwt>
</event>
<event>
 4    1  0.2482334E-008  0.2060203E+04  0.7816531E-02  0.8578980E-01
         -2   -1    0    0    0  501 -0.00000000000E+00  0.00000000000E+00  0.56107219032E+03  0.56107219032E+03  0.00000000000E+00 0. -1.
          2   -1    0    0  501    0  0.00000000000E+00 -0.00000000000E+00 -0.18912163318E+04  0.18912163318E+04  0.00000000000E+00 0.  1.
    2000013    1    1    2    0    0  0.10803956038E+02  0.38184966798E+03 -0.53102031436E+03  0.11534333395E+04  0.95000000000E+03 0.  0.
   -2000013    1    1    2    0    0 -0.10803956038E+02 -0.38184966798E+03 -0.79912382715E+03  0.12988551827E+04  0.95000000000E+03 0.  0.
<mgrwt>
<rscale>  0 0.20602028E+04</rscale>
<asrwt>0</asrwt>
<pdfrwt beam="2">  1        2 0.29095636E+00 0.20602028E+04</pdfrwt>
<pdfrwt beam="1">  1       -2 0.86318799E-01 0.20602028E+04</pdfrwt>
<totfact> 0.82584073E+00</totfact>
</mgrwt>
</event>
<event>
 4    1  0.2482334E-008  0.2821635E+04  0.7816531E-02  0.8296583E-01
          2   -1    0    0  501    0  0.00000000000E+00  0.00000000000E+00  0.97097770573E+03  0.97097770573E+03  0.00000000000E+00 0.  1.
         -2   -1    0    0    0  501 -0.00000000000E+00 -0.00000000000E+00 -0.20498983055E+04  0.20498983055E+04  0.00000000000E+00 0. -1.
    2000013    1    1    2    0    0  0.37878913269E+02  0.10179200978E+04 -0.77959601423E+03  0.15962036471E+04  0.95000000000E+03 0.  0.
   -2000013    1    1    2    0    0 -0.37878913269E+02 -0.10179200978E+04 -0.29932458554E+03  0.14246723641E+04  0.95000000000E+03 0.  0.
<mgrwt>
<rscale>  0 0.28216347E+04</rscale>
<asrwt>0</asrwt>
<pdfrwt beam="1">  1        2 0.14938119E+00 0.28216347E+04</pdfrwt>
<pdfrwt beam="2">  1       -2 0.31536897E+00 0.28216347E+04</pdfrwt>
<totfact> 0.58426164E-01</totfact>
</mgrwt>
</event>
<event>
 4    1  0.2482334E-008  0.3104579E+04  0.7816531E-02  0.8214482E-01
          2   -1    0    0  501    0  0.00000000000E+00  0.00000000000E+00  0.90515545882E+03  0.90515545882E+03  0.00000000000E+00 0.  1.
         -2   -1    0    0    0  501 -0.00000000000E+00 -0.00000000000E+00 -0.26620875257E+04  0.26620875257E+04  0.00000000000E+00 0. -1.
    2000013    1    1    2    0    0 -0.52403092642E+03 -0.11020955962E+04 -0.72482296188E+03  0.17079494844E+04  0.95000000000E+03 0.  0.
   -2000013    1    1    2    0    0  0.52403092642E+03  0.11020955962E+04 -0.10321091050E+04  0.18592935002E+04  0.95000000000E+03 0.  0.
<mgrwt>
<rscale>  0 0.31045792E+04</rscale>
<asrwt>0</asrwt>
<pdfrwt beam="1">  1        2 0.13925469E+00 0.31045792E+04</pdfrwt>
<pdfrwt beam="2">  1       -2 0.40955193E+00 0.31045792E+04</pdfrwt>
<totfact> 0.15846676E-01</totfact>
</mgrwt>
</event>
<event>
 4    1  0.2482334E-008  0.2253206E+04  0.7816531E-02  0.8496603E-01
         -2   -1    0    0    0  501 -0.00000000000E+00  0.00000000000E+00  0.87900855891E+03  0.87900855891E+03  0.00000000000E+00 0. -1.
          2   -1    0    0  501    0  0.00000000000E+00 -0.00000000000E+00 -0.14439388875E+04  0.14439388875E+04  0.00000000000E+00 0.  1.
    2000013    1    1    2    0    0 -0.50449327765E+03  0.31463621834E+03 -0.16390468633E+03  0.11326403504E+04  0.95000000000E+03 0.  0.
   -2000013    1    1    2    0    0  0.50449327765E+03 -0.31463621834E+03 -0.40102564221E+03  0.11903070960E+04  0.95000000000E+03 0.  0.
<mgrwt>
<rscale>  0 0.22532063E+04</rscale>
<asrwt>0</asrwt>
<pdfrwt beam="2">  1        2 0.22214444E+00 0.22532063E+04</pdfrwt>
<pdfrwt beam="1">  1       -2 0.13523209E+00 0.22532063E+04</pdfrwt>
<totfact> 0.48831786E+00</totfact>
</mgrwt>
</event>
<event>
 4    1  0.2482334E-008  0.2231577E+04  0.7816531E-02  0.8505399E-01
         -2   -1    0    0    0  501 -0.00000000000E+00  0.00000000000E+00  0.73967314101E+03  0.73967314101E+03  0.00000000000E+00 0. -1.
          2   -1    0    0  501    0  0.00000000000E+00 -0.00000000000E+00 -0.16831547426E+04  0.16831547426E+04  0.00000000000E+00 0.  1.
    2000013    1    1    2    0    0  0.46674598219E+03  0.28218118731E+03 -0.24141246125E+03  0.11217210040E+04  0.95000000000E+03 0.  0.
   -2000013    1    1    2    0    0 -0.46674598219E+03 -0.28218118731E+03 -0.70206914034E+03  0.13011068796E+04  0.95000000000E+03 0.  0.
<mgrwt>
<rscale>  0 0.22315773E+04</rscale>
<asrwt>0</asrwt>
<pdfrwt beam="2">  1        2 0.25894688E+00 0.22315773E+04</pdfrwt>
<pdfrwt beam="1">  1       -2 0.11379587E+00 0.22315773E+04</pdfrwt>
<totfact> 0.55278112E+00</totfact>
</mgrwt>
</event>
<event>
 4    1  0.2482334E-008  0.2402281E+04  0.7816531E-02  0.8438650E-01
         -2   -1    0    0    0  501 -0.00000000000E+00  0.00000000000E+00  0.18882977726E+04  0.18882977726E+04  0.00000000000E+00 0. -1.
          2   -1    0    0  501    0  0.00000000000E+00 -0.00000000000E+00 -0.76404213488E+03  0.76404213488E+03  0.00000000000E+00 0.  1.
    2000013    1    1    2    0    0 -0.62990659414E+03 -0.14805460427E+03  0.94703746205E+03  0.14893228118E+04  0.95000000000E+03 0.  0.
   -2000013    1    1    2    0    0  0.62990659414E+03  0.14805460427E+03  0.17721817572E+03  0.11630170957E+04  0.95000000000E+03 0.  0.
<mgrwt>
<rscale>  0 0.24022815E+04</rscale>
<asrwt>0</asrwt>
<pdfrwt beam="2">  1        2 0.11754494E+00 0.24022815E+04</pdfrwt>
<pdfrwt beam="1">  1       -2 0.29050735E+00 0.24022815E+04</pdfrwt>
<totfact> 0.11957763E+00</totfact>
</mgrwt>
</event>
<event>
 4    1  0.2482334E-008  0.2456130E+04  0.7816531E-02  0.8418783E-01
          1   -1    0    0  501    0  0.00000000000E+00  0.00000000000E+00  0.29876983535E+04  0.29876983535E+04  0.00000000000E+00 0.  1.
         -1   -1    0    0    0  501 -0.00000000000E+00 -0.00000000000E+00 -0.50478439534E+03  0.50478439534E+03  0.00000000000E+00 0. -1.
    2000013    1    1    2    0    0 -0.76880553667E+03  0.53567012474E+02  0.13953435984E+04  0.18556441296E+04  0.95000000000E+03 0.  0.
   -2000013    1    1    2    0    0  0.76880553667E+03 -0.53567012474E+02  0.10875703597E+04  0.16368386192E+04  0.95000000000E+03 0.  0.
<mgrwt>
<rscale>  0 0.24561299E+04</rscale>
<asrwt>0</asrwt>
<pdfrwt beam="1">  1        1 0.45964589E+00 0.24561299E+04</pdfrwt>
<pdfrwt beam="2">  1       -1 0.77659139E-01 0.24561299E+04</pdfrwt>
<totfact> 0.90422537E-01</totfact>
</mgrwt>
</event>
<event>
 4    1  0.2482334E-008  0.2549331E+04  0.7816531E-02  0.8385619E-01
         -2   -1    0    0    0  501 -0.00000000000E+00  0.00000000000E+00  0.59728901600E+03  0.59728901600E+03  0.00000000000E+00 0. -1.
          2   -1    0    0  501    0  0.00000000000E+00 -0.00000000000E+00 -0.27202446047E+04  0.27202446047E+04  0.00000000000E+00 0.  1.
    2000013    1    1    2    0    0  0.48496473240E+03  0.47124138058E+03 -0.39155820471E+03  0.12300719727E+04  0.95000000000E+03 0.  0.
   -2000013    1    1    2    0    0 -0.48496473240E+03 -0.47124138058E+03 -0.17313973840E+04  0.20874616480E+04  0.95000000000E+03 0.  0.
<mgrwt>
<rscale>  0 0.25493311E+04</rscale>
<asrwt>0</asrwt>
<pdfrwt beam="2">  1        2 0.41849918E+00 0.25493311E+04</pdfrwt>
<pdfrwt beam="1">  1       -2 0.91890616E-01 0.25493311E+04</pdfrwt>
<totfact> 0.23100656E+00</totfact>
</mgrwt>
</event>
<event>
 4    1  0.2482334E-008  0.3494974E+04  0.7816531E-02  0.8114982E-01
          2   -1    0    0  501    0  0.00000000000E+00  0.00000000000E+00  0.20070093832E+04  0.20070093832E+04  0.00000000000E+00 0.  1.
         -2   -1    0    0    0  501 -0.00000000000E+00 -0.00000000000E+00 -0.15215231113E+04  0.15215231113E+04  0.00000000000E+00 0. -1.
    2000013    1    1    2    0    0  0.13312426498E+04  0.53247816081E+03  0.55469406608E+03  0.18071871767E+04  0.95000000000E+03 0.  0.
   -2000013    1    1    2    0    0 -0.13312426498E+04 -0.53247816081E+03 -0.69207794168E+02  0.17213453179E+04  0.95000000000E+03 0.  0.
<mgrwt>
<rscale>  0 0.34949742E+04</rscale>
<asrwt>0</asrwt>
<pdfrwt beam="1">  1        2 0.30877068E+00 0.34949742E+04</pdfrwt>
<pdfrwt beam="2">  1       -2 0.23408048E+00 0.34949742E+04</pdfrwt>
<totfact> 0.43887632E-01</totfact>
</mgrwt>
</event>
<event>
 4    1  0.2482334E-008  0.2161658E+04  0.7816531E-02  0.8534559E-01
          2   -1    0    0  501    0  0.00000000000E+00  0.00000000000E+00  0.23234940812E+04  0.23234940812E+04  0.00000000000E+00 0.  1.
         -2   -1    0    0    0  501 -0.00000000000E+00 -0.00000000000E+00 -0.50277333099E+03  0.50277333099E+03  0.00000000000E+00 0. -1.
    2000013    1    1    2    0    0  0.16678689270E+03  0.42029502089E+03  0.12338728689E+04  0.16215449512E+04  0.95000000000E+03 0.  0.
   -2000013    1    1    2    0    0 -0.16678689270E+03 -0.42029502089E+03  0.58684788126E+03  0.12047224609E+04  0.95000000000E+03 0.  0.
<mgrwt>
<rscale>  0 0.21616576E+04</rscale>
<asrwt>0</asrwt>
<pdfrwt beam="1">  1        2 0.35746062E+00 0.21616576E+04</pdfrwt>
<pdfrwt beam="2">  1       -2 0.77349744E-01 0.21616576E+04</pdfrwt>
<totfact> 0.60093185E+00</totfact>
</mgrwt>
</event>
<event>
 4    1  0.2482334E-008  0.2644305E+04  0.7816531E-02  0.8353306E-01
          1   -1    0    0  501    0  0.00000000000E+00  0.00000000000E+00  0.27494050402E+04  0.27494050402E+04  0.00000000000E+00 0.  1.
         -1   -1    0    0    0  501 -0.00000000000E+00 -0.00000000000E+00 -0.63580547345E+03  0.63580547345E+03  0.00000000000E+00 0. -1.
    2000013    1    1    2    0    0  0.68631781206E+03  0.56913871055E+03  0.13448729909E+04  0.18724674557E+04  0.95000000000E+03 0.  0.
   -2000013    1    1    2    0    0 -0.68631781206E+03 -0.56913871055E+03  0.76872657587E+03  0.15127430580E+04  0.95000000000E+03 0.  0.
<mgrwt>
<rscale>  0 0.26443047E+04</rscale>
<asrwt>0</asrwt>
<pdfrwt beam="1">  1        1 0.42298538E+00 0.26443047E+04</pdfrwt>
<pdfrwt beam="2">  1       -1 0.97816228E-01 0.26443047E+04</pdfrwt>
<totfact> 0.79590197E-01</totfact>
</mgrwt>
</event>
<event>
 4    1  0.2482334E-008  0.2249983E+04  0.7816531E-02  0.8497907E-01
         -2   -1    0    0    0  501 -0.00000000000E+00  0.00000000000E+00  0.57602741105E+03  0.57602741105E+03  0.00000000000E+00 0. -1.
          2   -1    0    0  501    0  0.00000000000E+00 -0.00000000000E+00 -0.21971278313E+04  0.21971278313E+04  0.00000000000E+00 0.  1.
    2000013    1    1    2    0    0 -0.30513347277E+03  0.20540458810E+03 -0.22227602338E+03  0.10426908034E+04  0.95000000000E+03 0.  0.
   -2000013    1    1    2    0    0  0.30513347277E+03 -0.20540458810E+03 -0.13988243968E+04  0.17304644389E+04  0.95000000000E+03 0.  0.
<mgrwt>
<rscale>  0 0.22499830E+04</rscale>
<asrwt>0</asrwt>
<pdfrwt beam="2">  1        2 0.33801966E+00 0.22499830E+04</pdfrwt>
<pdfrwt beam="1">  1       -2 0.88619603E-01 0.22499830E+04</pdfrwt>
<totfact> 0.51665014E+00</totfact>
</mgrwt>
</event>
<event>
 4    1  0.2482334E-008  0.2785492E+04  0.7816531E-02  0.8307787E-01
          2   -1    0    0  501    0  0.00000000000E+00  0.00000000000E+00  0.12807514641E+04  0.12807514641E+04  0.00000000000E+00 0.  1.
         -2   -1    0    0    0  501 -0.00000000000E+00 -0.00000000000E+00 -0.15145334808E+04  0.15145334808E+04  0.00000000000E+00 0. -1.
    2000013    1    1    2    0    0 -0.57020204390E+03 -0.20517384503E+03  0.70453084826E+03  0.13289433373E+04  0.95000000000E+03 0.  0.
   -2000013    1    1    2    0    0  0.57020204390E+03  0.20517384503E+03 -0.93831286495E+03  0.14663416076E+04  0.95000000000E+03 0.  0.
<mgrwt>
<rscale>  0 0.27854917E+04</rscale>
<asrwt>0</asrwt>
<pdfrwt beam="1">  1        2 0.19703869E+00 0.27854917E+04</pdfrwt>
<pdfrwt beam="2">  1       -2 0.23300515E+00 0.27854917E+04</pdfrwt>
<totfact> 0.12102063E+00</totfact>
</mgrwt>
</event>
<event>
 4    1  0.2482334E-008  0.3362951E+04  0.7816531E-02  0.8147060E-01
         -1   -1    0    0    0  501 -0.00000000000E+00  0.00000000000E+00  0.18035676729E+04  0.18035676729E+04  0.00000000000E+00 0. -1.
          1   -1    0    0  501    0  0.00000000000E+00 -0.00000000000E+00 -0.15676483190E+04  0.15676483190E+04  0.00000000000E+00 0.  1.
    2000013    1    1    2    0    0  0.87430232365E+03 -0.96026090846E+03  0.60737493495E+03  0.17198575165E+04  0.95000000000E+03 0.  0.
   -2000013    1    1    2    0    0 -0.87430232365E+03  0.96026090846E+03 -0.37145558107E+03  0.16513584754E+04  0.95000000000E+03 0.  0.
<mgrwt>
<rscale>  0 0.33629510E+04</rscale>
<asrwt>0</asrwt>
<pdfrwt beam="2">  1        1 0.24117667E+00 0.33629510E+04</pdfrwt>
<pdfrwt beam="1">  1       -1 0.27747195E+00 0.33629510E+04</pdfrwt>
<totfact> 0.22401246E-01</totfact>
</mgrwt>
</event>
<event>
 4    1  0.2482334E-008  0.2049326E+04  0.7816531E-02  0.8583900E-01
         -2   -1    0    0    0  501 -0.00000000000E+00  0.00000000000E+00  0.56048376644E+03  0.56048376644E+03  0.00000000000E+00 0. -1.
          2   -1    0    0  501    0  0.00000000000E+00 -0.00000000000E+00 -0.18732652342E+04  0.18732652342E+04  0.00000000000E+00 0.  1.
    2000013    1    1    2    0    0  0.13273651395E+03 -0.58728380427E+02 -0.23422688430E+03  0.98915632644E+03  0.95000000000E+03 0.  0.
   -2000013    1    1    2    0    0 -0.13273651395E+03  0.58728380427E+02 -0.10785545834E+04  0.14445926742E+04  0.95000000000E+03 0.  0.
<mgrwt>
<rscale>  0 0.20493265E+04</rscale>
<asrwt>0</asrwt>
<pdfrwt beam="2">  1        2 0.28819465E+00 0.20493265E+04</pdfrwt>
<pdfrwt beam="1">  1       -2 0.86228271E-01 0.20493265E+04</pdfrwt>
<totfact> 0.84779110E+00</totfact>
</mgrwt>
</event>
<event>
 4    1  0.2482334E-008  0.2309656E+04  0.7816531E-02  0.8474124E-01
          2   -1    0    0  501    0  0.00000000000E+00  0.00000000000E+00  0.41198917917E+04  0.41198917917E+04  0.00000000000E+00 0.  1.
         -2   -1    0    0    0  501 -0.00000000000E+00 -0.00000000000E+00 -0.32370448347E+03  0.32370448347E+03  0.00000000000E+00 0. -1.
    2000013    1    1    2    0    0  0.38506221387E+03  0.53007318227E+03  0.19814453669E+04  0.22930059375E+04  0.95000000000E+03 0.  0.
   -2000013    1    1    2    0    0 -0.38506221387E+03 -0.53007318227E+03  0.18147419412E+04  0.21505903376E+04  0.95000000000E+03 0.  0.
<mgrwt>
<rscale>  0 0.23096558E+04</rscale>
<asrwt>0</asrwt>
<pdfrwt beam="1">  1        2 0.63382947E+00 0.23096558E+04</pdfrwt>
<pdfrwt beam="2">  1       -2 0.49800692E-01 0.23096558E+04</pdfrwt>
<totfact> 0.94731614E-01</totfact>
</mgrwt>
</event>
<event>
 4    1  0.2482334E-008  0.2115668E+04  0.7816531E-02  0.8554373E-01
         -1   -1    0    0    0  501 -0.00000000000E+00  0.00000000000E+00  0.52277578811E+03  0.52277578811E+03  0.00000000000E+00 0. -1.
          1   -1    0    0  501    0  0.00000000000E+00 -0.00000000000E+00 -0.21405209249E+04  0.21405209249E+04  0.00000000000E+00 0.  1.
    2000013    1    1    2    0    0  0.11777350179E+03  0.38742111119E+03 -0.10974386059E+04  0.15069297292E+04  0.95000000000E+03 0.  0.
   -2000013    1    1    2    0    0 -0.11777350179E+03 -0.38742111119E+03 -0.52030653095E+03  0.11563669838E+04  0.95000000000E+03 0.  0.
<mgrwt>
<rscale>  0 0.21156678E+04</rscale>
<asrwt>0</asrwt>
<pdfrwt beam="2">  1        1 0.32931091E+00 0.21156678E+04</pdfrwt>
<pdfrwt beam="1">  1       -1 0.80427045E-01 0.21156678E+04</pdfrwt>
<totfact> 0.33874097E+00</totfact>
</mgrwt>
</event>
<event>
 4    1  0.2482334E-008  0.2003174E+04  0.7816531E-02  0.8605138E-01
          1   -1    0    0  501    0  0.00000000000E+00  0.00000000000E+00  0.22693030759E+04  0.22693030759E+04  0.00000000000E+00 0. -1.
         -1   -1    0    0    0  501 -0.00000000000E+00 -0.00000000000E+00 -0.44206350066E+03  0.44206350066E+03  0.00000000000E+00 0.  1.
    2000013    1    1    2    0    0 -0.16189256687E+03  0.23249427004E+03  0.11070062121E+04  0.14860099402E+04  0.95000000000E+03 0.  0.
   -2000013    1    1    2    0    0  0.16189256687E+03 -0.23249427004E+03  0.72023336311E+03  0.12253566363E+04  0.95000000000E+03 0.  0.
<mgrwt>
<rscale>  0 0.20031735E+04</rscale>
<asrwt>0</asrwt>
<pdfrwt beam="1">  1        1 0.34912354E+00 0.20031735E+04</pdfrwt>
<pdfrwt beam="2">  1       -1 0.68009770E-01 0.20031735E+04</pdfrwt>
<totfact> 0.39660446E+00</totfact>
</mgrwt>
</event>
<event>
 4    1  0.2482334E-008  0.2215939E+04  0.7816531E-02  0.8511823E-01
          2   -1    0    0  501    0  0.00000000000E+00  0.00000000000E+00  0.16941516617E+04  0.16941516617E+04  0.00000000000E+00 0.  1.
         -2   -1    0    0    0  501 -0.00000000000E+00 -0.00000000000E+00 -0.72460835913E+03  0.72460835913E+03  0.00000000000E+00 0. -1.
    2000013    1    1    2    0    0 -0.45536641263E+03  0.72990113286E+02  0.85073541303E+03  0.13560740649E+04  0.95000000000E+03 0.  0.
   -2000013    1    1    2    0    0  0.45536641263E+03 -0.72990113286E+02  0.11880788952E+03  0.10626859560E+04  0.95000000000E+03 0.  0.
<mgrwt>
<rscale>  0 0.22159390E+04</rscale>
<asrwt>0</asrwt>
<pdfrwt beam="1">  1        2 0.26063872E+00 0.22159390E+04</pdfrwt>
<pdfrwt beam="2">  1       -2 0.11147821E+00 0.22159390E+04</pdfrwt>
<totfact> 0.57376234E+00</totfact>
</mgrwt>
</event>
<event>
 4    1  0.2482334E-008  0.2359904E+04  0.7816531E-02  0.8454669E-01
         -1   -1    0    0    0  501 -0.00000000000E+00  0.00000000000E+00  0.10400046344E+04  0.10400046344E+04  0.00000000000E+00 0. -1.
          1   -1    0    0  501    0  0.00000000000E+00 -0.00000000000E+00 -0.13387314297E+04  0.13387314297E+04  0.00000000000E+00 0.  1.
    2000013    1    1    2    0    0  0.24832966210E+02 -0.68569687004E+03 -0.10459454488E+02  0.11719241759E+04  0.95000000000E+03 0.  0.
   -2000013    1    1    2    0    0 -0.24832966210E+02  0.68569687004E+03 -0.28826734075E+03  0.12068118882E+04  0.95000000000E+03 0.  0.
<mgrwt>
<rscale>  0 0.23599041E+04</rscale>
<asrwt>0</asrwt>
<pdfrwt beam="2">  1        1 0.20595868E+00 0.23599041E+04</pdfrwt>
<pdfrwt beam="1">  1       -1 0.16000071E+00 0.23599041E+04</pdfrwt>
<totfact> 0.22307778E+00</totfact>
</mgrwt>
</event>
<event>
 4    1  0.2482334E-008  0.3620429E+04  0.7816531E-02  0.8085828E-01
          2   -1    0    0  501    0  0.00000000000E+00  0.00000000000E+00  0.14206693946E+04  0.14206693946E+04  0.00000000000E+00 0.  1.
         -2   -1    0    0    0  501 -0.00000000000E+00 -0.00000000000E+00 -0.23065719538E+04  0.23065719538E+04  0.00000000000E+00 0. -1.
    2000013    1    1    2    0    0 -0.47782592009E+03  0.11855110341E+04 -0.13289352303E+04  0.20742041530E+04  0.95000000000E+03 0.  0.
   -2000013    1    1    2    0    0  0.47782592009E+03 -0.11855110341E+04  0.44303267114E+03  0.16530371955E+04  0.95000000000E+03 0.  0.
<mgrwt>
<rscale>  0 0.36204288E+04</rscale>
<asrwt>0</asrwt>
<pdfrwt beam="1">  1        2 0.21856452E+00 0.36204288E+04</pdfrwt>
<pdfrwt beam="2">  1       -2 0.35485722E+00 0.36204288E+04</pdfrwt>
<totfact> 0.16602976E-01</totfact>
</mgrwt>
</event>
<event>
 4    1  0.2482334E-008  0.3081700E+04  0.7816531E-02  0.8220778E-01
          1   -1    0    0  501    0  0.00000000000E+00  0.00000000000E+00  0.19377165152E+04  0.19377165152E+04  0.00000000000E+00 0.  1.
         -1   -1    0    0    0  501 -0.00000000000E+00 -0.00000000000E+00 -0.12252665458E+04  0.12252665458E+04  0.00000000000E+00 0. -1.
    2000013    1    1    2    0    0  0.88886127797E+03 -0.80947503529E+03  0.52297559683E+03  0.16190514751E+04  0.95000000000E+03 0.  0.
   -2000013    1    1    2    0    0 -0.88886127797E+03  0.80947503529E+03  0.18947437255E+03  0.15439315859E+04  0.95000000000E+03 0.  0.
<mgrwt>
<rscale>  0 0.30817003E+04</rscale>
<asrwt>0</asrwt>
<pdfrwt beam="1">  1        1 0.29811023E+00 0.30817003E+04</pdfrwt>
<pdfrwt beam="2">  1       -1 0.18850255E+00 0.30817003E+04</pdfrwt>
<totfact> 0.50258102E-01</totfact>
</mgrwt>
</event>
<event>
 4    1  0.2482334E-008  0.2611279E+04  0.7816531E-02  0.8364380E-01
         -2   -1    0    0    0  501 -0.00000000000E+00  0.00000000000E+00  0.99865032318E+03  0.99865032318E+03  0.00000000000E+00 0. -1.
          2   -1    0    0  501    0  0.00000000000E+00 -0.00000000000E+00 -0.17069979311E+04  0.17069979311E+04  0.00000000000E+00 0.  1.
    2000013    1    1    2    0    0  0.59550064766E+03 -0.66505028263E+03 -0.27887609135E+03  0.13331109384E+04  0.95000000000E+03 0.  0.
   -2000013    1    1    2    0    0 -0.59550064766E+03  0.66505028263E+03 -0.42947151653E+03  0.13725373158E+04  0.95000000000E+03 0.  0.
<mgrwt>
<rscale>  0 0.26112786E+04</rscale>
<asrwt>0</asrwt>
<pdfrwt beam="2">  1        2 0.26261506E+00 0.26112786E+04</pdfrwt>
<pdfrwt beam="1">  1       -2 0.15363851E+00 0.26112786E+04</pdfrwt>
<totfact> 0.24147459E+00</totfact>
</mgrwt>
</event>
<event>
 4    1  0.2482334E-008  0.3007392E+04  0.7816531E-02  0.8241623E-01
         -2   -1    0    0    0  501 -0.00000000000E+00  0.00000000000E+00  0.91067160950E+03  0.91067160950E+03  0.00000000000E+00 0. -1.
          2   -1    0    0  501    0  0.00000000000E+00 -0.00000000000E+00 -0.24828947579E+04  0.24828947579E+04  0.00000000000E+00 0.  1.
    2000013    1    1    2    0    0  0.10299754119E+04  0.32293789699E+03 -0.28978691649E+03  0.14668383317E+04  0.95000000000E+03 0.  0.
   -2000013    1    1    2    0    0 -0.10299754119E+04 -0.32293789699E+03 -0.12824362319E+04  0.19267280357E+04  0.95000000000E+03 0.  0.
<mgrwt>
<rscale>  0 0.30073921E+04</rscale>
<asrwt>0</asrwt>
<pdfrwt beam="2">  1        2 0.38198381E+00 0.30073921E+04</pdfrwt>
<pdfrwt beam="1">  1       -2 0.14010332E+00 0.30073921E+04</pdfrwt>
<totfact> 0.10919924E+00</totfact>
</mgrwt>
</event>
<event>
 4    1  0.2482334E-008  0.2017305E+04  0.7816531E-02  0.8598572E-01
          2   -1    0    0  501    0  0.00000000000E+00  0.00000000000E+00  0.29236021796E+04  0.29236021796E+04  0.00000000000E+00 0. -1.
         -2   -1    0    0    0  501 -0.00000000000E+00 -0.00000000000E+00 -0.34798864787E+03  0.34798864787E+03  0.00000000000E+00 0.  1.
    2000013    1    1    2    0    0  0.33811568714E+03  0.85706474215E+01  0.12521023607E+04  0.16076865352E+04  0.95000000000E+03 0.  0.
   -2000013    1    1    2    0    0 -0.33811568714E+03 -0.85706474215E+01  0.13235111710E+04  0.16639042922E+04  0.95000000000E+03 0.  0.
<mgrwt>
<rscale>  0 0.20173055E+04</rscale>
<asrwt>0</asrwt>
<pdfrwt beam="1">  1        2 0.44978493E+00 0.20173055E+04</pdfrwt>
<pdfrwt beam="2">  1       -2 0.53536717E-01 0.20173055E+04</pdfrwt>
<totfact> 0.59378709E+00</totfact>
</mgrwt>
</event>
<event>
 4    1  0.2482334E-008  0.2990020E+04  0.7816531E-02  0.8246586E-01
         -2   -1    0    0    0  501 -0.00000000000E+00  0.00000000000E+00  0.56252501758E+03  0.56252501758E+03  0.00000000000E+00 0. -1.
          2   -1    0    0  501    0  0.00000000000E+00 -0.00000000000E+00 -0.39732555352E+04  0.39732555352E+04  0.00000000000E+00 0.  1.
    2000013    1    1    2    0    0  0.46391893120E+03  0.96706240769E+03 -0.23527505803E+04  0.27546988525E+04  0.95000000000E+03 0.  0.
   -2000013    1    1    2    0    0 -0.46391893120E+03 -0.96706240769E+03 -0.10579799373E+04  0.17810817002E+04  0.95000000000E+03 0.  0.
<mgrwt>
<rscale>  0 0.29900205E+04</rscale>
<asrwt>0</asrwt>
<pdfrwt beam="2">  1        2 0.61127006E+00 0.29900205E+04</pdfrwt>
<pdfrwt beam="1">  1       -2 0.86542313E-01 0.29900205E+04</pdfrwt>
<totfact> 0.35601783E-01</totfact>
</mgrwt>
</event>
<event>
 4    1  0.2482334E-008  0.4282407E+04  0.7816531E-02  0.7949879E-01
          2   -1    0    0  501    0  0.00000000000E+00  0.00000000000E+00  0.27862549463E+04  0.27862549463E+04  0.00000000000E+00 0.  1.
         -2   -1    0    0    0  501 -0.00000000000E+00 -0.00000000000E+00 -0.16454895192E+04  0.16454895192E+04  0.00000000000E+00 0. -1.
    2000013    1    1    2    0    0 -0.13059567744E+04  0.91730972535E+03 -0.53226530005E+03  0.19320420747E+04  0.95000000000E+03 0.  0.
   -2000013    1    1    2    0    0  0.13059567744E+04 -0.91730972535E+03  0.16730307271E+04  0.24997023908E+04  0.95000000000E+03 0.  0.
<mgrwt>
<rscale>  0 0.42824074E+04</rscale>
<asrwt>0</asrwt>
<pdfrwt beam="1">  1        2 0.42865461E+00 0.42824074E+04</pdfrwt>
<pdfrwt beam="2">  1       -2 0.25315223E+00 0.42824074E+04</pdfrwt>
<totfact> 0.11167994E-01</totfact>
</mgrwt>
</event>
<event>
 4    1  0.2482334E-008  0.2803564E+04  0.7816531E-02  0.8302163E-01
         -2   -1    0    0    0  501 -0.00000000000E+00  0.00000000000E+00  0.10020162383E+04  0.10020162383E+04  0.00000000000E+00 0. -1.
          2   -1    0    0  501    0  0.00000000000E+00 -0.00000000000E+00 -0.19610391032E+04  0.19610391032E+04  0.00000000000E+00 0.  1.
    2000013    1    1    2    0    0  0.15219712176E+03 -0.73695328854E+03 -0.12240210165E+04  0.17224957365E+04  0.95000000000E+03 0.  0.
   -2000013    1    1    2    0    0 -0.15219712176E+03  0.73695328854E+03  0.26499815148E+03  0.12405596050E+04  0.95000000000E+03 0.  0.
<mgrwt>
<rscale>  0 0.28035642E+04</rscale>
<asrwt>0</asrwt>
<pdfrwt beam="2">  1        2 0.30169832E+00 0.28035642E+04</pdfrwt>
<pdfrwt beam="1">  1       -2 0.15415634E+00 0.28035642E+04</pdfrwt>
<totfact> 0.17020413E+00</totfact>
</mgrwt>
</event>
<event>
 4    1  0.2482334E-008  0.3296277E+04  0.7816531E-02  0.8163843E-01
          2   -1    0    0  501    0  0.00000000000E+00  0.00000000000E+00  0.14144186523E+04  0.14144186523E+04  0.00000000000E+00 0.  1.
         -2   -1    0    0    0  501 -0.00000000000E+00 -0.00000000000E+00 -0.19204788869E+04  0.19204788869E+04  0.00000000000E+00 0. -1.
    2000013    1    1    2    0    0 -0.10513794926E+04  0.73136915488E+03 -0.67451831395E+03  0.17314082806E+04  0.95000000000E+03 0.  0.
   -2000013    1    1    2    0    0  0.10513794926E+04 -0.73136915488E+03  0.16845807929E+03  0.16034892586E+04  0.95000000000E+03 0.  0.
<mgrwt>
<rscale>  0 0.32962774E+04</rscale>
<asrwt>0</asrwt>
<pdfrwt beam="1">  1        2 0.21760287E+00 0.32962774E+04</pdfrwt>
<pdfrwt beam="2">  1       -2 0.29545829E+00 0.32962774E+04</pdfrwt>
<totfact> 0.40189586E-01</totfact>
</mgrwt>
</event>
<event>
 4    1  0.2482334E-008  0.2084510E+04  0.7816531E-02  0.8568098E-01
          2   -1    0    0  501    0  0.00000000000E+00  0.00000000000E+00  0.20402663452E+04  0.20402663452E+04  0.00000000000E+00 0.  1.
         -2   -1    0    0    0  501 -0.00000000000E+00 -0.00000000000E+00 -0.53242826720E+03  0.53242826720E+03  0.00000000000E+00 0. -1.
    2000013    1    1    2    0    0  0.27926694919E+03  0.32514776661E+03  0.76525590653E+03  0.12929917639E+04  0.95000000000E+03 0.  0.
   -2000013    1    1    2    0    0 -0.27926694919E+03 -0.32514776661E+03  0.74258217143E+03  0.12797028485E+04  0.95000000000E+03 0.  0.
<mgrwt>
<rscale>  0 0.20845100E+04</rscale>
<asrwt>0</asrwt>
<pdfrwt beam="1">  1        2 0.31388712E+00 0.20845100E+04</pdfrwt>
<pdfrwt beam="2">  1       -2 0.81912043E-01 0.20845100E+04</pdfrwt>
<totfact> 0.76718656E+00</totfact>
</mgrwt>
</event>
<event>
 4    1  0.2482334E-008  0.3207170E+04  0.7816531E-02  0.8186926E-01
         -2   -1    0    0    0  501 -0.00000000000E+00  0.00000000000E+00  0.16024921301E+04  0.16024921301E+04  0.00000000000E+00 0. -1.
          2   -1    0    0  501    0  0.00000000000E+00 -0.00000000000E+00 -0.16046786099E+04  0.16046786099E+04  0.00000000000E+00 0.  1.
    2000013    1    1    2    0    0 -0.63429154759E+03 -0.30609992248E+03 -0.10841271539E+04  0.16043237254E+04  0.95000000000E+03 0.  0.
   -2000013    1    1    2    0    0  0.63429154759E+03  0.30609992248E+03  0.10819406742E+04  0.16028470146E+04  0.95000000000E+03 0.  0.
<mgrwt>
<rscale>  0 0.32071700E+04</rscale>
<asrwt>0</asrwt>
<pdfrwt beam="2">  1        2 0.24687363E+00 0.32071700E+04</pdfrwt>
<pdfrwt beam="1">  1       -2 0.24653725E+00 0.32071700E+04</pdfrwt>
<totfact> 0.62968554E-01</totfact>
</mgrwt>
</event>
<event>
 4    1  0.2482334E-008  0.3144336E+04  0.7816531E-02  0.8203675E-01
         -2   -1    0    0    0  501 -0.00000000000E+00  0.00000000000E+00  0.16026582428E+04  0.16026582428E+04  0.00000000000E+00 0. -1.
          2   -1    0    0  501    0  0.00000000000E+00 -0.00000000000E+00 -0.15422579849E+04  0.15422579849E+04  0.00000000000E+00 0.  1.
    2000013    1    1    2    0    0 -0.12221640391E+04 -0.22635424226E+03 -0.12568525811E+03  0.15694642288E+04  0.95000000000E+03 0.  0.
   -2000013    1    1    2    0    0  0.12221640391E+04  0.22635424226E+03  0.18608551599E+03  0.15754519989E+04  0.95000000000E+03 0.  0.
<mgrwt>
<rscale>  0 0.31443362E+04</rscale>
<asrwt>0</asrwt>
<pdfrwt beam="2">  1        2 0.23727046E+00 0.31443362E+04</pdfrwt>
<pdfrwt beam="1">  1       -2 0.24656281E+00 0.31443362E+04</pdfrwt>
<totfact> 0.68586762E-01</totfact>
</mgrwt>
</event>
<event>
 4    1  0.2482334E-008  0.2372671E+04  0.7816531E-02  0.8449807E-01
          2   -1    0    0  501    0  0.00000000000E+00  0.00000000000E+00  0.24062717015E+04  0.24062717015E+04  0.00000000000E+00 0.  1.
         -2   -1    0    0    0  501 -0.00000000000E+00 -0.00000000000E+00 -0.58488490187E+03  0.58488490187E+03  0.00000000000E+00 0. -1.
    2000013    1    1    2    0    0  0.68070728268E+03 -0.19587121113E+03  0.83978079791E+03  0.14523979223E+04  0.95000000000E+03 0.  0.
   -2000013    1    1    2    0    0 -0.68070728268E+03  0.19587121113E+03  0.98160600171E+03  0.15387586811E+04  0.95000000000E+03 0.  0.
<mgrwt>
<rscale>  0 0.23726711E+04</rscale>
<asrwt>0</asrwt>
<pdfrwt beam="1">  1        2 0.37019564E+00 0.23726711E+04</pdfrwt>
<pdfrwt beam="2">  1       -2 0.89982294E-01 0.23726711E+04</pdfrwt>
<totfact> 0.37564287E+00</totfact>
</mgrwt>
</event>
<event>
 4    1  0.2482334E-008  0.2361647E+04  0.7816531E-02  0.8454004E-01
         -2   -1    0    0    0  501 -0.00000000000E+00  0.00000000000E+00  0.58595809123E+03  0.58595809123E+03  0.00000000000E+00 0. -1.
          2   -1    0    0  501    0  0.00000000000E+00 -0.00000000000E+00 -0.23795962812E+04  0.23795962812E+04  0.00000000000E+00 0.  1.
    2000013    1    1    2    0    0  0.36435365148E+03  0.53959768112E+03 -0.56955070882E+03  0.12848374414E+04  0.95000000000E+03 0.  0.
   -2000013    1    1    2    0    0 -0.36435365148E+03 -0.53959768112E+03 -0.12240874811E+04  0.16807169310E+04  0.95000000000E+03 0.  0.
<mgrwt>
<rscale>  0 0.23616466E+04</rscale>
<asrwt>0</asrwt>
<pdfrwt beam="2">  1        2 0.36609174E+00 0.23616466E+04</pdfrwt>
<pdfrwt beam="1">  1       -2 0.90147398E-01 0.23616466E+04</pdfrwt>
<totfact> 0.38780472E+00</totfact>
</mgrwt>
</event>
<event>
 4    1  0.2482334E-008  0.3203896E+04  0.7816531E-02  0.8187789E-01
          2   -1    0    0  501    0  0.00000000000E+00  0.00000000000E+00  0.28271223295E+04  0.28271223295E+04  0.00000000000E+00 0.  1.
         -2   -1    0    0    0  501 -0.00000000000E+00 -0.00000000000E+00 -0.90772044792E+03  0.90772044792E+03  0.00000000000E+00 0. -1.
    2000013    1    1    2    0    0 -0.12651042709E+04  0.18455530443E+03  0.76054617138E+03  0.17650722239E+04  0.95000000000E+03 0.  0.
   -2000013    1    1    2    0    0  0.12651042709E+04 -0.18455530443E+03  0.11588557102E+04  0.19697705536E+04  0.95000000000E+03 0.  0.
<mgrwt>
<rscale>  0 0.32038956E+04</rscale>
<asrwt>0</asrwt>
<pdfrwt beam="1">  1        2 0.43494189E+00 0.32038956E+04</pdfrwt>
<pdfrwt beam="2">  1       -2 0.13964930E+00 0.32038956E+04</pdfrwt>
<totfact> 0.67718255E-01</totfact>
</mgrwt>
</event>
<event>
 4    1  0.2482334E-008  0.3732041E+04  0.7816531E-02  0.8060898E-01
         -1   -1    0    0    0  501 -0.00000000000E+00  0.00000000000E+00  0.19999131220E+04  0.19999131220E+04  0.00000000000E+00 0. -1.
          1   -1    0    0  501    0  0.00000000000E+00 -0.00000000000E+00 -0.17410914795E+04  0.17410914795E+04  0.00000000000E+00 0.  1.
    2000013    1    1    2    0    0 -0.81800925852E+03 -0.96035916777E+03 -0.86701037088E+03  0.18015648368E+04  0.95000000000E+03 0.  0.
   -2000013    1    1    2    0    0  0.81800925852E+03  0.96035916777E+03  0.11258320135E+04  0.19394397647E+04  0.95000000000E+03 0.  0.
<mgrwt>
<rscale>  0 0.37320406E+04</rscale>
<asrwt>0</asrwt>
<pdfrwt beam="2">  1        1 0.26786023E+00 0.37320406E+04</pdfrwt>
<pdfrwt beam="1">  1       -1 0.30767894E+00 0.37320406E+04</pdfrwt>
<totfact> 0.10525310E-01</totfact>
</mgrwt>
</event>
<event>
 4    1  0.2482334E-008  0.3449894E+04  0.7816531E-02  0.8125768E-01
         -1   -1    0    0    0  501 -0.00000000000E+00  0.00000000000E+00  0.84563013269E+03  0.84563013269E+03  0.00000000000E+00 0. -1.
          1   -1    0    0  501    0  0.00000000000E+00 -0.00000000000E+00 -0.35186089435E+04  0.35186089435E+04  0.00000000000E+00 0.  1.
    2000013    1    1    2    0    0 -0.11900575863E+04 -0.72605230178E+03 -0.88115955782E+03  0.19032422783E+04  0.95000000000E+03 0.  0.
   -2000013    1    1    2    0    0  0.11900575863E+04  0.72605230178E+03 -0.17918192530E+04  0.24609967979E+04  0.95000000000E+03 0.  0.
<mgrwt>
<rscale>  0 0.34498938E+04</rscale>
<asrwt>0</asrwt>
<pdfrwt beam="2">  1        1 0.54132446E+00 0.34498938E+04</pdfrwt>
<pdfrwt beam="1">  1       -1 0.13009694E+00 0.34498938E+04</pdfrwt>
<totfact> 0.10002847E-01</totfact>
</mgrwt>
</event>
<event>
 4    1  0.2482334E-008  0.2605535E+04  0.7816531E-02  0.8366323E-01
         -2   -1    0    0    0  501 -0.00000000000E+00  0.00000000000E+00  0.19388489166E+04  0.19388489166E+04  0.00000000000E+00 0. -1.
          2   -1    0    0  501    0  0.00000000000E+00 -0.00000000000E+00 -0.87536644873E+03  0.87536644873E+03  0.00000000000E+00 0.  1.
    2000013    1    1    2    0    0 -0.37858666633E+03  0.55392187317E+03 -0.10225108833E+03  0.11675241285E+04  0.95000000000E+03 0.  0.
   -2000013    1    1    2    0    0  0.37858666633E+03 -0.55392187317E+03  0.11657335562E+04  0.16466912368E+04  0.95000000000E+03 0.  0.
<mgrwt>
<rscale>  0 0.26055351E+04</rscale>
<asrwt>0</asrwt>
<pdfrwt beam="2">  1        2 0.13467176E+00 0.26055351E+04</pdfrwt>
<pdfrwt beam="1">  1       -2 0.29828445E+00 0.26055351E+04</pdfrwt>
<totfact> 0.87755329E-01</totfact>
</mgrwt>
</event>
<event>
 4    1  0.2482334E-008  0.3329594E+04  0.7816531E-02  0.8155406E-01
          2   -1    0    0  501    0  0.00000000000E+00  0.00000000000E+00  0.26976929515E+04  0.26976929515E+04  0.00000000000E+00 0.  1.
         -2   -1    0    0    0  501 -0.00000000000E+00 -0.00000000000E+00 -0.10273772645E+04  0.10273772645E+04  0.00000000000E+00 0. -1.
    2000013    1    1    2    0    0 -0.73152075581E+03 -0.11532139628E+04  0.76419404450E+03  0.18307150510E+04  0.95000000000E+03 0.  0.
   -2000013    1    1    2    0    0  0.73152075581E+03  0.11532139628E+04  0.90612164253E+03  0.18943551650E+04  0.95000000000E+03 0.  0.
<mgrwt>
<rscale>  0 0.33295936E+04</rscale>
<asrwt>0</asrwt>
<pdfrwt beam="1">  1        2 0.41502968E+00 0.33295936E+04</pdfrwt>
<pdfrwt beam="2">  1       -2 0.15805804E+00 0.33295936E+04</pdfrwt>
<totfact> 0.57777437E-01</totfact>
</mgrwt>
</event>
<event>
 4    1  0.2482334E-008  0.2272798E+04  0.7816531E-02  0.8488724E-01
         -2   -1    0    0    0  501 -0.00000000000E+00  0.00000000000E+00  0.11632195853E+04  0.11632195853E+04  0.00000000000E+00 0. -1.
          2   -1    0    0  501    0  0.00000000000E+00 -0.00000000000E+00 -0.11101964706E+04  0.11101964706E+04  0.00000000000E+00 0.  1.
    2000013    1    1    2    0    0 -0.57445294741E+03 -0.16712518369E+03  0.20255734968E+03  0.11408139619E+04  0.95000000000E+03 0.  0.
   -2000013    1    1    2    0    0  0.57445294741E+03  0.16712518369E+03 -0.14953423504E+03  0.11326020940E+04  0.95000000000E+03 0.  0.
<mgrwt>
<rscale>  0 0.22727976E+04</rscale>
<asrwt>0</asrwt>
<pdfrwt beam="2">  1        2 0.17079946E+00 0.22727976E+04</pdfrwt>
<pdfrwt beam="1">  1       -2 0.17895686E+00 0.22727976E+04</pdfrwt>
<totfact> 0.35969373E+00</totfact>
</mgrwt>
</event>
<event>
 4    1  0.2482334E-008  0.2318059E+04  0.7816531E-02  0.8470835E-01
          2   -1    0    0  501    0  0.00000000000E+00  0.00000000000E+00  0.15000481804E+04  0.15000481804E+04  0.00000000000E+00 0.  1.
         -2   -1    0    0    0  501 -0.00000000000E+00 -0.00000000000E+00 -0.89553725060E+03  0.89553725060E+03  0.00000000000E+00 0. -1.
    2000013    1    1    2    0    0 -0.62453599133E+03  0.19094286550E+03  0.42603021983E+03  0.12290264971E+04  0.95000000000E+03 0.  0.
   -2000013    1    1    2    0    0  0.62453599133E+03 -0.19094286550E+03  0.17848070992E+03  0.11665589339E+04  0.95000000000E+03 0.  0.
<mgrwt>
<rscale>  0 0.23180587E+04</rscale>
<asrwt>0</asrwt>
<pdfrwt beam="1">  1        2 0.23077664E+00 0.23180587E+04</pdfrwt>
<pdfrwt beam="2">  1       -2 0.13777496E+00 0.23180587E+04</pdfrwt>
<totfact> 0.43029674E+00</totfact>
</mgrwt>
</event>
<event>
 4    1  0.2482334E-008  0.2471798E+04  0.7816531E-02  0.8413102E-01
         -1   -1    0    0    0  501 -0.00000000000E+00  0.00000000000E+00  0.63552951310E+03  0.63552951310E+03  0.00000000000E+00 0. -1.
          1   -1    0    0  501    0  0.00000000000E+00 -0.00000000000E+00 -0.24034235524E+04  0.24034235524E+04  0.00000000000E+00 0.  1.
    2000013    1    1    2    0    0 -0.77035899554E+03  0.11729346349E+03 -0.10476803603E+04  0.16147274928E+04  0.95000000000E+03 0.  0.
   -2000013    1    1    2    0    0  0.77035899554E+03 -0.11729346349E+03 -0.72021367901E+03  0.14242255727E+04  0.95000000000E+03 0.  0.
<mgrwt>
<rscale>  0 0.24717982E+04</rscale>
<asrwt>0</asrwt>
<pdfrwt beam="2">  1        1 0.36975747E+00 0.24717982E+04</pdfrwt>
<pdfrwt beam="1">  1       -1 0.97773771E-01 0.24717982E+04</pdfrwt>
<totfact> 0.14114479E+00</totfact>
</mgrwt>
</event>
<event>
 4    1  0.2482334E-008  0.2540544E+04  0.7816531E-02  0.8388682E-01
          2   -1    0    0  501    0  0.00000000000E+00  0.00000000000E+00  0.20699519144E+04  0.20699519144E+04  0.00000000000E+00 0.  1.
         -2   -1    0    0    0  501 -0.00000000000E+00 -0.00000000000E+00 -0.77953067998E+03  0.77953067998E+03  0.00000000000E+00 0. -1.
    2000013    1    1    2    0    0 -0.77677255138E+03 -0.59582947049E+02  0.28321708494E+03  0.12608083286E+04  0.95000000000E+03 0.  0.
   -2000013    1    1    2    0    0  0.77677255138E+03  0.59582947049E+02  0.10072041494E+04  0.15886742658E+04  0.95000000000E+03 0.  0.
<mgrwt>
<rscale>  0 0.25405441E+04</rscale>
<asrwt>0</asrwt>
<pdfrwt beam="1">  1        2 0.31845414E+00 0.25405441E+04</pdfrwt>
<pdfrwt beam="2">  1       -2 0.11992780E+00 0.25405441E+04</pdfrwt>
<totfact> 0.28870397E+00</totfact>
</mgrwt>
</event>
<event>
 4    1  0.2482334E-008  0.2522930E+04  0.7816531E-02  0.8394862E-01
          1   -1    0    0  501    0  0.00000000000E+00  0.00000000000E+00  0.93158537362E+03  0.93158537362E+03  0.00000000000E+00 0. -1.
         -1   -1    0    0    0  501 -0.00000000000E+00 -0.00000000000E+00 -0.17081564206E+04  0.17081564206E+04  0.00000000000E+00 0.  1.
    2000013    1    1    2    0    0  0.65312798817E+03 -0.49943385049E+03 -0.50658315522E+03  0.13546722235E+04  0.95000000000E+03 0.  0.
   -2000013    1    1    2    0    0 -0.65312798817E+03  0.49943385049E+03 -0.26998789177E+03  0.12850695707E+04  0.95000000000E+03 0.  0.
<mgrwt>
<rscale>  0 0.25229297E+04</rscale>
<asrwt>0</asrwt>
<pdfrwt beam="1">  1        1 0.14332083E+00 0.25229297E+04</pdfrwt>
<pdfrwt beam="2">  1       -1 0.26279329E+00 0.25229297E+04</pdfrwt>
<totfact> 0.87499000E-01</totfact>
</mgrwt>
</event>
<event>
 4    1  0.2482334E-008  0.2818268E+04  0.7816531E-02  0.8297619E-01
          2   -1    0    0  501    0  0.00000000000E+00  0.00000000000E+00  0.26545132852E+04  0.26545132852E+04  0.00000000000E+00 0.  1.
         -2   -1    0    0    0  501 -0.00000000000E+00 -0.00000000000E+00 -0.74803098149E+03  0.74803098149E+03  0.00000000000E+00 0. -1.
    2000013    1    1    2    0    0  0.88170751297E+03 -0.44223733799E+03  0.13539836419E+04  0.19258124790E+04  0.95000000000E+03 0.  0.
   -2000013    1    1    2    0    0 -0.88170751297E+03  0.44223733799E+03  0.55249866174E+03  0.14767317877E+04  0.95000000000E+03 0.  0.
<mgrwt>
<rscale>  0 0.28182677E+04</rscale>
<asrwt>0</asrwt>
<pdfrwt beam="1">  1        2 0.40838666E+00 0.28182677E+04</pdfrwt>
<pdfrwt beam="2">  1       -2 0.11508169E+00 0.28182677E+04</pdfrwt>
<totfact> 0.14448615E+00</totfact>
</mgrwt>
</event>
<event>
 4    1  0.2482334E-008  0.2306445E+04  0.7816531E-02  0.8475384E-01
          2   -1    0    0  501    0  0.00000000000E+00  0.00000000000E+00  0.18467973111E+04  0.18467973111E+04  0.00000000000E+00 0.  1.
         -2   -1    0    0    0  501 -0.00000000000E+00 -0.00000000000E+00 -0.72012377679E+03  0.72012377679E+03  0.00000000000E+00 0. -1.
    2000013    1    1    2    0    0 -0.53788565125E+03 -0.19491713941E+03  0.91546907176E+03  0.14380185278E+04  0.95000000000E+03 0.  0.
   -2000013    1    1    2    0    0  0.53788565125E+03  0.19491713941E+03  0.21120446254E+03  0.11289025600E+04  0.95000000000E+03 0.  0.
<mgrwt>
<rscale>  0 0.23064455E+04</rscale>
<asrwt>0</asrwt>
<pdfrwt beam="1">  1        2 0.28412266E+00 0.23064455E+04</pdfrwt>
<pdfrwt beam="2">  1       -2 0.11078827E+00 0.23064455E+04</pdfrwt>
<totfact> 0.47559131E+00</totfact>
</mgrwt>
</event>
<event>
 4    1  0.2482334E-008  0.4235351E+04  0.7816531E-02  0.7958682E-01
          2   -1    0    0  501    0  0.00000000000E+00  0.00000000000E+00  0.27422087577E+04  0.27422087577E+04  0.00000000000E+00 0.  1.
         -2   -1    0    0    0  501 -0.00000000000E+00 -0.00000000000E+00 -0.16353787234E+04  0.16353787234E+04  0.00000000000E+00 0. -1.
    2000013    1    1    2    0    0  0.78203286114E+03  0.78835655442E+03  0.21375201359E+04  0.25893191739E+04  0.95000000000E+03 0.  0.
   -2000013    1    1    2    0    0 -0.78203286114E+03 -0.78835655442E+03 -0.10306901016E+04  0.17882683071E+04  0.95000000000E+03 0.  0.
<mgrwt>
<rscale>  0 0.42353512E+04</rscale>
<asrwt>0</asrwt>
<pdfrwt beam="1">  1        2 0.42187827E+00 0.42353512E+04</pdfrwt>
<pdfrwt beam="2">  1       -2 0.25159673E+00 0.42353512E+04</pdfrwt>
<totfact> 0.12182234E-01</totfact>
</mgrwt>
</event>
<event>
 4    1  0.2482334E-008  0.2338900E+04  0.7816531E-02  0.8462739E-01
          2   -1    0    0  501    0  0.00000000000E+00  0.00000000000E+00  0.75042530227E+03  0.75042530227E+03  0.00000000000E+00 0.  1.
         -2   -1    0    0    0  501 -0.00000000000E+00 -0.00000000000E+00 -0.18224512370E+04  0.18224512370E+04  0.00000000000E+00 0. -1.
    2000013    1    1    2    0    0 -0.56079029242E+03  0.29842985127E+03 -0.80896267759E+03  0.14001666836E+04  0.95000000000E+03 0.  0.
   -2000013    1    1    2    0    0  0.56079029242E+03 -0.29842985127E+03 -0.26306325711E+03  0.11727098556E+04  0.95000000000E+03 0.  0.
<mgrwt>
<rscale>  0 0.23389002E+04</rscale>
<asrwt>0</asrwt>
<pdfrwt beam="1">  1        2 0.11545005E+00 0.23389002E+04</pdfrwt>
<pdfrwt beam="2">  1       -2 0.28037711E+00 0.23389002E+04</pdfrwt>
<totfact> 0.14187614E+00</totfact>
</mgrwt>
</event>
<event>
 4    1  0.2482334E-008  0.2549964E+04  0.7816531E-02  0.8385399E-01
         -2   -1    0    0    0  501 -0.00000000000E+00  0.00000000000E+00  0.26476158333E+04  0.26476158333E+04  0.00000000000E+00 0. -1.
          2   -1    0    0  501    0  0.00000000000E+00 -0.00000000000E+00 -0.61397848922E+03  0.61397848922E+03  0.00000000000E+00 0.  1.
    2000013    1    1    2    0    0  0.31794822176E+03 -0.64404607158E+03  0.43460397135E+03  0.12677803540E+04  0.95000000000E+03 0.  0.
   -2000013    1    1    2    0    0 -0.31794822176E+03  0.64404607158E+03  0.15990333727E+04  0.19938139685E+04  0.95000000000E+03 0.  0.
<mgrwt>
<rscale>  0 0.25499641E+04</rscale>
<asrwt>0</asrwt>
<pdfrwt beam="2">  1        2 0.94458231E-01 0.25499641E+04</pdfrwt>
<pdfrwt beam="1">  1       -2 0.40732550E+00 0.25499641E+04</pdfrwt>
<totfact> 0.28468031E-01</totfact>
</mgrwt>
</event>
<event>
 4    1  0.2482334E-008  0.2400350E+04  0.7816531E-02  0.8439373E-01
         -2   -1    0    0    0  501 -0.00000000000E+00  0.00000000000E+00  0.65869857103E+03  0.65869857103E+03  0.00000000000E+00 0. -1.
          2   -1    0    0  501    0  0.00000000000E+00 -0.00000000000E+00 -0.21867658690E+04  0.21867658690E+04  0.00000000000E+00 0.  1.
    2000013    1    1    2    0    0  0.24904910039E+03  0.50825583895E+03 -0.13169739816E+04  0.17196714571E+04  0.95000000000E+03 0.  0.
   -2000013    1    1    2    0    0 -0.24904910039E+03 -0.50825583895E+03 -0.21109331643E+03  0.11257929830E+04  0.95000000000E+03 0.  0.
<mgrwt>
<rscale>  0 0.24003496E+04</rscale>
<asrwt>0</asrwt>
<pdfrwt beam="2">  1        2 0.33642552E+00 0.24003496E+04</pdfrwt>
<pdfrwt beam="1">  1       -2 0.10133824E+00 0.24003496E+04</pdfrwt>
<totfact> 0.37797655E+00</totfact>
</mgrwt>
</event>
<event>
 4    1  0.2482334E-008  0.2088290E+04  0.7816531E-02  0.8566419E-01
          2   -1    0    0  501    0  0.00000000000E+00  0.00000000000E+00  0.12473955390E+04  0.12473955390E+04  0.00000000000E+00 0.  1.
         -2   -1    0    0    0  501 -0.00000000000E+00 -0.00000000000E+00 -0.87401226300E+03  0.87401226300E+03  0.00000000000E+00 0. -1.
    2000013    1    1    2    0    0 -0.32504244657E+01  0.32456071261E+03 -0.10489481065E+03  0.10093825552E+04  0.95000000000E+03 0.  0.
   -2000013    1    1    2    0    0  0.32504244657E+01 -0.32456071261E+03  0.47827808669E+03  0.11120252469E+04  0.95000000000E+03 0.  0.
<mgrwt>
<rscale>  0 0.20882902E+04</rscale>
<asrwt>0</asrwt>
<pdfrwt beam="1">  1        2 0.19190701E+00 0.20882902E+04</pdfrwt>
<pdfrwt beam="2">  1       -2 0.13446343E+00 0.20882902E+04</pdfrwt>
<totfact> 0.65266567E+00</totfact>
</mgrwt>
</event>
<event>
 4    1  0.2482334E-008  0.3478263E+04  0.7816531E-02  0.8118961E-01
         -2   -1    0    0    0  501 -0.00000000000E+00  0.00000000000E+00  0.22577005053E+04  0.22577005053E+04  0.00000000000E+00 0. -1.
          2   -1    0    0  501    0  0.00000000000E+00 -0.00000000000E+00 -0.13396722205E+04  0.13396722205E+04  0.00000000000E+00 0.  1.
    2000013    1    1    2    0    0  0.10970300206E+04  0.59831447246E+03 -0.31537397317E+03  0.16010670869E+04  0.95000000000E+03 0.  0.
   -2000013    1    1    2    0    0 -0.10970300206E+04 -0.59831447246E+03  0.12334022579E+04  0.19963056389E+04  0.95000000000E+03 0.  0.
<mgrwt>
<rscale>  0 0.34782632E+04</rscale>
<asrwt>0</asrwt>
<pdfrwt beam="2">  1        2 0.20610342E+00 0.34782632E+04</pdfrwt>
<pdfrwt beam="1">  1       -2 0.34733854E+00 0.34782632E+04</pdfrwt>
<totfact> 0.20858412E-01</totfact>
</mgrwt>
</event>
<event>
 4    1  0.2482334E-008  0.2056313E+04  0.7816531E-02  0.8580736E-01
         -2   -1    0    0    0  501 -0.00000000000E+00  0.00000000000E+00  0.10372542829E+04  0.10372542829E+04  0.00000000000E+00 0. -1.
          2   -1    0    0  501    0  0.00000000000E+00 -0.00000000000E+00 -0.10191387163E+04  0.10191387163E+04  0.00000000000E+00 0.  1.
    2000013    1    1    2    0    0 -0.21701732718E+03 -0.24568898184E+03  0.22619843197E+03  0.10301093761E+04  0.95000000000E+03 0.  0.
   -2000013    1    1    2    0    0  0.21701732718E+03  0.24568898184E+03 -0.20808286543E+03  0.10262836231E+04  0.95000000000E+03 0.  0.
<mgrwt>
<rscale>  0 0.20563132E+04</rscale>
<asrwt>0</asrwt>
<pdfrwt beam="2">  1        2 0.15679057E+00 0.20563132E+04</pdfrwt>
<pdfrwt beam="1">  1       -2 0.15957758E+00 0.20563132E+04</pdfrwt>
<totfact> 0.57449479E+00</totfact>
</mgrwt>
</event>
<event>
 4    1  0.2482334E-008  0.2555290E+04  0.7816531E-02  0.8383549E-01
          2   -1    0    0  501    0  0.00000000000E+00  0.00000000000E+00  0.26069949630E+04  0.26069949630E+04  0.00000000000E+00 0.  1.
         -2   -1    0    0    0  501 -0.00000000000E+00 -0.00000000000E+00 -0.62615279471E+03  0.62615279471E+03  0.00000000000E+00 0. -1.
    2000013    1    1    2    0    0  0.72506120727E+03  0.45087816848E+03  0.95305139992E+03  0.15936787154E+04  0.95000000000E+03 0.  0.
   -2000013    1    1    2    0    0 -0.72506120727E+03 -0.45087816848E+03  0.10277907684E+04  0.16394690423E+04  0.95000000000E+03 0.  0.
<mgrwt>
<rscale>  0 0.25552903E+04</rscale>
<asrwt>0</asrwt>
<pdfrwt beam="1">  1        2 0.40107614E+00 0.25552903E+04</pdfrwt>
<pdfrwt beam="2">  1       -2 0.96331201E-01 0.25552903E+04</pdfrwt>
<totfact> 0.24139367E+00</totfact>
</mgrwt>
</event>
<event>
 4    1  0.2482334E-008  0.2275780E+04  0.7816531E-02  0.8487532E-01
         -2   -1    0    0    0  501 -0.00000000000E+00  0.00000000000E+00  0.50460851902E+03  0.50460851902E+03  0.00000000000E+00 0.  1.
          2   -1    0    0  501    0  0.00000000000E+00 -0.00000000000E+00 -0.25659372924E+04  0.25659372924E+04  0.00000000000E+00 0. -1.
    2000013    1    1    2    0    0  0.20969649422E+03  0.52680086484E+03 -0.67165303446E+03  0.12942602403E+04  0.95000000000E+03 0.  0.
   -2000013    1    1    2    0    0 -0.20969649422E+03 -0.52680086484E+03 -0.13896757389E+04  0.17762855712E+04  0.95000000000E+03 0.  0.
<mgrwt>
<rscale>  0 0.22757801E+04</rscale>
<asrwt>0</asrwt>
<pdfrwt beam="2">  1        2 0.39475958E+00 0.22757801E+04</pdfrwt>
<pdfrwt beam="1">  1       -2 0.77632080E-01 0.22757801E+04</pdfrwt>
<totfact> 0.42805034E+00</totfact>
</mgrwt>
</event>
<event>
 4    1  0.2482334E-008  0.2584783E+04  0.7816531E-02  0.8373389E-01
          2   -1    0    0  501    0  0.00000000000E+00  0.00000000000E+00  0.10310918416E+04  0.10310918416E+04  0.00000000000E+00 0. -1.
         -2   -1    0    0    0  501 -0.00000000000E+00 -0.00000000000E+00 -0.16199095126E+04  0.16199095126E+04  0.00000000000E+00 0.  1.
    2000013    1    1    2    0    0 -0.62118278229E+03 -0.50446245333E+03 -0.66052030579E+03  0.14068182150E+04  0.95000000000E+03 0.  0.
   -2000013    1    1    2    0    0  0.62118278229E+03  0.50446245333E+03  0.71702634771E+02  0.12441831391E+04  0.95000000000E+03 0.  0.
<mgrwt>
<rscale>  0 0.25847828E+04</rscale>
<asrwt>0</asrwt>
<pdfrwt beam="1">  1        2 0.15862951E+00 0.25847828E+04</pdfrwt>
<pdfrwt beam="2">  1       -2 0.24921685E+00 0.25847828E+04</pdfrwt>
<totfact> 0.13846359E+00</totfact>
</mgrwt>
</event>
<event>
 4    1  0.2482334E-008  0.2966086E+04  0.7816531E-02  0.8253482E-01
         -1   -1    0    0    0  501 -0.00000000000E+00  0.00000000000E+00  0.90366522788E+03  0.90366522788E+03  0.00000000000E+00 0. -1.
          1   -1    0    0  501    0  0.00000000000E+00 -0.00000000000E+00 -0.24338845109E+04  0.24338845109E+04  0.00000000000E+00 0.  1.
    2000013    1    1    2    0    0  0.66424232946E+03  0.28091016938E+03  0.22662469322E+03  0.12140787236E+04  0.95000000000E+03 0.  0.
   -2000013    1    1    2    0    0 -0.66424232946E+03 -0.28091016938E+03 -0.17568439762E+04  0.21234710152E+04  0.95000000000E+03 0.  0.
<mgrwt>
<rscale>  0 0.29660862E+04</rscale>
<asrwt>0</asrwt>
<pdfrwt beam="2">  1        1 0.37444377E+00 0.29660862E+04</pdfrwt>
<pdfrwt beam="1">  1       -1 0.13902542E+00 0.29660862E+04</pdfrwt>
<totfact> 0.54831781E-01</totfact>
</mgrwt>
</event>
<event>
 4    1  0.2482334E-008  0.2939324E+04  0.7816531E-02  0.8261273E-01
          2   -1    0    0  501    0  0.00000000000E+00  0.00000000000E+00  0.22927242865E+04  0.22927242865E+04  0.00000000000E+00 0.  1.
         -2   -1    0    0    0  501 -0.00000000000E+00 -0.00000000000E+00 -0.94206972488E+03  0.94206972488E+03  0.00000000000E+00 0. -1.
    2000013    1    1    2    0    0  0.11097519283E+04  0.80469086758E+02  0.82853940382E+03  0.16813691326E+04  0.95000000000E+03 0.  0.
   -2000013    1    1    2    0    0 -0.11097519283E+04 -0.80469086758E+02  0.52211515783E+03  0.15534248789E+04  0.95000000000E+03 0.  0.
<mgrwt>
<rscale>  0 0.29393238E+04</rscale>
<asrwt>0</asrwt>
<pdfrwt beam="1">  1        2 0.35272681E+00 0.29393238E+04</pdfrwt>
<pdfrwt beam="2">  1       -2 0.14493380E+00 0.29393238E+04</pdfrwt>
<totfact> 0.12916578E+00</totfact>
</mgrwt>
</event>
<event>
 4    1  0.2482334E-008  0.3240186E+04  0.7816531E-02  0.8178284E-01
         -2   -1    0    0    0  501 -0.00000000000E+00  0.00000000000E+00  0.10084569379E+04  0.10084569379E+04  0.00000000000E+00 0. -1.
          2   -1    0    0  501    0  0.00000000000E+00 -0.00000000000E+00 -0.26026897346E+04  0.26026897346E+04  0.00000000000E+00 0.  1.
    2000013    1    1    2    0    0  0.69553352160E+02  0.11187481814E+04 -0.36511976271E+02  0.14697851158E+04  0.95000000000E+03 0.  0.
   -2000013    1    1    2    0    0 -0.69553352160E+02 -0.11187481814E+04 -0.15577208205E+04  0.21413615568E+04  0.95000000000E+03 0.  0.
<mgrwt>
<rscale>  0 0.32401855E+04</rscale>
<asrwt>0</asrwt>
<pdfrwt beam="2">  1        2 0.40041380E+00 0.32401855E+04</pdfrwt>
<pdfrwt beam="1">  1       -2 0.15514722E+00 0.32401855E+04</pdfrwt>
<totfact> 0.69665061E-01</totfact>
</mgrwt>
</event>
<event>
 4    1  0.2482334E-008  0.2246561E+04  0.7816531E-02  0.8499294E-01
         -2   -1    0    0    0  501 -0.00000000000E+00  0.00000000000E+00  0.14550558771E+04  0.14550558771E+04  0.00000000000E+00 0. -1.
          2   -1    0    0  501    0  0.00000000000E+00 -0.00000000000E+00 -0.86715522610E+03  0.86715522610E+03  0.00000000000E+00 0.  1.
    2000013    1    1    2    0    0  0.21461480095E+03  0.55193270866E+03  0.38964238263E+03  0.11853313520E+04  0.95000000000E+03 0.  0.
   -2000013    1    1    2    0    0 -0.21461480095E+03 -0.55193270866E+03  0.19825826835E+03  0.11368797512E+04  0.95000000000E+03 0.  0.
<mgrwt>
<rscale>  0 0.22465612E+04</rscale>
<asrwt>0</asrwt>
<pdfrwt beam="2">  1        2 0.13340850E+00 0.22465612E+04</pdfrwt>
<pdfrwt beam="1">  1       -2 0.22385475E+00 0.22465612E+04</pdfrwt>
<totfact> 0.26265544E+00</totfact>
</mgrwt>
</event>
<event>
 4    1  0.2482334E-008  0.2911892E+04  0.7816531E-02  0.8269348E-01
          2   -1    0    0  501    0  0.00000000000E+00  0.00000000000E+00  0.20564665181E+04  0.20564665181E+04  0.00000000000E+00 0.  1.
         -2   -1    0    0    0  501 -0.00000000000E+00 -0.00000000000E+00 -0.10307871239E+04  0.10307871239E+04  0.00000000000E+00 0. -1.
    2000013    1    1    2    0    0 -0.92584477640E+03  0.57659660417E+03  0.33661613566E+03  0.14850800035E+04  0.95000000000E+03 0.  0.
   -2000013    1    1    2    0    0  0.92584477640E+03 -0.57659660417E+03  0.68906325850E+03  0.16021736386E+04  0.95000000000E+03 0.  0.
<mgrwt>
<rscale>  0 0.29118923E+04</rscale>
<asrwt>0</asrwt>
<pdfrwt beam="1">  1        2 0.31637946E+00 0.29118923E+04</pdfrwt>
<pdfrwt beam="2">  1       -2 0.15858264E+00 0.29118923E+04</pdfrwt>
<totfact> 0.13828105E+00</totfact>
</mgrwt>
</event>
<event>
 4    1  0.2482334E-008  0.3989460E+04  0.7816531E-02  0.8006676E-01
          2   -1    0    0  501    0  0.00000000000E+00  0.00000000000E+00  0.29405766475E+04  0.29405766475E+04  0.00000000000E+00 0.  1.
         -2   -1    0    0    0  501 -0.00000000000E+00 -0.00000000000E+00 -0.13531180102E+04  0.13531180102E+04  0.00000000000E+00 0. -1.
    2000013    1    1    2    0    0 -0.28761319469E+03  0.17109509714E+04  0.10710049078E+04  0.22493612624E+04  0.95000000000E+03 0.  0.
   -2000013    1    1    2    0    0  0.28761319469E+03 -0.17109509714E+04  0.51645372949E+03  0.20443333953E+04  0.95000000000E+03 0.  0.
<mgrwt>
<rscale>  0 0.39894597E+04</rscale>
<asrwt>0</asrwt>
<pdfrwt beam="1">  1        2 0.45239640E+00 0.39894597E+04</pdfrwt>
<pdfrwt beam="2">  1       -2 0.20817200E+00 0.39894597E+04</pdfrwt>
<totfact> 0.17607574E-01</totfact>
</mgrwt>
</event>
<event>
 4    1  0.2482334E-008  0.2112615E+04  0.7816531E-02  0.8555707E-01
         -2   -1    0    0    0  501 -0.00000000000E+00  0.00000000000E+00  0.45112405613E+03  0.45112405613E+03  0.00000000000E+00 0. -1.
          2   -1    0    0  501    0  0.00000000000E+00 -0.00000000000E+00 -0.24733449791E+04  0.24733449791E+04  0.00000000000E+00 0.  1.
    2000013    1    1    2    0    0 -0.23995235017E+03  0.31535201553E+03 -0.13394566199E+04  0.16892803381E+04  0.95000000000E+03 0.  0.
   -2000013    1    1    2    0    0  0.23995235017E+03 -0.31535201553E+03 -0.68276430311E+03  0.12351886972E+04  0.95000000000E+03 0.  0.
<mgrwt>
<rscale>  0 0.21126149E+04</rscale>
<asrwt>0</asrwt>
<pdfrwt beam="2">  1        2 0.38051461E+00 0.21126149E+04</pdfrwt>
<pdfrwt beam="1">  1       -2 0.69403701E-01 0.21126149E+04</pdfrwt>
<totfact> 0.62908149E+00</totfact>
</mgrwt>
</event>
<event>
 4    1  0.2482334E-008  0.3031817E+04  0.7816531E-02  0.8234703E-01
          2   -1    0    0  501    0  0.00000000000E+00  0.00000000000E+00  0.23960430642E+04  0.23960430642E+04  0.00000000000E+00 0.  1.
         -2   -1    0    0    0  501 -0.00000000000E+00 -0.00000000000E+00 -0.95907214729E+03  0.95907214729E+03  0.00000000000E+00 0. -1.
    2000013    1    1    2    0    0 -0.34713231388E+03 -0.64696921484E+03 -0.30562049589E+03  0.12389406345E+04  0.95000000000E+03 0.  0.
   -2000013    1    1    2    0    0  0.34713231388E+03  0.64696921484E+03  0.17425914128E+04  0.21161745769E+04  0.95000000000E+03 0.  0.
<mgrwt>
<rscale>  0 0.30318167E+04</rscale>
<asrwt>0</asrwt>
<pdfrwt beam="1">  1        2 0.36862201E+00 0.30318167E+04</pdfrwt>
<pdfrwt beam="2">  1       -2 0.14754956E+00 0.30318167E+04</pdfrwt>
<totfact> 0.10677116E+00</totfact>
</mgrwt>
</event>
<event>
 4    1  0.2482334E-008  0.2798758E+04  0.7816531E-02  0.8303654E-01
         -2   -1    0    0    0  501 -0.00000000000E+00  0.00000000000E+00  0.99671177603E+03  0.99671177603E+03  0.00000000000E+00 0. -1.
          2   -1    0    0  501    0  0.00000000000E+00 -0.00000000000E+00 -0.19647226690E+04  0.19647226690E+04  0.00000000000E+00 0.  1.
    2000013    1    1    2    0    0 -0.96837497510E+03 -0.10476314066E+03 -0.83018649532E+03  0.15938742187E+04  0.95000000000E+03 0.  0.
   -2000013    1    1    2    0    0  0.96837497510E+03  0.10476314066E+03 -0.13782439764E+03  0.13675602263E+04  0.95000000000E+03 0.  0.
<mgrwt>
<rscale>  0 0.27987585E+04</rscale>
<asrwt>0</asrwt>
<pdfrwt beam="2">  1        2 0.30226502E+00 0.27987585E+04</pdfrwt>
<pdfrwt beam="1">  1       -2 0.15334028E+00 0.27987585E+04</pdfrwt>
<totfact> 0.17189257E+00</totfact>
</mgrwt>
</event>
<event>
 4    1  0.2482334E-008  0.3753387E+04  0.7816531E-02  0.8056233E-01
          2   -1    0    0  501    0  0.00000000000E+00  0.00000000000E+00  0.37948322853E+04  0.37948322853E+04  0.00000000000E+00 0. -1.
         -2   -1    0    0    0  501 -0.00000000000E+00 -0.00000000000E+00 -0.92809854807E+03  0.92809854807E+03  0.00000000000E+00 0.  1.
    2000013    1    1    2    0    0  0.12770628610E+04  0.18798657880E+03  0.26619134221E+04  0.31071709917E+04  0.95000000000E+03 0.  0.
   -2000013    1    1    2    0    0 -0.12770628610E+04 -0.18798657880E+03  0.20482031514E+03  0.16157598417E+04  0.95000000000E+03 0.  0.
<mgrwt>
<rscale>  0 0.37533869E+04</rscale>
<asrwt>0</asrwt>
<pdfrwt beam="1">  1        2 0.58382034E+00 0.37533869E+04</pdfrwt>
<pdfrwt beam="2">  1       -2 0.14278439E+00 0.37533869E+04</pdfrwt>
<totfact> 0.13573889E-01</totfact>
</mgrwt>
</event>
<event>
 4    1  0.2482334E-008  0.2990742E+04  0.7816531E-02  0.8246380E-01
         -2   -1    0    0    0  501 -0.00000000000E+00  0.00000000000E+00  0.21653749779E+04  0.21653749779E+04  0.00000000000E+00 0. -1.
          2   -1    0    0  501    0  0.00000000000E+00 -0.00000000000E+00 -0.10326775904E+04  0.10326775904E+04  0.00000000000E+00 0.  1.
    2000013    1    1    2    0    0 -0.11106682932E+04  0.29117369418E+03  0.43421965744E+03  0.15522283623E+04  0.95000000000E+03 0.  0.
   -2000013    1    1    2    0    0  0.11106682932E+04 -0.29117369418E+03  0.69847773011E+03  0.16458242060E+04  0.95000000000E+03 0.  0.
<mgrwt>
<rscale>  0 0.29907419E+04</rscale>
<asrwt>0</asrwt>
<pdfrwt beam="2">  1        2 0.15887348E+00 0.29907419E+04</pdfrwt>
<pdfrwt beam="1">  1       -2 0.33313461E+00 0.29907419E+04</pdfrwt>
<totfact> 0.40808219E-01</totfact>
</mgrwt>
</event>
<event>
 4    1  0.2482334E-008  0.3008613E+04  0.7816531E-02  0.8241276E-01
         -2   -1    0    0    0  501 -0.00000000000E+00  0.00000000000E+00  0.11114235022E+04  0.11114235022E+04  0.00000000000E+00 0. -1.
          2   -1    0    0  501    0  0.00000000000E+00 -0.00000000000E+00 -0.20360722463E+04  0.20360722463E+04  0.00000000000E+00 0.  1.
    2000013    1    1    2    0    0 -0.75293912539E+03 -0.89025323077E+03 -0.49491369373E+03  0.15833217316E+04  0.95000000000E+03 0.  0.
   -2000013    1    1    2    0    0  0.75293912539E+03  0.89025323077E+03 -0.42973505038E+03  0.15641740168E+04  0.95000000000E+03 0.  0.
<mgrwt>
<rscale>  0 0.30086133E+04</rscale>
<asrwt>0</asrwt>
<pdfrwt beam="2">  1        2 0.31324188E+00 0.30086133E+04</pdfrwt>
<pdfrwt beam="1">  1       -2 0.17098823E+00 0.30086133E+04</pdfrwt>
<totfact> 0.11444456E+00</totfact>
</mgrwt>
</event>
<event>
 4    1  0.2482334E-008  0.2854875E+04  0.7816531E-02  0.8286431E-01
         -2   -1    0    0    0  501 -0.00000000000E+00  0.00000000000E+00  0.17974954601E+04  0.17974954601E+04  0.00000000000E+00 0. -1.
          2   -1    0    0  501    0  0.00000000000E+00 -0.00000000000E+00 -0.11335649509E+04  0.11335649509E+04  0.00000000000E+00 0.  1.
    2000013    1    1    2    0    0  0.87402282995E+03 -0.41083815619E+03  0.79383017506E+03  0.15701497523E+04  0.95000000000E+03 0.  0.
   -2000013    1    1    2    0    0 -0.87402282995E+03  0.41083815619E+03 -0.12989966589E+03  0.13609106587E+04  0.95000000000E+03 0.  0.
<mgrwt>
<rscale>  0 0.28548750E+04</rscale>
<asrwt>0</asrwt>
<pdfrwt beam="2">  1        2 0.17439461E+00 0.28548750E+04</pdfrwt>
<pdfrwt beam="1">  1       -2 0.27653776E+00 0.28548750E+04</pdfrwt>
<totfact> 0.79566008E-01</totfact>
</mgrwt>
</event>
<event>
 4    1  0.2482334E-008  0.2340424E+04  0.7816531E-02  0.8462151E-01
          2   -1    0    0  501    0  0.00000000000E+00  0.00000000000E+00  0.11811372585E+04  0.11811372585E+04  0.00000000000E+00 0.  1.
         -2   -1    0    0    0  501 -0.00000000000E+00 -0.00000000000E+00 -0.11593873169E+04  0.11593873169E+04  0.00000000000E+00 0. -1.
    2000013    1    1    2    0    0 -0.53879842437E+03  0.40857725853E+03 -0.87396452313E+02  0.11693490746E+04  0.95000000000E+03 0.  0.
   -2000013    1    1    2    0    0  0.53879842437E+03 -0.40857725853E+03  0.10914639392E+03  0.11711755008E+04  0.95000000000E+03 0.  0.
<mgrwt>
<rscale>  0 0.23404235E+04</rscale>
<asrwt>0</asrwt>
<pdfrwt beam="1">  1        2 0.18171342E+00 0.23404235E+04</pdfrwt>
<pdfrwt beam="2">  1       -2 0.17836728E+00 0.23404235E+04</pdfrwt>
<totfact> 0.32695519E+00</totfact>
</mgrwt>
</event>
<event>
 4    1  0.2482334E-008  0.2712301E+04  0.7816531E-02  0.8331025E-01
         -2   -1    0    0    0  501 -0.00000000000E+00  0.00000000000E+00  0.73415700937E+03  0.73415700937E+03  0.00000000000E+00 0. -1.
          2   -1    0    0  501    0  0.00000000000E+00 -0.00000000000E+00 -0.25051104625E+04  0.25051104625E+04  0.00000000000E+00 0.  1.
    2000013    1    1    2    0    0 -0.77462168010E+03  0.57208870926E+03 -0.77017900080E+03  0.15565988346E+04  0.95000000000E+03 0.  0.
   -2000013    1    1    2    0    0  0.77462168010E+03 -0.57208870926E+03 -0.10007744523E+04  0.16826686373E+04  0.95000000000E+03 0.  0.
<mgrwt>
<rscale>  0 0.27123012E+04</rscale>
<asrwt>0</asrwt>
<pdfrwt beam="2">  1        2 0.38540161E+00 0.27123012E+04</pdfrwt>
<pdfrwt beam="1">  1       -2 0.11294723E+00 0.27123012E+04</pdfrwt>
<totfact> 0.18665341E+00</totfact>
</mgrwt>
</event>
<event>
 4    1  0.2482334E-008  0.2115445E+04  0.7816531E-02  0.8554470E-01
         -2   -1    0    0    0  501 -0.00000000000E+00  0.00000000000E+00  0.72705850967E+03  0.72705850967E+03  0.00000000000E+00 0. -1.
          2   -1    0    0  501    0  0.00000000000E+00 -0.00000000000E+00 -0.15387717464E+04  0.15387717464E+04  0.00000000000E+00 0.  1.
    2000013    1    1    2    0    0  0.18693844710E+03 -0.32032797651E+03 -0.70637508363E+03  0.12405731556E+04  0.95000000000E+03 0.  0.
   -2000013    1    1    2    0    0 -0.18693844710E+03  0.32032797651E+03 -0.10533815306E+03  0.10252571005E+04  0.95000000000E+03 0.  0.
<mgrwt>
<rscale>  0 0.21154452E+04</rscale>
<asrwt>0</asrwt>
<pdfrwt beam="2">  1        2 0.23673412E+00 0.21154452E+04</pdfrwt>
<pdfrwt beam="1">  1       -2 0.11185515E+00 0.21154452E+04</pdfrwt>
<totfact> 0.70096981E+00</totfact>
</mgrwt>
</event>
<event>
 4    1  0.2482334E-008  0.2577919E+04  0.7816531E-02  0.8375740E-01
          2   -1    0    0  501    0  0.00000000000E+00  0.00000000000E+00  0.17864131267E+04  0.17864131267E+04  0.00000000000E+00 0.  1.
         -2   -1    0    0    0  501 -0.00000000000E+00 -0.00000000000E+00 -0.93002938990E+03  0.93002938990E+03  0.00000000000E+00 0. -1.
    2000013    1    1    2    0    0 -0.58718892580E+03 -0.44599436002E+03  0.91703262868E+03  0.15123328489E+04  0.95000000000E+03 0.  0.
   -2000013    1    1    2    0    0  0.58718892580E+03  0.44599436002E+03 -0.60648891903E+02  0.12041096677E+04  0.95000000000E+03 0.  0.
<mgrwt>
<rscale>  0 0.25779191E+04</rscale>
<asrwt>0</asrwt>
<pdfrwt beam="1">  1        2 0.27483279E+00 0.25779191E+04</pdfrwt>
<pdfrwt beam="2">  1       -2 0.14308145E+00 0.25779191E+04</pdfrwt>
<totfact> 0.26405155E+00</totfact>
</mgrwt>
</event>
<event>
 4    1  0.2482334E-008  0.3700081E+04  0.7816531E-02  0.8067944E-01
         -2   -1    0    0    0  501 -0.00000000000E+00  0.00000000000E+00  0.11823357958E+04  0.11823357958E+04  0.00000000000E+00 0. -1.
          2   -1    0    0  501    0  0.00000000000E+00 -0.00000000000E+00 -0.28948198964E+04  0.28948198964E+04  0.00000000000E+00 0.  1.
    2000013    1    1    2    0    0 -0.12875253565E+03 -0.14038369815E+04 -0.16605711813E+04  0.23764116088E+04  0.95000000000E+03 0.  0.
   -2000013    1    1    2    0    0  0.12875253565E+03  0.14038369815E+04 -0.51912919285E+02  0.17007440834E+04  0.95000000000E+03 0.  0.
<mgrwt>
<rscale>  0 0.37000806E+04</rscale>
<asrwt>0</asrwt>
<pdfrwt beam="2">  1        2 0.44535690E+00 0.37000806E+04</pdfrwt>
<pdfrwt beam="1">  1       -2 0.18189782E+00 0.37000806E+04</pdfrwt>
<totfact> 0.28771817E-01</totfact>
</mgrwt>
</event>
<event>
 4    1  0.2482334E-008  0.1987078E+04  0.7816531E-02  0.8612686E-01
         -1   -1    0    0    0  501 -0.00000000000E+00  0.00000000000E+00  0.42175983117E+03  0.42175983117E+03  0.00000000000E+00 0. -1.
          1   -1    0    0  501    0  0.00000000000E+00 -0.00000000000E+00 -0.23404771892E+04  0.23404771892E+04  0.00000000000E+00 0.  1.
    2000013    1    1    2    0    0 -0.17137085609E+02 -0.14931152061E+03 -0.61313815147E+03  0.11406252683E+04  0.95000000000E+03 0.  0.
   -2000013    1    1    2    0    0  0.17137085609E+02  0.14931152061E+03 -0.13055792066E+04  0.16216117521E+04  0.95000000000E+03 0.  0.
<mgrwt>
<rscale>  0 0.19870775E+04</rscale>
<asrwt>0</asrwt>
<pdfrwt beam="2">  1        1 0.36007342E+00 0.19870775E+04</pdfrwt>
<pdfrwt beam="1">  1       -1 0.64886127E-01 0.19870775E+04</pdfrwt>
<totfact> 0.39054641E+00</totfact>
</mgrwt>
</event>
<event>
 4    1  0.2482334E-008  0.2763137E+04  0.7816531E-02  0.8314805E-01
          2   -1    0    0  501    0  0.00000000000E+00  0.00000000000E+00  0.21066953039E+04  0.21066953039E+04  0.00000000000E+00 0.  1.
         -2   -1    0    0    0  501 -0.00000000000E+00 -0.00000000000E+00 -0.90603098922E+03  0.90603098922E+03  0.00000000000E+00 0. -1.
    2000013    1    1    2    0    0  0.89844090662E+03  0.42960028114E+03  0.73152890423E+03  0.15586490952E+04  0.95000000000E+03 0.  0.
   -2000013    1    1    2    0    0 -0.89844090662E+03 -0.42960028114E+03  0.46913541049E+03  0.14540771980E+04  0.95000000000E+03 0.  0.
<mgrwt>
<rscale>  0 0.27631368E+04</rscale>
<asrwt>0</asrwt>
<pdfrwt beam="1">  1        2 0.32410697E+00 0.27631368E+04</pdfrwt>
<pdfrwt beam="2">  1       -2 0.13938938E+00 0.27631368E+04</pdfrwt>
<totfact> 0.18469653E+00</totfact>
</mgrwt>
</event>
<event>
 4    1  0.2482334E-008  0.2730037E+04  0.7816531E-02  0.8325324E-01
          2   -1    0    0  501    0  0.00000000000E+00  0.00000000000E+00  0.20755944048E+04  0.20755944048E+04  0.00000000000E+00 0.  1.
         -2   -1    0    0    0  501 -0.00000000000E+00 -0.00000000000E+00 -0.89770705819E+03  0.89770705819E+03  0.00000000000E+00 0. -1.
    2000013    1    1    2    0    0  0.25876749668E+03 -0.94192989529E+03  0.50057690349E+03  0.14516438204E+04  0.95000000000E+03 0.  0.
   -2000013    1    1    2    0    0 -0.25876749668E+03  0.94192989529E+03  0.67731044315E+03  0.15216576426E+04  0.95000000000E+03 0.  0.
<mgrwt>
<rscale>  0 0.27300372E+04</rscale>
<asrwt>0</asrwt>
<pdfrwt beam="1">  1        2 0.31932221E+00 0.27300372E+04</pdfrwt>
<pdfrwt beam="2">  1       -2 0.13810878E+00 0.27300372E+04</pdfrwt>
<totfact> 0.19743403E+00</totfact>
</mgrwt>
</event>
<event>
 4    1  0.2482334E-008  0.2326719E+04  0.7816531E-02  0.8467460E-01
          2   -1    0    0  501    0  0.00000000000E+00  0.00000000000E+00  0.23647092691E+04  0.23647092691E+04  0.00000000000E+00 0.  1.
         -2   -1    0    0    0  501 -0.00000000000E+00 -0.00000000000E+00 -0.57233459656E+03  0.57233459656E+03  0.00000000000E+00 0. -1.
    2000013    1    1    2    0    0  0.18791075393E+03  0.60769239726E+03  0.62455729113E+03  0.13027556605E+04  0.95000000000E+03 0.  0.
   -2000013    1    1    2    0    0 -0.18791075393E+03 -0.60769239726E+03  0.11678173814E+04  0.16342882051E+04  0.95000000000E+03 0.  0.
<mgrwt>
<rscale>  0 0.23267187E+04</rscale>
<asrwt>0</asrwt>
<pdfrwt beam="1">  1        2 0.36380142E+00 0.23267187E+04</pdfrwt>
<pdfrwt beam="2">  1       -2 0.88051478E-01 0.23267187E+04</pdfrwt>
<totfact> 0.41870759E+00</totfact>
</mgrwt>
</event>
<event>
 4    1  0.2482334E-008  0.2125963E+04  0.7816531E-02  0.8549892E-01
         -2   -1    0    0    0  501 -0.00000000000E+00  0.00000000000E+00  0.51635763002E+03  0.51635763002E+03  0.00000000000E+00 0. -1.
          2   -1    0    0  501    0  0.00000000000E+00 -0.00000000000E+00 -0.21882691614E+04  0.21882691614E+04  0.00000000000E+00 0.  1.
    2000013    1    1    2    0    0  0.17234085954E+03  0.44236878728E+03 -0.89338721038E+03  0.13878156302E+04  0.95000000000E+03 0.  0.
   -2000013    1    1    2    0    0 -0.17234085954E+03 -0.44236878728E+03 -0.77852432098E+03  0.13168111612E+04  0.95000000000E+03 0.  0.
<mgrwt>
<rscale>  0 0.21259628E+04</rscale>
<asrwt>0</asrwt>
<pdfrwt beam="2">  1        2 0.33665680E+00 0.21259628E+04</pdfrwt>
<pdfrwt beam="1">  1       -2 0.79439633E-01 0.21259628E+04</pdfrwt>
<totfact> 0.67702489E+00</totfact>
</mgrwt>
</event>
<event>
 4    1  0.2482334E-008  0.2650076E+04  0.7816531E-02  0.8351388E-01
          2   -1    0    0  501    0  0.00000000000E+00  0.00000000000E+00  0.10550241812E+04  0.10550241812E+04  0.00000000000E+00 0.  1.
         -2   -1    0    0    0  501 -0.00000000000E+00 -0.00000000000E+00 -0.16641570261E+04  0.16641570261E+04  0.00000000000E+00 0. -1.
    2000013    1    1    2    0    0  0.40742925145E+03  0.77956712354E+03 -0.15252095922E+02  0.12947803372E+04  0.95000000000E+03 0.  0.
   -2000013    1    1    2    0    0 -0.40742925145E+03 -0.77956712354E+03 -0.59388074900E+03  0.14244008702E+04  0.95000000000E+03 0.  0.
<mgrwt>
<rscale>  0 0.26500762E+04</rscale>
<asrwt>0</asrwt>
<pdfrwt beam="1">  1        2 0.16231141E+00 0.26500762E+04</pdfrwt>
<pdfrwt beam="2">  1       -2 0.25602416E+00 0.26500762E+04</pdfrwt>
<totfact> 0.12079588E+00</totfact>
</mgrwt>
</event>
<event>
 4    1  0.2482334E-008  0.2351790E+04  0.7816531E-02  0.8457777E-01
          2   -1    0    0  501    0  0.00000000000E+00  0.00000000000E+00  0.14659540490E+04  0.14659540490E+04  0.00000000000E+00 0.  1.
         -2   -1    0    0    0  501 -0.00000000000E+00 -0.00000000000E+00 -0.94322790521E+03  0.94322790521E+03  0.00000000000E+00 0. -1.
    2000013    1    1    2    0    0  0.54846492805E+03 -0.42261605144E+03  0.29053003131E+03  0.12109194041E+04  0.95000000000E+03 0.  0.
   -2000013    1    1    2    0    0 -0.54846492805E+03  0.42261605144E+03  0.23219611248E+03  0.11982625501E+04  0.95000000000E+03 0.  0.
<mgrwt>
<rscale>  0 0.23517898E+04</rscale>
<asrwt>0</asrwt>
<pdfrwt beam="1">  1        2 0.22553139E+00 0.23517898E+04</pdfrwt>
<pdfrwt beam="2">  1       -2 0.14511199E+00 0.23517898E+04</pdfrwt>
<totfact> 0.39183374E+00</totfact>
</mgrwt>
</event>
<event>
 4    1  0.2482334E-008  0.2197017E+04  0.7816531E-02  0.8519671E-01
          2   -1    0    0  501    0  0.00000000000E+00  0.00000000000E+00  0.98704976227E+03  0.98704976227E+03  0.00000000000E+00 0.  1.
         -2   -1    0    0    0  501 -0.00000000000E+00 -0.00000000000E+00 -0.12225534601E+04  0.12225534601E+04  0.00000000000E+00 0. -1.
    2000013    1    1    2    0    0 -0.20143959771E+03 -0.62579283685E+01  0.39861323393E+03  0.10497664423E+04  0.95000000000E+03 0.  0.
   -2000013    1    1    2    0    0  0.20143959771E+03  0.62579283685E+01 -0.63411693178E+03  0.11598367801E+04  0.95000000000E+03 0.  0.
<mgrwt>
<rscale>  0 0.21970172E+04</rscale>
<asrwt>0</asrwt>
<pdfrwt beam="1">  1        2 0.15185381E+00 0.21970172E+04</pdfrwt>
<pdfrwt beam="2">  1       -2 0.18808515E+00 0.21970172E+04</pdfrwt>
<totfact> 0.37476490E+00</totfact>
</mgrwt>
</event>
<event>
 4    1  0.2482334E-008  0.1933927E+04  0.7816531E-02  0.8638151E-01
          2   -1    0    0  501    0  0.00000000000E+00  0.00000000000E+00  0.19116616518E+04  0.19116616518E+04  0.00000000000E+00 0.  1.
         -2   -1    0    0    0  501 -0.00000000000E+00 -0.00000000000E+00 -0.48911290749E+03  0.48911290749E+03  0.00000000000E+00 0. -1.
    2000013    1    1    2    0    0 -0.46258858417E+02 -0.17180378904E+03  0.67482785301E+03  0.11787913535E+04  0.95000000000E+03 0.  0.
   -2000013    1    1    2    0    0  0.46258858417E+02  0.17180378904E+03  0.74772089130E+03  0.12219832058E+04  0.95000000000E+03 0.  0.
<mgrwt>
<rscale>  0 0.19339270E+04</rscale>
<asrwt>0</asrwt>
<pdfrwt beam="1">  1        2 0.29410179E+00 0.19339270E+04</pdfrwt>
<pdfrwt beam="2">  1       -2 0.75248141E-01 0.19339270E+04</pdfrwt>
<totfact> 0.11075109E+01</totfact>
</mgrwt>
</event>
<event>
 4    1  0.2482334E-008  0.2494035E+04  0.7816531E-02  0.8405114E-01
         -2   -1    0    0    0  501 -0.00000000000E+00  0.00000000000E+00  0.13059714550E+04  0.13059714550E+04  0.00000000000E+00 0. -1.
          2   -1    0    0  501    0  0.00000000000E+00 -0.00000000000E+00 -0.11907247527E+04  0.11907247527E+04  0.00000000000E+00 0.  1.
    2000013    1    1    2    0    0 -0.45304162761E+03 -0.58479877738E+03 -0.26724753009E+03  0.12333521674E+04  0.95000000000E+03 0.  0.
   -2000013    1    1    2    0    0  0.45304162761E+03  0.58479877738E+03  0.38249423240E+03  0.12633440403E+04  0.95000000000E+03 0.  0.
<mgrwt>
<rscale>  0 0.24940349E+04</rscale>
<asrwt>0</asrwt>
<pdfrwt beam="2">  1        2 0.18318842E+00 0.24940349E+04</pdfrwt>
<pdfrwt beam="1">  1       -2 0.20091869E+00 0.24940349E+04</pdfrwt>
<totfact> 0.22453337E+00</totfact>
</mgrwt>
</event>
<event>
 4    1  0.2482334E-008  0.2298049E+04  0.7816531E-02  0.8478691E-01
         -2   -1    0    0    0  501 -0.00000000000E+00  0.00000000000E+00  0.16340241837E+04  0.16340241837E+04  0.00000000000E+00 0. -1.
          2   -1    0    0  501    0  0.00000000000E+00 -0.00000000000E+00 -0.80797928249E+03  0.80797928249E+03  0.00000000000E+00 0.  1.
    2000013    1    1    2    0    0  0.63348853057E+03  0.88409501416E+02  0.31428403834E+03  0.11876019599E+04  0.95000000000E+03 0.  0.
   -2000013    1    1    2    0    0 -0.63348853057E+03 -0.88409501416E+02  0.51176086285E+03  0.12544015063E+04  0.95000000000E+03 0.  0.
<mgrwt>
<rscale>  0 0.22980493E+04</rscale>
<asrwt>0</asrwt>
<pdfrwt beam="2">  1        2 0.12430451E+00 0.22980493E+04</pdfrwt>
<pdfrwt beam="1">  1       -2 0.25138833E+00 0.22980493E+04</pdfrwt>
<totfact> 0.19418230E+00</totfact>
</mgrwt>
</event>
<event>
 4    1  0.2482334E-008  0.3173145E+04  0.7816531E-02  0.8195946E-01
          1   -1    0    0  501    0  0.00000000000E+00  0.00000000000E+00  0.29620735596E+04  0.29620735596E+04  0.00000000000E+00 0.  1.
         -1   -1    0    0    0  501 -0.00000000000E+00 -0.00000000000E+00 -0.84981440220E+03  0.84981440220E+03  0.00000000000E+00 0. -1.
    2000013    1    1    2    0    0 -0.10065590026E+04 -0.74291522128E+03  0.78851072622E+03  0.17576499131E+04  0.95000000000E+03 0.  0.
   -2000013    1    1    2    0    0  0.10065590026E+04  0.74291522128E+03  0.13237484311E+04  0.20542380487E+04  0.95000000000E+03 0.  0.
<mgrwt>
<rscale>  0 0.31731453E+04</rscale>
<asrwt>0</asrwt>
<pdfrwt beam="1">  1        1 0.45570362E+00 0.31731453E+04</pdfrwt>
<pdfrwt beam="2">  1       -1 0.13074068E+00 0.31731453E+04</pdfrwt>
<totfact> 0.26682516E-01</totfact>
</mgrwt>
</event>
<event>
 4    1  0.2482334E-008  0.2679271E+04  0.7816531E-02  0.8341762E-01
          2   -1    0    0  501    0  0.00000000000E+00  0.00000000000E+00  0.12206057544E+04  0.12206057544E+04  0.00000000000E+00 0.  1.
         -2   -1    0    0    0  501 -0.00000000000E+00 -0.00000000000E+00 -0.14702726588E+04  0.14702726588E+04  0.00000000000E+00 0. -1.
    2000013    1    1    2    0    0 -0.72256820604E+03  0.27812688517E+03 -0.66816134783E+03  0.13958506236E+04  0.95000000000E+03 0.  0.
   -2000013    1    1    2    0    0  0.72256820604E+03 -0.27812688517E+03  0.41849444343E+03  0.12950277896E+04  0.95000000000E+03 0.  0.
<mgrwt>
<rscale>  0 0.26792710E+04</rscale>
<asrwt>0</asrwt>
<pdfrwt beam="1">  1        2 0.18778550E+00 0.26792710E+04</pdfrwt>
<pdfrwt beam="2">  1       -2 0.22619579E+00 0.26792710E+04</pdfrwt>
<totfact> 0.14614798E+00</totfact>
</mgrwt>
</event>
<event>
 4    1  0.2482334E-008  0.3881559E+04  0.7816531E-02  0.8028876E-01
         -1   -1    0    0    0  501 -0.00000000000E+00  0.00000000000E+00  0.19329508957E+04  0.19329508957E+04  0.00000000000E+00 0. -1.
          1   -1    0    0  501    0  0.00000000000E+00 -0.00000000000E+00 -0.19486395493E+04  0.19486395493E+04  0.00000000000E+00 0.  1.
    2000013    1    1    2    0    0  0.67953295111E+03  0.15220210327E+04  0.28509407714E+03  0.19396112209E+04  0.95000000000E+03 0.  0.
   -2000013    1    1    2    0    0 -0.67953295111E+03 -0.15220210327E+04 -0.30078273074E+03  0.19419792241E+04  0.95000000000E+03 0.  0.
<mgrwt>
<rscale>  0 0.38815587E+04</rscale>
<asrwt>0</asrwt>
<pdfrwt beam="2">  1        1 0.29979070E+00 0.38815587E+04</pdfrwt>
<pdfrwt beam="1">  1       -1 0.29737706E+00 0.38815587E+04</pdfrwt>
<totfact> 0.87639206E-02</totfact>
</mgrwt>
</event>
<event>
 4    1  0.2482334E-008  0.3138951E+04  0.7816531E-02  0.8205129E-01
          2   -1    0    0  501    0  0.00000000000E+00  0.00000000000E+00  0.24179203630E+04  0.24179203630E+04  0.00000000000E+00 0. -1.
         -2   -1    0    0    0  501 -0.00000000000E+00 -0.00000000000E+00 -0.10187490499E+04  0.10187490499E+04  0.00000000000E+00 0.  1.
    2000013    1    1    2    0    0 -0.12150393490E+04  0.10128548173E+03  0.99776741300E+03  0.18397334532E+04  0.95000000000E+03 0.  0.
   -2000013    1    1    2    0    0  0.12150393490E+04 -0.10128548173E+03  0.40140390012E+03  0.15969359597E+04  0.95000000000E+03 0.  0.
<mgrwt>
<rscale>  0 0.31389515E+04</rscale>
<asrwt>0</asrwt>
<pdfrwt beam="1">  1        2 0.37198775E+00 0.31389515E+04</pdfrwt>
<pdfrwt beam="2">  1       -2 0.15673062E+00 0.31389515E+04</pdfrwt>
<totfact> 0.87525373E-01</totfact>
</mgrwt>
</event>
<event>
 4    1  0.2482334E-008  0.2584800E+04  0.7816531E-02  0.8373383E-01
          2   -1    0    0  501    0  0.00000000000E+00  0.00000000000E+00  0.22420476739E+04  0.22420476739E+04  0.00000000000E+00 0.  1.
         -2   -1    0    0    0  501 -0.00000000000E+00 -0.00000000000E+00 -0.74498788148E+03  0.74498788148E+03  0.00000000000E+00 0. -1.
    2000013    1    1    2    0    0 -0.58784790452E+03 -0.64937405626E+03  0.77554568158E+03  0.15070577056E+04  0.95000000000E+03 0.  0.
   -2000013    1    1    2    0    0  0.58784790452E+03  0.64937405626E+03  0.72151411088E+03  0.14799778498E+04  0.95000000000E+03 0.  0.
<mgrwt>
<rscale>  0 0.25848005E+04</rscale>
<asrwt>0</asrwt>
<pdfrwt beam="1">  1        2 0.34493041E+00 0.25848005E+04</pdfrwt>
<pdfrwt beam="2">  1       -2 0.11461352E+00 0.25848005E+04</pdfrwt>
<totfact> 0.25742121E+00</totfact>
</mgrwt>
</event>
<event>
 4    1  0.2482334E-008  0.3199122E+04  0.7816531E-02  0.8189049E-01
          2   -1    0    0  501    0  0.00000000000E+00  0.00000000000E+00  0.15255765030E+04  0.15255765030E+04  0.00000000000E+00 0.  1.
         -2   -1    0    0    0  501 -0.00000000000E+00 -0.00000000000E+00 -0.16771335535E+04  0.16771335535E+04  0.00000000000E+00 0. -1.
    2000013    1    1    2    0    0 -0.77685755612E+03 -0.10163569297E+04 -0.21595867527E+03  0.16079885635E+04  0.95000000000E+03 0.  0.
   -2000013    1    1    2    0    0  0.77685755612E+03  0.10163569297E+04  0.64401624768E+02  0.15947214930E+04  0.95000000000E+03 0.  0.
<mgrwt>
<rscale>  0 0.31991221E+04</rscale>
<asrwt>0</asrwt>
<pdfrwt beam="1">  1        2 0.23470408E+00 0.31991221E+04</pdfrwt>
<pdfrwt beam="2">  1       -2 0.25802055E+00 0.31991221E+04</pdfrwt>
<totfact> 0.59324838E-01</totfact>
</mgrwt>
</event>
<event>
 4    1  0.2482334E-008  0.2307802E+04  0.7816531E-02  0.8474851E-01
          1   -1    0    0  501    0  0.00000000000E+00  0.00000000000E+00  0.21476563908E+04  0.21476563908E+04  0.00000000000E+00 0.  1.
         -1   -1    0    0    0  501 -0.00000000000E+00 -0.00000000000E+00 -0.61997250341E+03  0.61997250341E+03  0.00000000000E+00 0. -1.
    2000013    1    1    2    0    0 -0.42399095935E+03 -0.34903135307E+03  0.33579803711E+03  0.11475415203E+04  0.95000000000E+03 0.  0.
   -2000013    1    1    2    0    0  0.42399095935E+03  0.34903135307E+03  0.11918858503E+04  0.16200873739E+04  0.95000000000E+03 0.  0.
<mgrwt>
<rscale>  0 0.23078023E+04</rscale>
<asrwt>0</asrwt>
<pdfrwt beam="1">  1        1 0.33040867E+00 0.23078023E+04</pdfrwt>
<pdfrwt beam="2">  1       -1 0.95380386E-01 0.23078023E+04</pdfrwt>
<totfact> 0.22665268E+00</totfact>
</mgrwt>
</event>
<event>
 4    1  0.2482334E-008  0.2578236E+04  0.7816531E-02  0.8375632E-01
          2   -1    0    0  501    0  0.00000000000E+00  0.00000000000E+00  0.81944287517E+03  0.81944287517E+03  0.00000000000E+00 0. -1.
         -2   -1    0    0    0  501 -0.00000000000E+00 -0.00000000000E+00 -0.20279934104E+04  0.20279934104E+04  0.00000000000E+00 0.  1.
    2000013    1    1    2    0    0 -0.80986718986E+03 -0.27603286019E+03 -0.78657278702E+03  0.15010915210E+04  0.95000000000E+03 0.  0.
   -2000013    1    1    2    0    0  0.80986718986E+03  0.27603286019E+03 -0.42197774823E+03  0.13463447646E+04  0.95000000000E+03 0.  0.
<mgrwt>
<rscale>  0 0.25782356E+04</rscale>
<asrwt>0</asrwt>
<pdfrwt beam="1">  1        2 0.12606813E+00 0.25782356E+04</pdfrwt>
<pdfrwt beam="2">  1       -2 0.31199899E+00 0.25782356E+04</pdfrwt>
<totfact> 0.79302787E-01</totfact>
</mgrwt>
</event>
<event>
 4    1  0.2482334E-008  0.3667794E+04  0.7816531E-02  0.8075137E-01
         -2   -1    0    0    0  501 -0.00000000000E+00  0.00000000000E+00  0.16312447171E+04  0.16312447171E+04  0.00000000000E+00 0. -1.
          2   -1    0    0  501    0  0.00000000000E+00 -0.00000000000E+00 -0.20617247779E+04  0.20617247779E+04  0.00000000000E+00 0.  1.
    2000013    1    1    2    0    0  0.13681316972E+04  0.31519130169E+03 -0.91971951728E+03  0.19286041294E+04  0.95000000000E+03 0.  0.
   -2000013    1    1    2    0    0 -0.13681316972E+04 -0.31519130169E+03  0.48923945647E+03  0.17643653656E+04  0.95000000000E+03 0.  0.
<mgrwt>
<rscale>  0 0.36677937E+04</rscale>
<asrwt>0</asrwt>
<pdfrwt beam="2">  1        2 0.31718843E+00 0.36677937E+04</pdfrwt>
<pdfrwt beam="1">  1       -2 0.25096073E+00 0.36677937E+04</pdfrwt>
<totfact> 0.31717131E-01</totfact>
</mgrwt>
</event>
<event>
 4    1  0.2482334E-008  0.2154874E+04  0.7816531E-02  0.8537449E-01
          2   -1    0    0  501    0  0.00000000000E+00  0.00000000000E+00  0.15058780286E+04  0.15058780286E+04  0.00000000000E+00 0. -1.
         -2   -1    0    0    0  501 -0.00000000000E+00 -0.00000000000E+00 -0.77089305545E+03  0.77089305545E+03  0.00000000000E+00 0.  1.
    2000013    1    1    2    0    0 -0.28976659815E+03  0.27633173941E+03  0.36655110375E+02  0.10315849498E+04  0.95000000000E+03 0.  0.
   -2000013    1    1    2    0    0  0.28976659815E+03 -0.27633173941E+03  0.69832986277E+03  0.12451861342E+04  0.95000000000E+03 0.  0.
<mgrwt>
<rscale>  0 0.21548744E+04</rscale>
<asrwt>0</asrwt>
<pdfrwt beam="1">  1        2 0.23167354E+00 0.21548744E+04</pdfrwt>
<pdfrwt beam="2">  1       -2 0.11859893E+00 0.21548744E+04</pdfrwt>
<totfact> 0.63194761E+00</totfact>
</mgrwt>
</event>
<event>
 4    1  0.2482334E-008  0.3695454E+04  0.7816531E-02  0.8068970E-01
         -2   -1    0    0    0  501 -0.00000000000E+00  0.00000000000E+00  0.19320452775E+04  0.19320452775E+04  0.00000000000E+00 0. -1.
          2   -1    0    0  501    0  0.00000000000E+00 -0.00000000000E+00 -0.17670885098E+04  0.17670885098E+04  0.00000000000E+00 0.  1.
    2000013    1    1    2    0    0  0.10866993187E+04  0.10902465335E+04  0.45973840086E+03  0.18663901817E+04  0.95000000000E+03 0.  0.
   -2000013    1    1    2    0    0 -0.10866993187E+04 -0.10902465335E+04 -0.29478163315E+03  0.18327436057E+04  0.95000000000E+03 0.  0.
<mgrwt>
<rscale>  0 0.36954540E+04</rscale>
<asrwt>0</asrwt>
<pdfrwt beam="2">  1        2 0.27185977E+00 0.36954540E+04</pdfrwt>
<pdfrwt beam="1">  1       -2 0.29723773E+00 0.36954540E+04</pdfrwt>
<totfact> 0.24049653E-01</totfact>
</mgrwt>
</event>
<event>
 4    1  0.2482334E-008  0.3216329E+04  0.7816531E-02  0.8184518E-01
          2   -1    0    0  501    0  0.00000000000E+00  0.00000000000E+00  0.12250728381E+04  0.12250728381E+04  0.00000000000E+00 0. -1.
         -2   -1    0    0    0  501 -0.00000000000E+00 -0.00000000000E+00 -0.21110528744E+04  0.21110528744E+04  0.00000000000E+00 0.  1.
    2000013    1    1    2    0    0  0.12343565712E+04  0.29018171809E+03 -0.72866046237E+03  0.17439287955E+04  0.95000000000E+03 0.  0.
   -2000013    1    1    2    0    0 -0.12343565712E+04 -0.29018171809E+03 -0.15731957399E+03  0.15921969171E+04  0.95000000000E+03 0.  0.
<mgrwt>
<rscale>  0 0.32163293E+04</rscale>
<asrwt>0</asrwt>
<pdfrwt beam="1">  1        2 0.18847275E+00 0.32163293E+04</pdfrwt>
<pdfrwt beam="2">  1       -2 0.32477736E+00 0.32163293E+04</pdfrwt>
<totfact> 0.34413351E-01</totfact>
</mgrwt>
</event>
<event>
 4    1  0.2482334E-008  0.2419860E+04  0.7816531E-02  0.8432106E-01
         -2   -1    0    0    0  501 -0.00000000000E+00  0.00000000000E+00  0.53409693424E+03  0.53409693424E+03  0.00000000000E+00 0. -1.
          2   -1    0    0  501    0  0.00000000000E+00 -0.00000000000E+00 -0.27409446710E+04  0.27409446710E+04  0.00000000000E+00 0.  1.
    2000013    1    1    2    0    0  0.52933405506E+03 -0.98222086687E+02 -0.18087369806E+04  0.21127876337E+04  0.95000000000E+03 0.  0.
   -2000013    1    1    2    0    0 -0.52933405506E+03  0.98222086687E+02 -0.39811075616E+03  0.11622539715E+04  0.95000000000E+03 0.  0.
<mgrwt>
<rscale>  0 0.24198596E+04</rscale>
<asrwt>0</asrwt>
<pdfrwt beam="2">  1        2 0.42168379E+00 0.24198596E+04</pdfrwt>
<pdfrwt beam="1">  1       -2 0.82168761E-01 0.24198596E+04</pdfrwt>
<totfact> 0.29323391E+00</totfact>
</mgrwt>
</event>
<event>
 4    1  0.2482334E-008  0.3063413E+04  0.7816531E-02  0.8225851E-01
         -2   -1    0    0    0  501 -0.00000000000E+00  0.00000000000E+00  0.12345423806E+04  0.12345423806E+04  0.00000000000E+00 0. -1.
          2   -1    0    0  501    0  0.00000000000E+00 -0.00000000000E+00 -0.19004008726E+04  0.19004008726E+04  0.00000000000E+00 0.  1.
    2000013    1    1    2    0    0 -0.58521975781E+03 -0.85947027894E+03  0.28316986133E+03  0.14366128552E+04  0.95000000000E+03 0.  0.
   -2000013    1    1    2    0    0  0.58521975781E+03  0.85947027894E+03 -0.94902835338E+03  0.16983303980E+04  0.95000000000E+03 0.  0.
<mgrwt>
<rscale>  0 0.30634134E+04</rscale>
<asrwt>0</asrwt>
<pdfrwt beam="2">  1        2 0.29236936E+00 0.30634134E+04</pdfrwt>
<pdfrwt beam="1">  1       -2 0.18992960E+00 0.30634134E+04</pdfrwt>
<totfact> 0.10029758E+00</totfact>
</mgrwt>
</event>
<event>
 4    1  0.2482334E-008  0.2038595E+04  0.7816531E-02  0.8588786E-01
         -1   -1    0    0    0  501 -0.00000000000E+00  0.00000000000E+00  0.86560422714E+03  0.86560422714E+03  0.00000000000E+00 0. -1.
          1   -1    0    0  501    0  0.00000000000E+00 -0.00000000000E+00 -0.12002796499E+04  0.12002796499E+04  0.00000000000E+00 0.  1.
    2000013    1    1    2    0    0  0.26148093961E+03  0.90077268887E+02  0.80850785008E+02  0.99273513365E+03  0.95000000000E+03 0.  0.
   -2000013    1    1    2    0    0 -0.26148093961E+03 -0.90077268887E+02 -0.41552620782E+03  0.10731487434E+04  0.95000000000E+03 0.  0.
<mgrwt>
<rscale>  0 0.20385948E+04</rscale>
<asrwt>0</asrwt>
<pdfrwt beam="2">  1        1 0.18465841E+00 0.20385948E+04</pdfrwt>
<pdfrwt beam="1">  1       -1 0.13316988E+00 0.20385948E+04</pdfrwt>
<totfact> 0.47110511E+00</totfact>
</mgrwt>
</event>
<event>
 4    1  0.2482334E-008  0.2837863E+04  0.7816531E-02  0.8291609E-01
         -2   -1    0    0    0  501 -0.00000000000E+00  0.00000000000E+00  0.33683146238E+04  0.33683146238E+04  0.00000000000E+00 0. -1.
          2   -1    0    0  501    0  0.00000000000E+00 -0.00000000000E+00 -0.59773705369E+03  0.59773705369E+03  0.00000000000E+00 0.  1.
    2000013    1    1    2    0    0 -0.46778311692E+03  0.85598268748E+03  0.82742512127E+03  0.15933172117E+04  0.95000000000E+03 0.  0.
   -2000013    1    1    2    0    0  0.46778311692E+03 -0.85598268748E+03  0.19431524488E+04  0.23727344658E+04  0.95000000000E+03 0.  0.
<mgrwt>
<rscale>  0 0.28378629E+04</rscale>
<asrwt>0</asrwt>
<pdfrwt beam="2">  1        2 0.91959549E-01 0.28378629E+04</pdfrwt>
<pdfrwt beam="1">  1       -2 0.51820224E+00 0.28378629E+04</pdfrwt>
<totfact> 0.55035507E-02</totfact>
</mgrwt>
</event>
<event>
 4    1  0.2482334E-008  0.2715731E+04  0.7816531E-02  0.8329919E-01
         -2   -1    0    0    0  501 -0.00000000000E+00  0.00000000000E+00  0.18117763520E+04  0.18117763520E+04  0.00000000000E+00 0. -1.
          2   -1    0    0  501    0  0.00000000000E+00 -0.00000000000E+00 -0.10176742482E+04  0.10176742482E+04  0.00000000000E+00 0.  1.
    2000013    1    1    2    0    0 -0.23060119763E+03  0.64337354009E+03 -0.32040022695E+03  0.12133683406E+04  0.95000000000E+03 0.  0.
   -2000013    1    1    2    0    0  0.23060119763E+03 -0.64337354009E+03  0.11145023308E+04  0.16160822596E+04  0.95000000000E+03 0.  0.
<mgrwt>
<rscale>  0 0.27157306E+04</rscale>
<asrwt>0</asrwt>
<pdfrwt beam="2">  1        2 0.15656527E+00 0.27157306E+04</pdfrwt>
<pdfrwt beam="1">  1       -2 0.27873482E+00 0.27157306E+04</pdfrwt>
<totfact> 0.92167380E-01</totfact>
</mgrwt>
</event>
<event>
 4    1  0.2482334E-008  0.2080865E+04  0.7816531E-02  0.8569719E-01
         -1   -1    0    0    0  501 -0.00000000000E+00  0.00000000000E+00  0.12605489056E+04  0.12605489056E+04  0.00000000000E+00 0. -1.
          1   -1    0    0  501    0  0.00000000000E+00 -0.00000000000E+00 -0.85875304050E+03  0.85875304050E+03  0.00000000000E+00 0.  1.
    2000013    1    1    2    0    0 -0.22191656924E+03  0.35574470339E+03  0.26689415520E+03  0.10721631162E+04  0.95000000000E+03 0.  0.
   -2000013    1    1    2    0    0  0.22191656924E+03 -0.35574470339E+03  0.13490170988E+03  0.10471388299E+04  0.95000000000E+03 0.  0.
<mgrwt>
<rscale>  0 0.20808654E+04</rscale>
<asrwt>0</asrwt>
<pdfrwt beam="2">  1        1 0.13211585E+00 0.20808654E+04</pdfrwt>
<pdfrwt beam="1">  1       -1 0.19393060E+00 0.20808654E+04</pdfrwt>
<totfact> 0.30079986E+00</totfact>
</mgrwt>
</event>
<event>
 4    1  0.2482334E-008  0.2107702E+04  0.7816531E-02  0.8557858E-01
          1   -1    0    0  501    0  0.00000000000E+00  0.00000000000E+00  0.18094876978E+04  0.18094876978E+04  0.00000000000E+00 0.  1.
         -1   -1    0    0    0  501 -0.00000000000E+00 -0.00000000000E+00 -0.61376615847E+03  0.61376615847E+03  0.00000000000E+00 0. -1.
    2000013    1    1    2    0    0  0.22196331658E+03 -0.87473114240E+02  0.15082612032E+03  0.99104378218E+03  0.95000000000E+03 0.  0.
   -2000013    1    1    2    0    0 -0.22196331658E+03  0.87473114240E+02  0.10448954190E+04  0.14322100741E+04  0.95000000000E+03 0.  0.
<mgrwt>
<rscale>  0 0.21077024E+04</rscale>
<asrwt>0</asrwt>
<pdfrwt beam="1">  1        1 0.27838272E+00 0.21077024E+04</pdfrwt>
<pdfrwt beam="2">  1       -1 0.94425564E-01 0.21077024E+04</pdfrwt>
<totfact> 0.40038113E+00</totfact>
</mgrwt>
</event>
<event>
 4    1  0.2482334E-008  0.2274634E+04  0.7816531E-02  0.8487990E-01
          2   -1    0    0  501    0  0.00000000000E+00  0.00000000000E+00  0.71037053004E+03  0.71037053004E+03  0.00000000000E+00 0.  1.
         -2   -1    0    0    0  501 -0.00000000000E+00 -0.00000000000E+00 -0.18208669041E+04  0.18208669041E+04  0.00000000000E+00 0. -1.
    2000013    1    1    2    0    0 -0.37135682067E+03  0.47783013278E+03 -0.73036183667E+03  0.13424440162E+04  0.95000000000E+03 0.  0.
   -2000013    1    1    2    0    0  0.37135682067E+03 -0.47783013278E+03 -0.38013453735E+03  0.11887934179E+04  0.95000000000E+03 0.  0.
<mgrwt>
<rscale>  0 0.22746342E+04</rscale>
<asrwt>0</asrwt>
<pdfrwt beam="1">  1        2 0.10928777E+00 0.22746342E+04</pdfrwt>
<pdfrwt beam="2">  1       -2 0.28013337E+00 0.22746342E+04</pdfrwt>
<totfact> 0.15358681E+00</totfact>
</mgrwt>
</event>
<event>
 4    1  0.2482334E-008  0.2425742E+04  0.7816531E-02  0.8429928E-01
         -1   -1    0    0    0  501 -0.00000000000E+00  0.00000000000E+00  0.85622448241E+03  0.85622448241E+03  0.00000000000E+00 0. -1.
          1   -1    0    0  501    0  0.00000000000E+00 -0.00000000000E+00 -0.17180731980E+04  0.17180731980E+04  0.00000000000E+00 0.  1.
    2000013    1    1    2    0    0  0.22061764308E+03  0.52972151754E+03 -0.95004307264E+03  0.14609445131E+04  0.95000000000E+03 0.  0.
   -2000013    1    1    2    0    0 -0.22061764308E+03 -0.52972151754E+03  0.88194357003E+02  0.11133531673E+04  0.95000000000E+03 0.  0.
<mgrwt>
<rscale>  0 0.24257422E+04</rscale>
<asrwt>0</asrwt>
<pdfrwt beam="2">  1        1 0.26431895E+00 0.24257422E+04</pdfrwt>
<pdfrwt beam="1">  1       -1 0.13172684E+00 0.24257422E+04</pdfrwt>
<totfact> 0.20313925E+00</totfact>
</mgrwt>
</event>
<event>
 4    1  0.2482334E-008  0.2037856E+04  0.7816531E-02  0.8589123E-01
          2   -1    0    0  501    0  0.00000000000E+00  0.00000000000E+00  0.29346915262E+04  0.29346915262E+04  0.00000000000E+00 0.  1.
         -2   -1    0    0    0  501 -0.00000000000E+00 -0.00000000000E+00 -0.35377300748E+03  0.35377300748E+03  0.00000000000E+00 0. -1.
    2000013    1    1    2    0    0 -0.14879369152E+03  0.32913640303E+03  0.14073187219E+04  0.17359482480E+04  0.95000000000E+03 0.  0.
   -2000013    1    1    2    0    0  0.14879369152E+03 -0.32913640303E+03  0.11735997968E+04  0.15525162857E+04  0.95000000000E+03 0.  0.
<mgrwt>
<rscale>  0 0.20378564E+04</rscale>
<asrwt>0</asrwt>
<pdfrwt beam="1">  1        2 0.45149099E+00 0.20378564E+04</pdfrwt>
<pdfrwt beam="2">  1       -2 0.54426618E-01 0.20378564E+04</pdfrwt>
<totfact> 0.56384999E+00</totfact>
</mgrwt>
</event>
<event>
 4    1  0.2482334E-008  0.3452051E+04  0.7816531E-02  0.8125248E-01
         -2   -1    0    0    0  501 -0.00000000000E+00  0.00000000000E+00  0.12998734801E+04  0.12998734801E+04  0.00000000000E+00 0. -1.
          2   -1    0    0  501    0  0.00000000000E+00 -0.00000000000E+00 -0.22918875039E+04  0.22918875039E+04  0.00000000000E+00 0.  1.
    2000013    1    1    2    0    0  0.62829563182E+03  0.10420857212E+04 -0.12992388011E+04  0.20177263228E+04  0.95000000000E+03 0.  0.
   -2000013    1    1    2    0    0 -0.62829563182E+03 -0.10420857212E+04  0.30722477735E+03  0.15740346613E+04  0.95000000000E+03 0.  0.
<mgrwt>
<rscale>  0 0.34520509E+04</rscale>
<asrwt>0</asrwt>
<pdfrwt beam="2">  1        2 0.35259807E+00 0.34520509E+04</pdfrwt>
<pdfrwt beam="1">  1       -2 0.19998054E+00 0.34520509E+04</pdfrwt>
<totfact> 0.50285321E-01</totfact>
</mgrwt>
</event>
<event>
 4    1  0.2482334E-008  0.2814734E+04  0.7816531E-02  0.8298709E-01
         -2   -1    0    0    0  501 -0.00000000000E+00  0.00000000000E+00  0.11603550625E+04  0.11603550625E+04  0.00000000000E+00 0. -1.
          2   -1    0    0  501    0  0.00000000000E+00 -0.00000000000E+00 -0.17069621784E+04  0.17069621784E+04  0.00000000000E+00 0.  1.
    2000013    1    1    2    0    0 -0.91718391886E+03 -0.29427991967E+03  0.12169687066E+03  0.13583582519E+04  0.95000000000E+03 0.  0.
   -2000013    1    1    2    0    0  0.91718391886E+03  0.29427991967E+03 -0.66830398651E+03  0.15089589890E+04  0.95000000000E+03 0.  0.
<mgrwt>
<rscale>  0 0.28147342E+04</rscale>
<asrwt>0</asrwt>
<pdfrwt beam="2">  1        2 0.26260957E+00 0.28147342E+04</pdfrwt>
<pdfrwt beam="1">  1       -2 0.17851616E+00 0.28147342E+04</pdfrwt>
<totfact> 0.15687167E+00</totfact>
</mgrwt>
</event>
<event>
 4    1  0.2482334E-008  0.2173079E+04  0.7816531E-02  0.8529718E-01
          1   -1    0    0  501    0  0.00000000000E+00  0.00000000000E+00  0.15582215169E+04  0.15582215169E+04  0.00000000000E+00 0.  1.
         -1   -1    0    0    0  501 -0.00000000000E+00 -0.00000000000E+00 -0.75763790772E+03  0.75763790772E+03  0.00000000000E+00 0. -1.
    2000013    1    1    2    0    0 -0.36139122892E+03 -0.59576273267E+02  0.80457844073E+03  0.12976900323E+04  0.95000000000E+03 0.  0.
   -2000013    1    1    2    0    0  0.36139122892E+03  0.59576273267E+02 -0.39948315915E+01  0.10181693923E+04  0.95000000000E+03 0.  0.
<mgrwt>
<rscale>  0 0.21730786E+04</rscale>
<asrwt>0</asrwt>
<pdfrwt beam="1">  1        1 0.23972639E+00 0.21730786E+04</pdfrwt>
<pdfrwt beam="2">  1       -1 0.11655968E+00 0.21730786E+04</pdfrwt>
<totfact> 0.36204822E+00</totfact>
</mgrwt>
</event>
<event>
 4    1  0.2482334E-008  0.2588417E+04  0.7816531E-02  0.8372146E-01
         -2   -1    0    0    0  501 -0.00000000000E+00  0.00000000000E+00  0.12136970284E+04  0.12136970284E+04  0.00000000000E+00 0. -1.
          2   -1    0    0  501    0  0.00000000000E+00 -0.00000000000E+00 -0.13800606095E+04  0.13800606095E+04  0.00000000000E+00 0.  1.
    2000013    1    1    2    0    0  0.29369060491E+03 -0.21313386276E+03  0.71896677897E+03  0.12454290201E+04  0.95000000000E+03 0.  0.
   -2000013    1    1    2    0    0 -0.29369060491E+03  0.21313386276E+03 -0.88533036007E+03  0.13483286177E+04  0.95000000000E+03 0.  0.
<mgrwt>
<rscale>  0 0.25884169E+04</rscale>
<asrwt>0</asrwt>
<pdfrwt beam="2">  1        2 0.21231702E+00 0.25884169E+04</pdfrwt>
<pdfrwt beam="1">  1       -2 0.18672262E+00 0.25884169E+04</pdfrwt>
<totfact> 0.21456655E+00</totfact>
</mgrwt>
</event>
<event>
 4    1  0.2482334E-008  0.3357003E+04  0.7816531E-02  0.8148540E-01
         -2   -1    0    0    0  501 -0.00000000000E+00  0.00000000000E+00  0.94220642935E+03  0.94220642935E+03  0.00000000000E+00 0. -1.
          2   -1    0    0  501    0  0.00000000000E+00 -0.00000000000E+00 -0.29901811646E+04  0.29901811646E+04  0.00000000000E+00 0.  1.
    2000013    1    1    2    0    0 -0.11991832710E+04  0.67957879639E+03 -0.88052068970E+03  0.18914768153E+04  0.95000000000E+03 0.  0.
   -2000013    1    1    2    0    0  0.11991832710E+04 -0.67957879639E+03 -0.11674540456E+04  0.20409107787E+04  0.95000000000E+03 0.  0.
<mgrwt>
<rscale>  0 0.33570034E+04</rscale>
<asrwt>0</asrwt>
<pdfrwt beam="2">  1        2 0.46002786E+00 0.33570034E+04</pdfrwt>
<pdfrwt beam="1">  1       -2 0.14495484E+00 0.33570034E+04</pdfrwt>
<totfact> 0.48112974E-01</totfact>
</mgrwt>
</event>
<event>
 4    1  0.2482334E-008  0.2649714E+04  0.7816531E-02  0.8351508E-01
         -2   -1    0    0    0  501 -0.00000000000E+00  0.00000000000E+00  0.84889141835E+03  0.84889141835E+03  0.00000000000E+00 0. -1.
          2   -1    0    0  501    0  0.00000000000E+00 -0.00000000000E+00 -0.20676923592E+04  0.20676923592E+04  0.00000000000E+00 0.  1.
    2000013    1    1    2    0    0  0.89253862782E+03 -0.10858689587E+03 -0.84115285501E+03  0.15551380780E+04  0.95000000000E+03 0.  0.
   -2000013    1    1    2    0    0 -0.89253862782E+03  0.10858689587E+03 -0.37764808581E+03  0.13614456995E+04  0.95000000000E+03 0.  0.
<mgrwt>
<rscale>  0 0.26497142E+04</rscale>
<asrwt>0</asrwt>
<pdfrwt beam="2">  1        2 0.31810651E+00 0.26497142E+04</pdfrwt>
<pdfrwt beam="1">  1       -2 0.13059868E+00 0.26497142E+04</pdfrwt>
<totfact> 0.23163225E+00</totfact>
</mgrwt>
</event>
<event>
 4    1  0.2482334E-008  0.3370170E+04  0.7816531E-02  0.8145267E-01
         -2   -1    0    0    0  501 -0.00000000000E+00  0.00000000000E+00  0.80612314522E+03  0.80612314522E+03  0.00000000000E+00 0. -1.
          2   -1    0    0  501    0  0.00000000000E+00 -0.00000000000E+00 -0.35224286863E+04  0.35224286863E+04  0.00000000000E+00 0.  1.
    2000013    1    1    2    0    0 -0.11040900005E+04  0.84219195049E+03 -0.12382906462E+04  0.20890585763E+04  0.95000000000E+03 0.  0.
   -2000013    1    1    2    0    0  0.11040900005E+04 -0.84219195049E+03 -0.14780148949E+04  0.22394932552E+04  0.95000000000E+03 0.  0.
<mgrwt>
<rscale>  0 0.33701699E+04</rscale>
<asrwt>0</asrwt>
<pdfrwt beam="2">  1        2 0.54191210E+00 0.33701699E+04</pdfrwt>
<pdfrwt beam="1">  1       -2 0.12401895E+00 0.33701699E+04</pdfrwt>
<totfact> 0.31792733E-01</totfact>
</mgrwt>
</event>
<event>
 4    1  0.2482334E-008  0.2451361E+04  0.7816531E-02  0.8420521E-01
          2   -1    0    0  501    0  0.00000000000E+00  0.00000000000E+00  0.97097975102E+03  0.97097975102E+03  0.00000000000E+00 0.  1.
         -2   -1    0    0    0  501 -0.00000000000E+00 -0.00000000000E+00 -0.15471923847E+04  0.15471923847E+04  0.00000000000E+00 0. -1.
    2000013    1    1    2    0    0 -0.39874448956E+03  0.66121333168E+03 -0.34967512594E+03  0.12731743524E+04  0.95000000000E+03 0.  0.
   -2000013    1    1    2    0    0  0.39874448956E+03 -0.66121333168E+03 -0.22653750770E+03  0.12449977833E+04  0.95000000000E+03 0.  0.
<mgrwt>
<rscale>  0 0.24513608E+04</rscale>
<asrwt>0</asrwt>
<pdfrwt beam="1">  1        2 0.14938150E+00 0.24513608E+04</pdfrwt>
<pdfrwt beam="2">  1       -2 0.23802960E+00 0.24513608E+04</pdfrwt>
<totfact> 0.17942007E+00</totfact>
</mgrwt>
</event>
<event>
 4    1  0.2482334E-008  0.2707869E+04  0.7816531E-02  0.8332456E-01
          2   -1    0    0  501    0  0.00000000000E+00  0.00000000000E+00  0.70996599708E+03  0.70996599708E+03  0.00000000000E+00 0.  1.
         -2   -1    0    0    0  501 -0.00000000000E+00 -0.00000000000E+00 -0.25820097052E+04  0.25820097052E+04  0.00000000000E+00 0. -1.
    2000013    1    1    2    0    0 -0.22064640146E+03 -0.72819965848E+03 -0.21507632448E+03  0.12360086579E+04  0.95000000000E+03 0.  0.
   -2000013    1    1    2    0    0  0.22064640146E+03  0.72819965848E+03 -0.16569673837E+04  0.20559670444E+04  0.95000000000E+03 0.  0.
<mgrwt>
<rscale>  0 0.27078693E+04</rscale>
<asrwt>0</asrwt>
<pdfrwt beam="1">  1        2 0.10922554E+00 0.27078693E+04</pdfrwt>
<pdfrwt beam="2">  1       -2 0.39723226E+00 0.27078693E+04</pdfrwt>
<totfact> 0.27295626E-01</totfact>
</mgrwt>
</event>
<event>
 4    1  0.2482334E-008  0.3694856E+04  0.7816531E-02  0.8069103E-01
          2   -1    0    0  501    0  0.00000000000E+00  0.00000000000E+00  0.25421322911E+04  0.25421322911E+04  0.00000000000E+00 0.  1.
         -2   -1    0    0    0  501 -0.00000000000E+00 -0.00000000000E+00 -0.13425699509E+04  0.13425699509E+04  0.00000000000E+00 0. -1.
    2000013    1    1    2    0    0  0.90300246310E+03  0.12490014215E+04  0.98618689805E+03  0.20616698565E+04  0.95000000000E+03 0.  0.
   -2000013    1    1    2    0    0 -0.90300246310E+03 -0.12490014215E+04  0.21337544217E+03  0.18230323855E+04  0.95000000000E+03 0.  0.
<mgrwt>
<rscale>  0 0.36948561E+04</rscale>
<asrwt>0</asrwt>
<pdfrwt beam="1">  1        2 0.39109728E+00 0.36948561E+04</pdfrwt>
<pdfrwt beam="2">  1       -2 0.20654922E+00 0.36948561E+04</pdfrwt>
<totfact> 0.32070155E-01</totfact>
</mgrwt>
</event>
<event>
 4    1  0.2482334E-008  0.2121057E+04  0.7816531E-02  0.8552024E-01
         -2   -1    0    0    0  501 -0.00000000000E+00  0.00000000000E+00  0.60507145506E+03  0.60507145506E+03  0.00000000000E+00 0. -1.
          2   -1    0    0  501    0  0.00000000000E+00 -0.00000000000E+00 -0.18588237002E+04  0.18588237002E+04  0.00000000000E+00 0.  1.
    2000013    1    1    2    0    0  0.21542143883E+03 -0.39095965400E+03 -0.45083830113E+03  0.11423707897E+04  0.95000000000E+03 0.  0.
   -2000013    1    1    2    0    0 -0.21542143883E+03  0.39095965400E+03 -0.80291394406E+03  0.13215243656E+04  0.95000000000E+03 0.  0.
<mgrwt>
<rscale>  0 0.21210574E+04</rscale>
<asrwt>0</asrwt>
<pdfrwt beam="2">  1        2 0.28597288E+00 0.21210574E+04</pdfrwt>
<pdfrwt beam="1">  1       -2 0.93087916E-01 0.21210574E+04</pdfrwt>
<totfact> 0.71957740E+00</totfact>
</mgrwt>
</event>
<event>
 4    1  0.2482334E-008  0.2799443E+04  0.7816531E-02  0.8303441E-01
          1   -1    0    0  501    0  0.00000000000E+00  0.00000000000E+00  0.11533747297E+04  0.11533747297E+04  0.00000000000E+00 0.  1.
         -1   -1    0    0    0  501 -0.00000000000E+00 -0.00000000000E+00 -0.16986848806E+04  0.16986848806E+04  0.00000000000E+00 0. -1.
    2000013    1    1    2    0    0 -0.95923489188E+03  0.35459697502E+03 -0.37877435423E+03  0.14463196756E+04  0.95000000000E+03 0.  0.
   -2000013    1    1    2    0    0  0.95923489188E+03 -0.35459697502E+03 -0.16653579660E+03  0.14057399347E+04  0.95000000000E+03 0.  0.
<mgrwt>
<rscale>  0 0.27994430E+04</rscale>
<asrwt>0</asrwt>
<pdfrwt beam="1">  1        1 0.17744227E+00 0.27994430E+04</pdfrwt>
<pdfrwt beam="2">  1       -1 0.26133613E+00 0.27994430E+04</pdfrwt>
<totfact> 0.58886772E-01</totfact>
</mgrwt>
</event>
<event>
 4    1  0.2482334E-008  0.2599859E+04  0.7816531E-02  0.8368249E-01
         -2   -1    0    0    0  501 -0.00000000000E+00  0.00000000000E+00  0.64881580294E+03  0.64881580294E+03  0.00000000000E+00 0.  1.
          2   -1    0    0  501    0  0.00000000000E+00 -0.00000000000E+00 -0.26044627948E+04  0.26044627948E+04  0.00000000000E+00 0. -1.
    2000013    1    1    2    0    0 -0.87467879915E+03 -0.30651846666E+02 -0.11605092947E+04  0.17364574168E+04  0.95000000000E+03 0.  0.
   -2000013    1    1    2    0    0  0.87467879915E+03  0.30651846666E+02 -0.79513769715E+03  0.15168211809E+04  0.95000000000E+03 0.  0.
<mgrwt>
<rscale>  0 0.25998589E+04</rscale>
<asrwt>0</asrwt>
<pdfrwt beam="2">  1        2 0.40068658E+00 0.25998589E+04</pdfrwt>
<pdfrwt beam="1">  1       -2 0.99817817E-01 0.25998589E+04</pdfrwt>
<totfact> 0.22192761E+00</totfact>
</mgrwt>
</event>
<event>
 4    1  0.2482334E-008  0.3095894E+04  0.7816531E-02  0.8216866E-01
         -2   -1    0    0    0  501 -0.00000000000E+00  0.00000000000E+00  0.47481313173E+03  0.47481313173E+03  0.00000000000E+00 0. -1.
          2   -1    0    0  501    0  0.00000000000E+00 -0.00000000000E+00 -0.50464896070E+04  0.50464896070E+04  0.00000000000E+00 0.  1.
    2000013    1    1    2    0    0  0.11530177537E+04 -0.30533926585E+03 -0.27609051107E+04  0.31540099933E+04  0.95000000000E+03 0.  0.
   -2000013    1    1    2    0    0 -0.11530177537E+04  0.30533926585E+03 -0.18107713646E+04  0.23672927454E+04  0.95000000000E+03 0.  0.
<mgrwt>
<rscale>  0 0.30958938E+04</rscale>
<asrwt>0</asrwt>
<pdfrwt beam="2">  1        2 0.77638298E+00 0.30958938E+04</pdfrwt>
<pdfrwt beam="1">  1       -2 0.73048177E-01 0.30958938E+04</pdfrwt>
<totfact> 0.42929073E-02</totfact>
</mgrwt>
</event>
<event>
 4    1  0.2482334E-008  0.2271493E+04  0.7816531E-02  0.8489247E-01
         -2   -1    0    0    0  501 -0.00000000000E+00  0.00000000000E+00  0.52640951557E+03  0.52640951557E+03  0.00000000000E+00 0.  1.
          2   -1    0    0  501    0  0.00000000000E+00 -0.00000000000E+00 -0.24504114984E+04  0.24504114984E+04  0.00000000000E+00 0. -1.
    2000013    1    1    2    0    0  0.42574556032E+03  0.44272972880E+03 -0.82996372897E+03  0.14030711622E+04  0.95000000000E+03 0.  0.
   -2000013    1    1    2    0    0 -0.42574556032E+03 -0.44272972880E+03 -0.10940382538E+04  0.15737498517E+04  0.95000000000E+03 0.  0.
<mgrwt>
<rscale>  0 0.22714928E+04</rscale>
<asrwt>0</asrwt>
<pdfrwt beam="2">  1        2 0.37698638E+00 0.22714928E+04</pdfrwt>
<pdfrwt beam="1">  1       -2 0.80986079E-01 0.22714928E+04</pdfrwt>
<totfact> 0.45438482E+00</totfact>
</mgrwt>
</event>
<event>
 4    1  0.2482334E-008  0.3628239E+04  0.7816531E-02  0.8084054E-01
          2   -1    0    0  501    0  0.00000000000E+00  0.00000000000E+00  0.26720609513E+04  0.26720609513E+04  0.00000000000E+00 0.  1.
         -2   -1    0    0    0  501 -0.00000000000E+00 -0.00000000000E+00 -0.12316444241E+04  0.12316444241E+04  0.00000000000E+00 0. -1.
    2000013    1    1    2    0    0  0.90058673325E+03 -0.73497544832E+03 -0.37558831378E+03  0.15475179983E+04  0.95000000000E+03 0.  0.
   -2000013    1    1    2    0    0 -0.90058673325E+03  0.73497544832E+03  0.18160048409E+04  0.23561873771E+04  0.95000000000E+03 0.  0.
<mgrwt>
<rscale>  0 0.36282387E+04</rscale>
<asrwt>0</asrwt>
<pdfrwt beam="1">  1        2 0.41108630E+00 0.36282387E+04</pdfrwt>
<pdfrwt beam="2">  1       -2 0.18948376E+00 0.36282387E+04</pdfrwt>
<totfact> 0.35046565E-01</totfact>
</mgrwt>
</event>
<event>
 4    1  0.2482334E-008  0.2475391E+04  0.7816531E-02  0.8411806E-01
         -2   -1    0    0    0  501 -0.00000000000E+00  0.00000000000E+00  0.16575300920E+04  0.16575300920E+04  0.00000000000E+00 0.  1.
          2   -1    0    0  501    0  0.00000000000E+00 -0.00000000000E+00 -0.92420019787E+03  0.92420019787E+03  0.00000000000E+00 0. -1.
    2000013    1    1    2    0    0  0.42124232056E+03 -0.53299220008E+03  0.79397758667E+03  0.14122415467E+04  0.95000000000E+03 0.  0.
   -2000013    1    1    2    0    0 -0.42124232056E+03  0.53299220008E+03 -0.60647692507E+02  0.11694887432E+04  0.95000000000E+03 0.  0.
<mgrwt>
<rscale>  0 0.24753906E+04</rscale>
<asrwt>0</asrwt>
<pdfrwt beam="2">  1        2 0.14218465E+00 0.24753906E+04</pdfrwt>
<pdfrwt beam="1">  1       -2 0.25500463E+00 0.24753906E+04</pdfrwt>
<totfact> 0.15108709E+00</totfact>
</mgrwt>
</event>
<event>
 4    1  0.2482334E-008  0.2203383E+04  0.7816531E-02  0.8517021E-01
         -2   -1    0    0    0  501 -0.00000000000E+00  0.00000000000E+00  0.81636644604E+03  0.81636644604E+03  0.00000000000E+00 0.  1.
          2   -1    0    0  501    0  0.00000000000E+00 -0.00000000000E+00 -0.14867394886E+04  0.14867394886E+04  0.00000000000E+00 0. -1.
    2000013    1    1    2    0    0 -0.41036418425E+02  0.35855127285E+03 -0.77985943332E+03  0.12809854561E+04  0.95000000000E+03 0.  0.
   -2000013    1    1    2    0    0  0.41036418425E+02 -0.35855127285E+03  0.10948639080E+03  0.10221204785E+04  0.95000000000E+03 0.  0.
<mgrwt>
<rscale>  0 0.22033831E+04</rscale>
<asrwt>0</asrwt>
<pdfrwt beam="2">  1        2 0.22872915E+00 0.22033831E+04</pdfrwt>
<pdfrwt beam="1">  1       -2 0.12559484E+00 0.22033831E+04</pdfrwt>
<totfact> 0.55924792E+00</totfact>
</mgrwt>
</event>
<event>
 4    1  0.2482334E-008  0.2333349E+04  0.7816531E-02  0.8464887E-01
         -2   -1    0    0    0  501 -0.00000000000E+00  0.00000000000E+00  0.11585087365E+04  0.11585087365E+04  0.00000000000E+00 0. -1.
          2   -1    0    0  501    0  0.00000000000E+00 -0.00000000000E+00 -0.11748979671E+04  0.11748979671E+04  0.00000000000E+00 0.  1.
    2000013    1    1    2    0    0  0.36401148526E+03 -0.56530850283E+03 -0.89137915434E+02  0.11672718761E+04  0.95000000000E+03 0.  0.
   -2000013    1    1    2    0    0 -0.36401148526E+03  0.56530850283E+03  0.72748684765E+02  0.11661348275E+04  0.95000000000E+03 0.  0.
<mgrwt>
<rscale>  0 0.23333491E+04</rscale>
<asrwt>0</asrwt>
<pdfrwt beam="2">  1        2 0.18075353E+00 0.23333491E+04</pdfrwt>
<pdfrwt beam="1">  1       -2 0.17823211E+00 0.23333491E+04</pdfrwt>
<totfact> 0.33070086E+00</totfact>
</mgrwt>
</event>
<event>
 4    1  0.2482334E-008  0.2666614E+04  0.7816531E-02  0.8345920E-01
         -2   -1    0    0    0  501 -0.00000000000E+00  0.00000000000E+00  0.35088926510E+03  0.35088926510E+03  0.00000000000E+00 0. -1.
          2   -1    0    0  501    0  0.00000000000E+00 -0.00000000000E+00 -0.50662913033E+04  0.50662913033E+04  0.00000000000E+00 0.  1.
    2000013    1    1    2    0    0 -0.73976260461E+03  0.24835376211E+03 -0.34059913937E+04  0.36210779716E+04  0.95000000000E+03 0.  0.
   -2000013    1    1    2    0    0  0.73976260461E+03 -0.24835376211E+03 -0.13094106445E+04  0.17961025968E+04  0.95000000000E+03 0.  0.
<mgrwt>
<rscale>  0 0.26666138E+04</rscale>
<asrwt>0</asrwt>
<pdfrwt beam="2">  1        2 0.77942942E+00 0.26666138E+04</pdfrwt>
<pdfrwt beam="1">  1       -2 0.53982965E-01 0.26666138E+04</pdfrwt>
<totfact> 0.80641308E-02</totfact>
</mgrwt>
</event>
<event>
 4    1  0.2482334E-008  0.3326913E+04  0.7816531E-02  0.8156081E-01
         -2   -1    0    0    0  501 -0.00000000000E+00  0.00000000000E+00  0.20775048982E+04  0.20775048982E+04  0.00000000000E+00 0. -1.
          2   -1    0    0  501    0  0.00000000000E+00 -0.00000000000E+00 -0.13319280554E+04  0.13319280554E+04  0.00000000000E+00 0.  1.
    2000013    1    1    2    0    0  0.12436332638E+04  0.10156844362E+03 -0.19562881863E+03  0.15804146539E+04  0.95000000000E+03 0.  0.
   -2000013    1    1    2    0    0 -0.12436332638E+04 -0.10156844362E+03  0.94120566144E+03  0.18290182997E+04  0.95000000000E+03 0.  0.
<mgrwt>
<rscale>  0 0.33269127E+04</rscale>
<asrwt>0</asrwt>
<pdfrwt beam="2">  1        2 0.20491201E+00 0.33269127E+04</pdfrwt>
<pdfrwt beam="1">  1       -2 0.31961614E+00 0.33269127E+04</pdfrwt>
<totfact> 0.31772480E-01</totfact>
</mgrwt>
</event>
<event>
 4    1  0.2482334E-008  0.3411087E+04  0.7816531E-02  0.8135191E-01
          2   -1    0    0  501    0  0.00000000000E+00  0.00000000000E+00  0.30657831605E+04  0.30657831605E+04  0.00000000000E+00 0.  1.
         -2   -1    0    0    0  501 -0.00000000000E+00 -0.00000000000E+00 -0.94882062658E+03  0.94882062658E+03  0.00000000000E+00 0. -1.
    2000013    1    1    2    0    0 -0.14057813792E+04 -0.38602251413E+02  0.12577504444E+04  0.21123796061E+04  0.95000000000E+03 0.  0.
   -2000013    1    1    2    0    0  0.14057813792E+04  0.38602251413E+02  0.85921208958E+03  0.19022241810E+04  0.95000000000E+03 0.  0.
<mgrwt>
<rscale>  0 0.34110868E+04</rscale>
<asrwt>0</asrwt>
<pdfrwt beam="1">  1        2 0.47165894E+00 0.34110868E+04</pdfrwt>
<pdfrwt beam="2">  1       -2 0.14597241E+00 0.34110868E+04</pdfrwt>
<totfact> 0.42133655E-01</totfact>
</mgrwt>
</event>
<event>
 4    1  0.2482334E-008  0.2296971E+04  0.7816531E-02  0.8479117E-01
         -1   -1    0    0    0  501 -0.00000000000E+00  0.00000000000E+00  0.25463583840E+04  0.25463583840E+04  0.00000000000E+00 0. -1.
          1   -1    0    0  501    0  0.00000000000E+00 -0.00000000000E+00 -0.51800191544E+03  0.51800191544E+03  0.00000000000E+00 0.  1.
    2000013    1    1    2    0    0  0.30577761224E+03 -0.50945997795E+03  0.13502759534E+04  0.17546494144E+04  0.95000000000E+03 0.  0.
   -2000013    1    1    2    0    0 -0.30577761224E+03  0.50945997795E+03  0.67808051519E+03  0.13097108850E+04  0.95000000000E+03 0.  0.
<mgrwt>
<rscale>  0 0.22969706E+04</rscale>
<asrwt>0</asrwt>
<pdfrwt beam="2">  1        1 0.79692604E-01 0.22969706E+04</pdfrwt>
<pdfrwt beam="1">  1       -1 0.39174743E+00 0.22969706E+04</pdfrwt>
<totfact> 0.31091436E-01</totfact>
</mgrwt>
</event>
<event>
 4    1  0.2482334E-008  0.2298365E+04  0.7816531E-02  0.8478566E-01
         -2   -1    0    0    0  501 -0.00000000000E+00  0.00000000000E+00  0.90770781182E+03  0.90770781182E+03  0.00000000000E+00 0. -1.
          2   -1    0    0  501    0  0.00000000000E+00 -0.00000000000E+00 -0.14548964183E+04  0.14548964183E+04  0.00000000000E+00 0.  1.
    2000013    1    1    2    0    0 -0.50045076480E+03 -0.24912690051E+03 -0.60764740819E+03  0.12586701527E+04  0.95000000000E+03 0.  0.
   -2000013    1    1    2    0    0  0.50045076480E+03  0.24912690051E+03  0.60458801747E+02  0.11039340774E+04  0.95000000000E+03 0.  0.
<mgrwt>
<rscale>  0 0.22983654E+04</rscale>
<asrwt>0</asrwt>
<pdfrwt beam="2">  1        2 0.22383021E+00 0.22983654E+04</pdfrwt>
<pdfrwt beam="1">  1       -2 0.13964736E+00 0.22983654E+04</pdfrwt>
<totfact> 0.44142004E+00</totfact>
</mgrwt>
</event>
<event>
 4    1  0.2482334E-008  0.2119454E+04  0.7816531E-02  0.8552722E-01
         -2   -1    0    0    0  501 -0.00000000000E+00  0.00000000000E+00  0.40697739587E+03  0.40697739587E+03  0.00000000000E+00 0. -1.
          2   -1    0    0  501    0  0.00000000000E+00 -0.00000000000E+00 -0.27594190861E+04  0.27594190861E+04  0.00000000000E+00 0.  1.
    2000013    1    1    2    0    0  0.40996378021E+03 -0.21768674239E+03 -0.12825277229E+04  0.16621778421E+04  0.95000000000E+03 0.  0.
   -2000013    1    1    2    0    0 -0.40996378021E+03  0.21768674239E+03 -0.10699139673E+04  0.15042186398E+04  0.95000000000E+03 0.  0.
<mgrwt>
<rscale>  0 0.21194539E+04</rscale>
<asrwt>0</asrwt>
<pdfrwt beam="2">  1        2 0.42452600E+00 0.21194539E+04</pdfrwt>
<pdfrwt beam="1">  1       -2 0.62611908E-01 0.21194539E+04</pdfrwt>
<totfact> 0.53296773E+00</totfact>
</mgrwt>
</event>
<event>
 4    1  0.2482334E-008  0.2513829E+04  0.7816531E-02  0.8398075E-01
         -2   -1    0    0    0  501 -0.00000000000E+00  0.00000000000E+00  0.11297303496E+04  0.11297303496E+04  0.00000000000E+00 0. -1.
          2   -1    0    0  501    0  0.00000000000E+00 -0.00000000000E+00 -0.13984166906E+04  0.13984166906E+04  0.00000000000E+00 0.  1.
    2000013    1    1    2    0    0 -0.71077102420E+03  0.41152512822E+03 -0.18742063564E+03  0.12697144855E+04  0.95000000000E+03 0.  0.
   -2000013    1    1    2    0    0  0.71077102420E+03 -0.41152512822E+03 -0.81265705315E+02  0.12584325548E+04  0.95000000000E+03 0.  0.
<mgrwt>
<rscale>  0 0.25138288E+04</rscale>
<asrwt>0</asrwt>
<pdfrwt beam="2">  1        2 0.21514103E+00 0.25138288E+04</pdfrwt>
<pdfrwt beam="1">  1       -2 0.17380467E+00 0.25138288E+04</pdfrwt>
<totfact> 0.25881512E+00</totfact>
</mgrwt>
</event>
<event>
 4    1  0.2482334E-008  0.4450799E+04  0.7816531E-02  0.7919308E-01
         -2   -1    0    0    0  501 -0.00000000000E+00  0.00000000000E+00  0.10829405691E+04  0.10829405691E+04  0.00000000000E+00 0. -1.
          2   -1    0    0  501    0  0.00000000000E+00 -0.00000000000E+00 -0.45731058719E+04  0.45731058719E+04  0.00000000000E+00 0.  1.
    2000013    1    1    2    0    0  0.63443073180E+02 -0.11813685954E+04 -0.38138804765E+04  0.41046121706E+04  0.95000000000E+03 0.  0.
   -2000013    1    1    2    0    0 -0.63443073180E+02  0.11813685954E+04  0.32371517375E+03  0.15514342704E+04  0.95000000000E+03 0.  0.
<mgrwt>
<rscale>  0 0.44507985E+04</rscale>
<asrwt>0</asrwt>
<pdfrwt beam="2">  1        2 0.70355476E+00 0.44507985E+04</pdfrwt>
<pdfrwt beam="1">  1       -2 0.16660624E+00 0.44507985E+04</pdfrwt>
<totfact> 0.17682799E-02</totfact>
</mgrwt>
</event>
<event>
 4    1  0.2482334E-008  0.2053689E+04  0.7816531E-02  0.8581923E-01
          2   -1    0    0  501    0  0.00000000000E+00  0.00000000000E+00  0.18007791305E+04  0.18007791305E+04  0.00000000000E+00 0. -1.
         -2   -1    0    0    0  501 -0.00000000000E+00 -0.00000000000E+00 -0.58552973433E+03  0.58552973433E+03  0.00000000000E+00 0.  1.
    2000013    1    1    2    0    0 -0.20868342982E+03 -0.32881574034E+03  0.58958017668E+03  0.11839650965E+04  0.95000000000E+03 0.  0.
   -2000013    1    1    2    0    0  0.20868342982E+03  0.32881574034E+03  0.62566921945E+03  0.12023437683E+04  0.95000000000E+03 0.  0.
<mgrwt>
<rscale>  0 0.20536891E+04</rscale>
<asrwt>0</asrwt>
<pdfrwt beam="1">  1        2 0.27704294E+00 0.20536891E+04</pdfrwt>
<pdfrwt beam="2">  1       -2 0.90081498E-01 0.20536891E+04</pdfrwt>
<totfact> 0.84090367E+00</totfact>
</mgrwt>
</event>
<event>
 4    1  0.2482334E-008  0.2343814E+04  0.7816531E-02  0.8460843E-01
         -2   -1    0    0    0  501 -0.00000000000E+00  0.00000000000E+00  0.85439813025E+03  0.85439813025E+03  0.00000000000E+00 0. -1.
          2   -1    0    0  501    0  0.00000000000E+00 -0.00000000000E+00 -0.16074075328E+04  0.16074075328E+04  0.00000000000E+00 0.  1.
    2000013    1    1    2    0    0 -0.17341034641E+03  0.65584115850E+03 -0.48498632930E+03  0.12640848520E+04  0.95000000000E+03 0.  0.
   -2000013    1    1    2    0    0  0.17341034641E+03 -0.65584115850E+03 -0.26802307323E+03  0.11977208110E+04  0.95000000000E+03 0.  0.
<mgrwt>
<rscale>  0 0.23438140E+04</rscale>
<asrwt>0</asrwt>
<pdfrwt beam="2">  1        2 0.24729346E+00 0.23438140E+04</pdfrwt>
<pdfrwt beam="1">  1       -2 0.13144587E+00 0.23438140E+04</pdfrwt>
<totfact> 0.42144451E+00</totfact>
</mgrwt>
</event>
<event>
 4    1  0.2482334E-008  0.2404092E+04  0.7816531E-02  0.8437973E-01
          2   -1    0    0  501    0  0.00000000000E+00  0.00000000000E+00  0.24292570578E+04  0.24292570578E+04  0.00000000000E+00 0.  1.
         -2   -1    0    0    0  501 -0.00000000000E+00 -0.00000000000E+00 -0.59479686570E+03  0.59479686570E+03  0.00000000000E+00 0. -1.
    2000013    1    1    2    0    0 -0.65407918496E+03 -0.72373666315E+02  0.13331997702E+04  0.17643636686E+04  0.95000000000E+03 0.  0.
   -2000013    1    1    2    0    0  0.65407918496E+03  0.72373666315E+02  0.50126042193E+03  0.12596902549E+04  0.95000000000E+03 0.  0.
<mgrwt>
<rscale>  0 0.24040919E+04</rscale>
<asrwt>0</asrwt>
<pdfrwt beam="1">  1        2 0.37373185E+00 0.24040919E+04</pdfrwt>
<pdfrwt beam="2">  1       -2 0.91507212E-01 0.24040919E+04</pdfrwt>
<totfact> 0.34958896E+00</totfact>
</mgrwt>
</event>
<event>
 4    1  0.2482334E-008  0.2340184E+04  0.7816531E-02  0.8462244E-01
          2   -1    0    0  501    0  0.00000000000E+00  0.00000000000E+00  0.22571525218E+04  0.22571525218E+04  0.00000000000E+00 0.  1.
         -2   -1    0    0    0  501 -0.00000000000E+00 -0.00000000000E+00 -0.60656726147E+03  0.60656726147E+03  0.00000000000E+00 0. -1.
    2000013    1    1    2    0    0 -0.20441279467E+03  0.27517039944E+03  0.15483331822E+04  0.18486046041E+04  0.95000000000E+03 0.  0.
   -2000013    1    1    2    0    0  0.20441279467E+03 -0.27517039944E+03  0.10225207811E+03  0.10151151791E+04  0.95000000000E+03 0.  0.
<mgrwt>
<rscale>  0 0.23401836E+04</rscale>
<asrwt>0</asrwt>
<pdfrwt beam="1">  1        2 0.34725423E+00 0.23401836E+04</pdfrwt>
<pdfrwt beam="2">  1       -2 0.93318042E-01 0.23401836E+04</pdfrwt>
<totfact> 0.42091020E+00</totfact>
</mgrwt>
</event>
<event>
 4    1  0.2482334E-008  0.2555476E+04  0.7816531E-02  0.8383484E-01
         -1   -1    0    0    0  501 -0.00000000000E+00  0.00000000000E+00  0.10977249189E+04  0.10977249189E+04  0.00000000000E+00 0. -1.
          1   -1    0    0  501    0  0.00000000000E+00 -0.00000000000E+00 -0.14872705062E+04  0.14872705062E+04  0.00000000000E+00 0.  1.
    2000013    1    1    2    0    0  0.54852060285E+03  0.64781573013E+03 -0.95796598107E+02  0.12775825062E+04  0.95000000000E+03 0.  0.
   -2000013    1    1    2    0    0 -0.54852060285E+03 -0.64781573013E+03 -0.29374898919E+03  0.13074129189E+04  0.95000000000E+03 0.  0.
<mgrwt>
<rscale>  0 0.25554756E+04</rscale>
<asrwt>0</asrwt>
<pdfrwt beam="2">  1        1 0.22881085E+00 0.25554756E+04</pdfrwt>
<pdfrwt beam="1">  1       -1 0.16888076E+00 0.25554756E+04</pdfrwt>
<totfact> 0.14803811E+00</totfact>
</mgrwt>
</event>
<event>
 4    1  0.2482334E-008  0.3057252E+04  0.7816531E-02  0.8227569E-01
          2   -1    0    0  501    0  0.00000000000E+00  0.00000000000E+00  0.22766767555E+04  0.22766767555E+04  0.00000000000E+00 0.  1.
         -2   -1    0    0    0  501 -0.00000000000E+00 -0.00000000000E+00 -0.10263633066E+04  0.10263633066E+04  0.00000000000E+00 0. -1.
    2000013    1    1    2    0    0  0.47445171310E+03 -0.30994371095E+03  0.17649750511E+04  0.20829801879E+04  0.95000000000E+03 0.  0.
   -2000013    1    1    2    0    0 -0.47445171310E+03  0.30994371095E+03 -0.51466160212E+03  0.12200598742E+04  0.95000000000E+03 0.  0.
<mgrwt>
<rscale>  0 0.30572520E+04</rscale>
<asrwt>0</asrwt>
<pdfrwt beam="1">  1        2 0.35025796E+00 0.30572520E+04</pdfrwt>
<pdfrwt beam="2">  1       -2 0.15790205E+00 0.30572520E+04</pdfrwt>
<totfact> 0.10396587E+00</totfact>
</mgrwt>
</event>
<event>
 4    1  0.2482334E-008  0.2180141E+04  0.7816531E-02  0.8526740E-01
          2   -1    0    0  501    0  0.00000000000E+00  0.00000000000E+00  0.22151633570E+04  0.22151633570E+04  0.00000000000E+00 0.  1.
         -2   -1    0    0    0  501 -0.00000000000E+00 -0.00000000000E+00 -0.53641816421E+03  0.53641816421E+03  0.00000000000E+00 0. -1.
    2000013    1    1    2    0    0  0.10198979740E+03  0.40170417626E+03  0.12654837986E+04  0.16357620269E+04  0.95000000000E+03 0.  0.
   -2000013    1    1    2    0    0 -0.10198979740E+03 -0.40170417626E+03  0.41326139416E+03  0.11158194943E+04  0.95000000000E+03 0.  0.
<mgrwt>
<rscale>  0 0.21801412E+04</rscale>
<asrwt>0</asrwt>
<pdfrwt beam="1">  1        2 0.34079436E+00 0.21801412E+04</pdfrwt>
<pdfrwt beam="2">  1       -2 0.82525873E-01 0.21801412E+04</pdfrwt>
<totfact> 0.59726234E+00</totfact>
</mgrwt>
</event>
<event>
 4    1  0.2482334E-008  0.2450679E+04  0.7816531E-02  0.8420770E-01
          2   -1    0    0  501    0  0.00000000000E+00  0.00000000000E+00  0.93250388944E+03  0.93250388944E+03  0.00000000000E+00 0.  1.
         -2   -1    0    0    0  501 -0.00000000000E+00 -0.00000000000E+00 -0.16101350118E+04  0.16101350118E+04  0.00000000000E+00 0. -1.
    2000013    1    1    2    0    0  0.71185697828E+03 -0.25791076198E+03 -0.50513959108E+03  0.13156459726E+04  0.95000000000E+03 0.  0.
   -2000013    1    1    2    0    0 -0.71185697828E+03  0.25791076198E+03 -0.17249153128E+03  0.12269929287E+04  0.95000000000E+03 0.  0.
<mgrwt>
<rscale>  0 0.24506792E+04</rscale>
<asrwt>0</asrwt>
<pdfrwt beam="1">  1        2 0.14346214E+00 0.24506792E+04</pdfrwt>
<pdfrwt beam="2">  1       -2 0.24771308E+00 0.24506792E+04</pdfrwt>
<totfact> 0.16573060E+00</totfact>
</mgrwt>
</event>
<event>
 4    1  0.2482334E-008  0.2022677E+04  0.7816531E-02  0.8596091E-01
          2   -1    0    0  501    0  0.00000000000E+00  0.00000000000E+00  0.14359313008E+04  0.14359313008E+04  0.00000000000E+00 0.  1.
         -2   -1    0    0    0  501 -0.00000000000E+00 -0.00000000000E+00 -0.71229420916E+03  0.71229420916E+03  0.00000000000E+00 0. -1.
    2000013    1    1    2    0    0  0.65436283943E+02 -0.16457359744E+03  0.67855633558E+03  0.11808069600E+04  0.95000000000E+03 0.  0.
   -2000013    1    1    2    0    0 -0.65436283943E+02  0.16457359744E+03  0.45080756058E+02  0.96741854995E+03  0.95000000000E+03 0.  0.
<mgrwt>
<rscale>  0 0.20226770E+04</rscale>
<asrwt>0</asrwt>
<pdfrwt beam="1">  1        2 0.22091251E+00 0.20226770E+04</pdfrwt>
<pdfrwt beam="2">  1       -2 0.10958372E+00 0.20226770E+04</pdfrwt>
<totfact> 0.84886046E+00</totfact>
</mgrwt>
</event>
<event>
 4    1  0.2482334E-008  0.3223016E+04  0.7816531E-02  0.8182765E-01
         -2   -1    0    0    0  501 -0.00000000000E+00  0.00000000000E+00  0.17838846147E+04  0.17838846147E+04  0.00000000000E+00 0. -1.
          2   -1    0    0  501    0  0.00000000000E+00 -0.00000000000E+00 -0.14557876825E+04  0.14557876825E+04  0.00000000000E+00 0.  1.
    2000013    1    1    2    0    0 -0.93522526050E+03  0.89927846716E+03  0.26999337053E+03  0.16305656900E+04  0.95000000000E+03 0.  0.
   -2000013    1    1    2    0    0  0.93522526050E+03 -0.89927846716E+03  0.58103561713E+02  0.16091066072E+04  0.95000000000E+03 0.  0.
<mgrwt>
<rscale>  0 0.32230155E+04</rscale>
<asrwt>0</asrwt>
<pdfrwt beam="2">  1        2 0.22396734E+00 0.32230155E+04</pdfrwt>
<pdfrwt beam="1">  1       -2 0.27444379E+00 0.32230155E+04</pdfrwt>
<totfact> 0.51460235E-01</totfact>
</mgrwt>
</event>
<event>
 4    1  0.2482334E-008  0.3233003E+04  0.7816531E-02  0.8180155E-01
          2   -1    0    0  501    0  0.00000000000E+00  0.00000000000E+00  0.12292884050E+04  0.12292884050E+04  0.00000000000E+00 0. -1.
         -2   -1    0    0    0  501 -0.00000000000E+00 -0.00000000000E+00 -0.21256832130E+04  0.21256832130E+04  0.00000000000E+00 0.  1.
    2000013    1    1    2    0    0 -0.10454666180E+04 -0.53862247088E+03  0.14563498677E+03  0.15188232829E+04  0.95000000000E+03 0.  0.
   -2000013    1    1    2    0    0  0.10454666180E+04  0.53862247088E+03 -0.10420297947E+04  0.18361483351E+04  0.95000000000E+03 0.  0.
<mgrwt>
<rscale>  0 0.32330034E+04</rscale>
<asrwt>0</asrwt>
<pdfrwt beam="1">  1        2 0.18912129E+00 0.32330034E+04</pdfrwt>
<pdfrwt beam="2">  1       -2 0.32702818E+00 0.32330034E+04</pdfrwt>
<totfact> 0.33086785E-01</totfact>
</mgrwt>
</event>
<event>
 4    1  0.2482334E-008  0.3165196E+04  0.7816531E-02  0.8198070E-01
          2   -1    0    0  501    0  0.00000000000E+00  0.00000000000E+00  0.14027175237E+04  0.14027175237E+04  0.00000000000E+00 0.  1.
         -2   -1    0    0    0  501 -0.00000000000E+00 -0.00000000000E+00 -0.17855459661E+04  0.17855459661E+04  0.00000000000E+00 0. -1.
    2000013    1    1    2    0    0 -0.11443077254E+04  0.47379840238E+03 -0.45445238575E+03  0.16257158631E+04  0.95000000000E+03 0.  0.
   -2000013    1    1    2    0    0  0.11443077254E+04 -0.47379840238E+03  0.71623943335E+02  0.15625476267E+04  0.95000000000E+03 0.  0.
<mgrwt>
<rscale>  0 0.31651961E+04</rscale>
<asrwt>0</asrwt>
<pdfrwt beam="1">  1        2 0.21580270E+00 0.31651961E+04</pdfrwt>
<pdfrwt beam="2">  1       -2 0.27469938E+00 0.31651961E+04</pdfrwt>
<totfact> 0.55240488E-01</totfact>
</mgrwt>
</event>
<event>
 4    1  0.2482334E-008  0.2297810E+04  0.7816531E-02  0.8478785E-01
         -2   -1    0    0    0  501 -0.00000000000E+00  0.00000000000E+00  0.94712577958E+03  0.94712577958E+03  0.00000000000E+00 0. -1.
          2   -1    0    0  501    0  0.00000000000E+00 -0.00000000000E+00 -0.13936724939E+04  0.13936724939E+04  0.00000000000E+00 0.  1.
    2000013    1    1    2    0    0  0.41435213849E+03 -0.47836634876E+03 -0.35594455968E+03  0.11957084042E+04  0.95000000000E+03 0.  0.
   -2000013    1    1    2    0    0 -0.41435213849E+03  0.47836634876E+03 -0.90602154640E+02  0.11450898693E+04  0.95000000000E+03 0.  0.
<mgrwt>
<rscale>  0 0.22978104E+04</rscale>
<asrwt>0</asrwt>
<pdfrwt beam="2">  1        2 0.21441115E+00 0.22978104E+04</pdfrwt>
<pdfrwt beam="1">  1       -2 0.14571166E+00 0.22978104E+04</pdfrwt>
<totfact> 0.42809699E+00</totfact>
</mgrwt>
</event>
<event>
 4    1  0.2482334E-008  0.2566231E+04  0.7816531E-02  0.8379763E-01
          2   -1    0    0  501    0  0.00000000000E+00  0.00000000000E+00  0.21252606926E+04  0.21252606926E+04  0.00000000000E+00 0.  1.
         -2   -1    0    0    0  501 -0.00000000000E+00 -0.00000000000E+00 -0.77467458105E+03  0.77467458105E+03  0.00000000000E+00 0. -1.
    2000013    1    1    2    0    0  0.69330285907E+03 -0.35944225739E+03  0.10889819551E+04  0.16426348618E+04  0.95000000000E+03 0.  0.
   -2000013    1    1    2    0    0 -0.69330285907E+03  0.35944225739E+03  0.26160415641E+03  0.12573004118E+04  0.95000000000E+03 0.  0.
<mgrwt>
<rscale>  0 0.25662310E+04</rscale>
<asrwt>0</asrwt>
<pdfrwt beam="1">  1        2 0.32696318E+00 0.25662310E+04</pdfrwt>
<pdfrwt beam="2">  1       -2 0.11918071E+00 0.25662310E+04</pdfrwt>
<totfact> 0.27248385E+00</totfact>
</mgrwt>
</event>
<event>
 4    1  0.2482334E-008  0.2805968E+04  0.7816531E-02  0.8301418E-01
          2   -1    0    0  501    0  0.00000000000E+00  0.00000000000E+00  0.10263412369E+04  0.10263412369E+04  0.00000000000E+00 0.  1.
         -2   -1    0    0    0  501 -0.00000000000E+00 -0.00000000000E+00 -0.19178455206E+04  0.19178455206E+04  0.00000000000E+00 0. -1.
    2000013    1    1    2    0    0 -0.13761867406E+03  0.10231794357E+04 -0.44011275550E+03  0.14703857639E+04  0.95000000000E+03 0.  0.
   -2000013    1    1    2    0    0  0.13761867406E+03 -0.10231794357E+04 -0.45139152828E+03  0.14738009936E+04  0.95000000000E+03 0.  0.
<mgrwt>
<rscale>  0 0.28059679E+04</rscale>
<asrwt>0</asrwt>
<pdfrwt beam="1">  1        2 0.15789865E+00 0.28059679E+04</pdfrwt>
<pdfrwt beam="2">  1       -2 0.29505316E+00 0.28059679E+04</pdfrwt>
<totfact> 0.71811923E-01</totfact>
</mgrwt>
</event>
<event>
 4    1  0.2482334E-008  0.2312258E+04  0.7816531E-02  0.8473103E-01
         -1   -1    0    0    0  501 -0.00000000000E+00  0.00000000000E+00  0.65962013971E+03  0.65962013971E+03  0.00000000000E+00 0. -1.
          1   -1    0    0  501    0  0.00000000000E+00 -0.00000000000E+00 -0.20263702178E+04  0.20263702178E+04  0.00000000000E+00 0.  1.
    2000013    1    1    2    0    0  0.20780445288E+03  0.56253515436E+03 -0.10004515453E+04  0.15043376566E+04  0.95000000000E+03 0.  0.
   -2000013    1    1    2    0    0 -0.20780445288E+03 -0.56253515436E+03 -0.36629853279E+03  0.11816527009E+04  0.95000000000E+03 0.  0.
<mgrwt>
<rscale>  0 0.23122583E+04</rscale>
<asrwt>0</asrwt>
<pdfrwt beam="2">  1        1 0.31174926E+00 0.23122583E+04</pdfrwt>
<pdfrwt beam="1">  1       -1 0.10148002E+00 0.23122583E+04</pdfrwt>
<totfact> 0.23787590E+00</totfact>
</mgrwt>
</event>
<event>
 4    1  0.2482334E-008  0.3119602E+04  0.7816531E-02  0.8210379E-01
         -2   -1    0    0    0  501 -0.00000000000E+00  0.00000000000E+00  0.23785212553E+04  0.23785212553E+04  0.00000000000E+00 0. -1.
          2   -1    0    0  501    0  0.00000000000E+00 -0.00000000000E+00 -0.10228956400E+04  0.10228956400E+04  0.00000000000E+00 0.  1.
    2000013    1    1    2    0    0 -0.95418764965E+03 -0.62101512452E+03  0.14998935103E+03  0.14903458193E+04  0.95000000000E+03 0.  0.
   -2000013    1    1    2    0    0  0.95418764965E+03  0.62101512452E+03  0.12056362643E+04  0.19110710760E+04  0.95000000000E+03 0.  0.
<mgrwt>
<rscale>  0 0.31196019E+04</rscale>
<asrwt>0</asrwt>
<pdfrwt beam="2">  1        2 0.15736856E+00 0.31196019E+04</pdfrwt>
<pdfrwt beam="1">  1       -2 0.36592635E+00 0.31196019E+04</pdfrwt>
<totfact> 0.25434921E-01</totfact>
</mgrwt>
</event>
<event>
 4    1  0.2482334E-008  0.2297754E+04  0.7816531E-02  0.8478807E-01
         -2   -1    0    0    0  501 -0.00000000000E+00  0.00000000000E+00  0.74578847983E+03  0.74578847983E+03  0.00000000000E+00 0. -1.
          2   -1    0    0  501    0  0.00000000000E+00 -0.00000000000E+00 -0.17698293052E+04  0.17698293052E+04  0.00000000000E+00 0.  1.
    2000013    1    1    2    0    0 -0.17881185666E+03  0.61926539579E+03 -0.46361274730E+03  0.12381034246E+04  0.95000000000E+03 0.  0.
   -2000013    1    1    2    0    0  0.17881185666E+03 -0.61926539579E+03 -0.56042807809E+03  0.12775143605E+04  0.95000000000E+03 0.  0.
<mgrwt>
<rscale>  0 0.22977540E+04</rscale>
<asrwt>0</asrwt>
<pdfrwt beam="2">  1        2 0.27228143E+00 0.22977540E+04</pdfrwt>
<pdfrwt beam="1">  1       -2 0.11473669E+00 0.22977540E+04</pdfrwt>
<totfact> 0.48224119E+00</totfact>
</mgrwt>
</event>
<event>
 4    1  0.2482334E-008  0.2271626E+04  0.7816531E-02  0.8489193E-01
          2   -1    0    0  501    0  0.00000000000E+00  0.00000000000E+00  0.12927153141E+04  0.12927153141E+04  0.00000000000E+00 0.  1.
         -2   -1    0    0    0  501 -0.00000000000E+00 -0.00000000000E+00 -0.99795435885E+03  0.99795435885E+03  0.00000000000E+00 0. -1.
    2000013    1    1    2    0    0 -0.39016809957E+03  0.48263364772E+03  0.97933705333E+02  0.11389720780E+04  0.95000000000E+03 0.  0.
   -2000013    1    1    2    0    0  0.39016809957E+03 -0.48263364772E+03  0.19682724989E+03  0.11516975949E+04  0.95000000000E+03 0.  0.
<mgrwt>
<rscale>  0 0.22716257E+04</rscale>
<asrwt>0</asrwt>
<pdfrwt beam="1">  1        2 0.19887928E+00 0.22716257E+04</pdfrwt>
<pdfrwt beam="2">  1       -2 0.15353144E+00 0.22716257E+04</pdfrwt>
<totfact> 0.42726554E+00</totfact>
</mgrwt>
</event>
<event>
 4    1  0.2482334E-008  0.2251501E+04  0.7816531E-02  0.8497293E-01
         -2   -1    0    0    0  501 -0.00000000000E+00  0.00000000000E+00  0.11270417031E+04  0.11270417031E+04  0.00000000000E+00 0. -1.
          2   -1    0    0  501    0  0.00000000000E+00 -0.00000000000E+00 -0.11244603757E+04  0.11244603757E+04  0.00000000000E+00 0.  1.
    2000013    1    1    2    0    0  0.20570590291E+03  0.49508165011E+03  0.27948678142E+03  0.11260699888E+04  0.95000000000E+03 0.  0.
   -2000013    1    1    2    0    0 -0.20570590291E+03 -0.49508165011E+03 -0.27690545401E+03  0.11254320900E+04  0.95000000000E+03 0.  0.
<mgrwt>
<rscale>  0 0.22515006E+04</rscale>
<asrwt>0</asrwt>
<pdfrwt beam="2">  1        2 0.17299390E+00 0.22515006E+04</pdfrwt>
<pdfrwt beam="1">  1       -2 0.17339103E+00 0.22515006E+04</pdfrwt>
<totfact> 0.38627373E+00</totfact>
</mgrwt>
</event>
<event>
 4    1  0.2482334E-008  0.2906453E+04  0.7816531E-02  0.8270960E-01
          2   -1    0    0  501    0  0.00000000000E+00  0.00000000000E+00  0.21148700176E+04  0.21148700176E+04  0.00000000000E+00 0.  1.
         -2   -1    0    0    0  501 -0.00000000000E+00 -0.00000000000E+00 -0.99858049903E+03  0.99858049903E+03  0.00000000000E+00 0. -1.
    2000013    1    1    2    0    0  0.20072274398E+03 -0.68470846535E+03  0.14545532752E+04  0.18781215437E+04  0.95000000000E+03 0.  0.
   -2000013    1    1    2    0    0 -0.20072274398E+03  0.68470846535E+03 -0.33826375657E+03  0.12353289730E+04  0.95000000000E+03 0.  0.
<mgrwt>
<rscale>  0 0.29064535E+04</rscale>
<asrwt>0</asrwt>
<pdfrwt beam="1">  1        2 0.32536462E+00 0.29064535E+04</pdfrwt>
<pdfrwt beam="2">  1       -2 0.15362777E+00 0.29064535E+04</pdfrwt>
<totfact> 0.13979699E+00</totfact>
</mgrwt>
</event>
<event>
 4    1  0.2482334E-008  0.2365289E+04  0.7816531E-02  0.8452614E-01
          2   -1    0    0  501    0  0.00000000000E+00  0.00000000000E+00  0.39456946542E+04  0.39456946542E+04  0.00000000000E+00 0.  1.
         -2   -1    0    0    0  501 -0.00000000000E+00 -0.00000000000E+00 -0.35447447356E+03  0.35447447356E+03  0.00000000000E+00 0. -1.
    2000013    1    1    2    0    0 -0.28264009703E+03 -0.63434786162E+03  0.15815343057E+04  0.19713024613E+04  0.95000000000E+03 0.  0.
   -2000013    1    1    2    0    0  0.28264009703E+03  0.63434786162E+03  0.20096858750E+04  0.23288666664E+04  0.95000000000E+03 0.  0.
<mgrwt>
<rscale>  0 0.23652890E+04</rscale>
<asrwt>0</asrwt>
<pdfrwt beam="1">  1        2 0.60702992E+00 0.23652890E+04</pdfrwt>
<pdfrwt beam="2">  1       -2 0.54534537E-01 0.23652890E+04</pdfrwt>
<totfact> 0.10844720E+00</totfact>
</mgrwt>
</event>
<event>
 4    1  0.2482334E-008  0.2667783E+04  0.7816531E-02  0.8345535E-01
         -2   -1    0    0    0  501 -0.00000000000E+00  0.00000000000E+00  0.12413295968E+04  0.12413295968E+04  0.00000000000E+00 0. -1.
          2   -1    0    0  501    0  0.00000000000E+00 -0.00000000000E+00 -0.14333554182E+04  0.14333554182E+04  0.00000000000E+00 0.  1.
    2000013    1    1    2    0    0 -0.61653600824E+03 -0.69195742537E+03 -0.22994285520E+03  0.13469578481E+04  0.95000000000E+03 0.  0.
   -2000013    1    1    2    0    0  0.61653600824E+03  0.69195742537E+03  0.37917033805E+02  0.13277271668E+04  0.95000000000E+03 0.  0.
<mgrwt>
<rscale>  0 0.26677830E+04</rscale>
<asrwt>0</asrwt>
<pdfrwt beam="2">  1        2 0.22051622E+00 0.26677830E+04</pdfrwt>
<pdfrwt beam="1">  1       -2 0.19097378E+00 0.26677830E+04</pdfrwt>
<totfact> 0.18602339E+00</totfact>
</mgrwt>
</event>
<event>
 4    1  0.2482334E-008  0.2682427E+04  0.7816531E-02  0.8340729E-01
          2   -1    0    0  501    0  0.00000000000E+00  0.00000000000E+00  0.42810214155E+04  0.42810214155E+04  0.00000000000E+00 0.  1.
         -2   -1    0    0    0  501 -0.00000000000E+00 -0.00000000000E+00 -0.42019276286E+03  0.42019276286E+03  0.00000000000E+00 0. -1.
    2000013    1    1    2    0    0 -0.86920754184E+03 -0.14238684760E+03  0.25389427768E+04  0.28503554496E+04  0.95000000000E+03 0.  0.
   -2000013    1    1    2    0    0  0.86920754184E+03  0.14238684760E+03  0.13218858759E+04  0.18508587288E+04  0.95000000000E+03 0.  0.
<mgrwt>
<rscale>  0 0.26824274E+04</rscale>
<asrwt>0</asrwt>
<pdfrwt beam="1">  1        2 0.65861865E+00 0.26824274E+04</pdfrwt>
<pdfrwt beam="2">  1       -2 0.64645043E-01 0.26824274E+04</pdfrwt>
<totfact> 0.38376331E-01</totfact>
</mgrwt>
</event>
<event>
 4    1  0.2482334E-008  0.3169755E+04  0.7816531E-02  0.8196851E-01
          2   -1    0    0  501    0  0.00000000000E+00  0.00000000000E+00  0.22784753201E+04  0.22784753201E+04  0.00000000000E+00 0.  1.
         -2   -1    0    0    0  501 -0.00000000000E+00 -0.00000000000E+00 -0.11024197858E+04  0.11024197858E+04  0.00000000000E+00 0. -1.
    2000013    1    1    2    0    0  0.42141891548E+03  0.10339311731E+04  0.12304151430E+04  0.19139041244E+04  0.95000000000E+03 0.  0.
   -2000013    1    1    2    0    0 -0.42141891548E+03 -0.10339311731E+04 -0.54359608696E+02  0.14669909816E+04  0.95000000000E+03 0.  0.
<mgrwt>
<rscale>  0 0.31697547E+04</rscale>
<asrwt>0</asrwt>
<pdfrwt beam="1">  1        2 0.35053466E+00 0.31697547E+04</pdfrwt>
<pdfrwt beam="2">  1       -2 0.16960304E+00 0.31697547E+04</pdfrwt>
<totfact> 0.84438130E-01</totfact>
</mgrwt>
</event>
<event>
 4    1  0.2482334E-008  0.2006259E+04  0.7816531E-02  0.8603700E-01
         -2   -1    0    0    0  501 -0.00000000000E+00  0.00000000000E+00  0.78213324999E+03  0.78213324999E+03  0.00000000000E+00 0. -1.
          2   -1    0    0  501    0  0.00000000000E+00 -0.00000000000E+00 -0.12865701273E+04  0.12865701273E+04  0.00000000000E+00 0.  1.
    2000013    1    1    2    0    0 -0.18884744905E+02 -0.32062828956E+03 -0.22674859053E+03  0.10281410686E+04  0.95000000000E+03 0.  0.
   -2000013    1    1    2    0    0  0.18884744905E+02  0.32062828956E+03 -0.27768828679E+03  0.10405623087E+04  0.95000000000E+03 0.  0.
<mgrwt>
<rscale>  0 0.20062595E+04</rscale>
<asrwt>0</asrwt>
<pdfrwt beam="2">  1        2 0.19793386E+00 0.20062595E+04</pdfrwt>
<pdfrwt beam="1">  1       -2 0.12032819E+00 0.20062595E+04</pdfrwt>
<totfact> 0.82453389E+00</totfact>
</mgrwt>
</event>
<event>
 4    1  0.2482334E-008  0.2814916E+04  0.7816531E-02  0.8298652E-01
         -2   -1    0    0    0  501 -0.00000000000E+00  0.00000000000E+00  0.89773622289E+03  0.89773622289E+03  0.00000000000E+00 0. -1.
          2   -1    0    0  501    0  0.00000000000E+00 -0.00000000000E+00 -0.22065928768E+04  0.22065928768E+04  0.00000000000E+00 0.  1.
    2000013    1    1    2    0    0 -0.36146717525E+03  0.88784284484E+03 -0.10948847356E+04  0.17378711172E+04  0.95000000000E+03 0.  0.
   -2000013    1    1    2    0    0  0.36146717525E+03 -0.88784284484E+03 -0.21397191828E+03  0.13664579824E+04  0.95000000000E+03 0.  0.
<mgrwt>
<rscale>  0 0.28149162E+04</rscale>
<asrwt>0</asrwt>
<pdfrwt beam="2">  1        2 0.33947582E+00 0.28149162E+04</pdfrwt>
<pdfrwt beam="1">  1       -2 0.13811327E+00 0.28149162E+04</pdfrwt>
<totfact> 0.16553522E+00</totfact>
</mgrwt>
</event>
<event>
 4    1  0.2482334E-008  0.2355700E+04  0.7816531E-02  0.8456277E-01
         -2   -1    0    0    0  501 -0.00000000000E+00  0.00000000000E+00  0.78372560200E+03  0.78372560200E+03  0.00000000000E+00 0. -1.
          2   -1    0    0  501    0  0.00000000000E+00 -0.00000000000E+00 -0.17701745875E+04  0.17701745875E+04  0.00000000000E+00 0.  1.
    2000013    1    1    2    0    0 -0.14406668134E+03  0.67947283994E+03 -0.44019487675E+03  0.12564673010E+04  0.95000000000E+03 0.  0.
   -2000013    1    1    2    0    0  0.14406668134E+03 -0.67947283994E+03 -0.54625410874E+03  0.12974328885E+04  0.95000000000E+03 0.  0.
<mgrwt>
<rscale>  0 0.23557004E+04</rscale>
<asrwt>0</asrwt>
<pdfrwt beam="2">  1        2 0.27233455E+00 0.23557004E+04</pdfrwt>
<pdfrwt beam="1">  1       -2 0.12057317E+00 0.23557004E+04</pdfrwt>
<totfact> 0.42456530E+00</totfact>
</mgrwt>
</event>
<event>
 4    1  0.2482334E-008  0.2272745E+04  0.7816531E-02  0.8488746E-01
         -2   -1    0    0    0  501 -0.00000000000E+00  0.00000000000E+00  0.69790581240E+03  0.69790581240E+03  0.00000000000E+00 0. -1.
          2   -1    0    0  501    0  0.00000000000E+00 -0.00000000000E+00 -0.18503097693E+04  0.18503097693E+04  0.00000000000E+00 0.  1.
    2000013    1    1    2    0    0  0.58321275221E+03  0.20325208539E+03 -0.67260889184E+03  0.13177068133E+04  0.95000000000E+03 0.  0.
   -2000013    1    1    2    0    0 -0.58321275221E+03 -0.20325208539E+03 -0.47979506509E+03  0.12305087684E+04  0.95000000000E+03 0.  0.
<mgrwt>
<rscale>  0 0.22727445E+04</rscale>
<asrwt>0</asrwt>
<pdfrwt beam="2">  1        2 0.28466304E+00 0.22727445E+04</pdfrwt>
<pdfrwt beam="1">  1       -2 0.10737013E+00 0.22727445E+04</pdfrwt>
<totfact> 0.51216428E+00</totfact>
</mgrwt>
</event>
<event>
 4    1  0.2482334E-008  0.2251264E+04  0.7816531E-02  0.8497389E-01
          2   -1    0    0  501    0  0.00000000000E+00  0.00000000000E+00  0.19037300098E+04  0.19037300098E+04  0.00000000000E+00 0.  1.
         -2   -1    0    0    0  501 -0.00000000000E+00 -0.00000000000E+00 -0.66556023050E+03  0.66556023050E+03  0.00000000000E+00 0. -1.
    2000013    1    1    2    0    0  0.19666251696E+03  0.47236059666E+03  0.98490697292E+03  0.14609388845E+04  0.95000000000E+03 0.  0.
   -2000013    1    1    2    0    0 -0.19666251696E+03 -0.47236059666E+03  0.25326280638E+03  0.11083513558E+04  0.95000000000E+03 0.  0.
<mgrwt>
<rscale>  0 0.22512636E+04</rscale>
<asrwt>0</asrwt>
<pdfrwt beam="1">  1        2 0.29288154E+00 0.22512636E+04</pdfrwt>
<pdfrwt beam="2">  1       -2 0.10239388E+00 0.22512636E+04</pdfrwt>
<totfact> 0.53703145E+00</totfact>
</mgrwt>
</event>
<event>
 4    1  0.2482334E-008  0.2932975E+04  0.7816531E-02  0.8263133E-01
          2   -1    0    0  501    0  0.00000000000E+00  0.00000000000E+00  0.28352558512E+04  0.28352558512E+04  0.00000000000E+00 0. -1.
         -2   -1    0    0    0  501 -0.00000000000E+00 -0.00000000000E+00 -0.75851558464E+03  0.75851558464E+03  0.00000000000E+00 0.  1.
    2000013    1    1    2    0    0 -0.59197459966E+03  0.94734650627E+03  0.10216404264E+04  0.17872180870E+04  0.95000000000E+03 0.  0.
   -2000013    1    1    2    0    0  0.59197459966E+03 -0.94734650627E+03  0.10550998402E+04  0.18065533489E+04  0.95000000000E+03 0.  0.
<mgrwt>
<rscale>  0 0.29329751E+04</rscale>
<asrwt>0</asrwt>
<pdfrwt beam="1">  1        2 0.43619320E+00 0.29329751E+04</pdfrwt>
<pdfrwt beam="2">  1       -2 0.11669471E+00 0.29329751E+04</pdfrwt>
<totfact> 0.10773839E+00</totfact>
</mgrwt>
</event>
<event>
 4    1  0.2482334E-008  0.2119439E+04  0.7816531E-02  0.8552728E-01
          2   -1    0    0  501    0  0.00000000000E+00  0.00000000000E+00  0.21405073871E+04  0.21405073871E+04  0.00000000000E+00 0.  1.
         -2   -1    0    0    0  501 -0.00000000000E+00 -0.00000000000E+00 -0.52464451155E+03  0.52464451155E+03  0.00000000000E+00 0. -1.
    2000013    1    1    2    0    0  0.12844228200E+03  0.44635227877E+03  0.89484937006E+03  0.13852736811E+04  0.95000000000E+03 0.  0.
   -2000013    1    1    2    0    0 -0.12844228200E+03 -0.44635227877E+03  0.72101350550E+03  0.12798782175E+04  0.95000000000E+03 0.  0.
<mgrwt>
<rscale>  0 0.21194390E+04</rscale>
<asrwt>0</asrwt>
<pdfrwt beam="1">  1        2 0.32930882E+00 0.21194390E+04</pdfrwt>
<pdfrwt beam="2">  1       -2 0.80714541E-01 0.21194390E+04</pdfrwt>
<totfact> 0.69515583E+00</totfact>
</mgrwt>
</event>
<event>
 4    1  0.2482334E-008  0.2830058E+04  0.7816531E-02  0.8293997E-01
         -2   -1    0    0    0  501 -0.00000000000E+00  0.00000000000E+00  0.18356415161E+04  0.18356415161E+04  0.00000000000E+00 0. -1.
          2   -1    0    0  501    0  0.00000000000E+00 -0.00000000000E+00 -0.10907940272E+04  0.10907940272E+04  0.00000000000E+00 0.  1.
    2000013    1    1    2    0    0 -0.81790679425E+03  0.34755898687E+03  0.94819653731E+03  0.16097656497E+04  0.95000000000E+03 0.  0.
   -2000013    1    1    2    0    0  0.81790679425E+03 -0.34755898687E+03 -0.20334904838E+03  0.13166698937E+04  0.95000000000E+03 0.  0.
<mgrwt>
<rscale>  0 0.28300578E+04</rscale>
<asrwt>0</asrwt>
<pdfrwt beam="2">  1        2 0.16781447E+00 0.28300578E+04</pdfrwt>
<pdfrwt beam="1">  1       -2 0.28240639E+00 0.28300578E+04</pdfrwt>
<totfact> 0.78006060E-01</totfact>
</mgrwt>
</event>
<event>
 4    1  0.2482334E-008  0.2850028E+04  0.7816531E-02  0.8287903E-01
          1   -1    0    0  501    0  0.00000000000E+00  0.00000000000E+00  0.10921663881E+04  0.10921663881E+04  0.00000000000E+00 0.  1.
         -1   -1    0    0    0  501 -0.00000000000E+00 -0.00000000000E+00 -0.18592994813E+04  0.18592994813E+04  0.00000000000E+00 0. -1.
    2000013    1    1    2    0    0  0.31359900171E+03  0.91671705447E+03  0.67183614319E+02  0.13585757726E+04  0.95000000000E+03 0.  0.
   -2000013    1    1    2    0    0 -0.31359900171E+03 -0.91671705447E+03 -0.83431670751E+03  0.15928900967E+04  0.95000000000E+03 0.  0.
<mgrwt>
<rscale>  0 0.28500276E+04</rscale>
<asrwt>0</asrwt>
<pdfrwt beam="1">  1        1 0.16802560E+00 0.28500276E+04</pdfrwt>
<pdfrwt beam="2">  1       -1 0.28604607E+00 0.28500276E+04</pdfrwt>
<totfact> 0.45056522E-01</totfact>
</mgrwt>
</event>
<event>
 4    1  0.2482334E-008  0.2097356E+04  0.7816531E-02  0.8562409E-01
         -2   -1    0    0    0  501 -0.00000000000E+00  0.00000000000E+00  0.55559990948E+03  0.55559990948E+03  0.00000000000E+00 0. -1.
          2   -1    0    0  501    0  0.00000000000E+00 -0.00000000000E+00 -0.19793487264E+04  0.19793487264E+04  0.00000000000E+00 0.  1.
    2000013    1    1    2    0    0 -0.44097268671E+03 -0.47046705181E+02 -0.68338354946E+03  0.12514724841E+04  0.95000000000E+03 0.  0.
   -2000013    1    1    2    0    0  0.44097268671E+03  0.47046705181E+02 -0.74036526750E+03  0.12834761518E+04  0.95000000000E+03 0.  0.
<mgrwt>
<rscale>  0 0.20973564E+04</rscale>
<asrwt>0</asrwt>
<pdfrwt beam="2">  1        2 0.30451519E+00 0.20973564E+04</pdfrwt>
<pdfrwt beam="1">  1       -2 0.85476909E-01 0.20973564E+04</pdfrwt>
<totfact> 0.75219818E+00</totfact>
</mgrwt>
</event>
<event>
 4    1  0.2482334E-008  0.2898574E+04  0.7816531E-02  0.8273302E-01
          2   -1    0    0  501    0  0.00000000000E+00  0.00000000000E+00  0.35382876647E+04  0.35382876647E+04  0.00000000000E+00 0.  1.
         -2   -1    0    0    0  501 -0.00000000000E+00 -0.00000000000E+00 -0.59362977781E+03  0.59362977781E+03  0.00000000000E+00 0. -1.
    2000013    1    1    2    0    0 -0.87146725259E+02  0.64680487494E+03  0.21984903247E+03  0.11733646897E+04  0.95000000000E+03 0.  0.
   -2000013    1    1    2    0    0  0.87146725259E+02 -0.64680487494E+03  0.27248088544E+04  0.29585527528E+04  0.95000000000E+03 0.  0.
<mgrwt>
<rscale>  0 0.28985741E+04</rscale>
<asrwt>0</asrwt>
<pdfrwt beam="1">  1        2 0.54435193E+00 0.28985741E+04</pdfrwt>
<pdfrwt beam="2">  1       -2 0.91327661E-01 0.28985741E+04</pdfrwt>
<totfact> 0.67342632E-01</totfact>
</mgrwt>
</event>
<event>
 4    1  0.2482334E-008  0.2711199E+04  0.7816531E-02  0.8331380E-01
         -2   -1    0    0    0  501 -0.00000000000E+00  0.00000000000E+00  0.63959532568E+03  0.63959532568E+03  0.00000000000E+00 0. -1.
          2   -1    0    0  501    0  0.00000000000E+00 -0.00000000000E+00 -0.28731447594E+04  0.28731447594E+04  0.00000000000E+00 0.  1.
    2000013    1    1    2    0    0 -0.48400458826E+03  0.65416739236E+03 -0.17936829356E+04  0.21867770558E+04  0.95000000000E+03 0.  0.
   -2000013    1    1    2    0    0  0.48400458826E+03 -0.65416739236E+03 -0.43986649817E+03  0.13259630292E+04  0.95000000000E+03 0.  0.
<mgrwt>
<rscale>  0 0.27111990E+04</rscale>
<asrwt>0</asrwt>
<pdfrwt beam="2">  1        2 0.44202226E+00 0.27111990E+04</pdfrwt>
<pdfrwt beam="1">  1       -2 0.98399283E-01 0.27111990E+04</pdfrwt>
<totfact> 0.15691395E+00</totfact>
</mgrwt>
</event>
<event>
 4    1  0.2482334E-008  0.2763403E+04  0.7816531E-02  0.8314721E-01
          2   -1    0    0  501    0  0.00000000000E+00  0.00000000000E+00  0.28961939895E+04  0.28961939895E+04  0.00000000000E+00 0.  1.
         -2   -1    0    0    0  501 -0.00000000000E+00 -0.00000000000E+00 -0.65917510462E+03  0.65917510462E+03  0.00000000000E+00 0. -1.
    2000013    1    1    2    0    0 -0.47452038155E+03 -0.58472164410E+03  0.19714813495E+04  0.23143698289E+04  0.95000000000E+03 0.  0.
   -2000013    1    1    2    0    0  0.47452038155E+03  0.58472164410E+03  0.26553753539E+03  0.12409992652E+04  0.95000000000E+03 0.  0.
<mgrwt>
<rscale>  0 0.27634030E+04</rscale>
<asrwt>0</asrwt>
<pdfrwt beam="1">  1        2 0.44556830E+00 0.27634030E+04</pdfrwt>
<pdfrwt beam="2">  1       -2 0.10141156E+00 0.27634030E+04</pdfrwt>
<totfact> 0.14078829E+00</totfact>
</mgrwt>
</event>
<event>
 4    1  0.2482334E-008  0.2155838E+04  0.7816531E-02  0.8537038E-01
         -2   -1    0    0    0  501 -0.00000000000E+00  0.00000000000E+00  0.71266559358E+03  0.71266559358E+03  0.00000000000E+00 0. -1.
          2   -1    0    0  501    0  0.00000000000E+00 -0.00000000000E+00 -0.16303703885E+04  0.16303703885E+04  0.00000000000E+00 0.  1.
    2000013    1    1    2    0    0  0.22067582818E+03  0.44559106966E+03 -0.33900637895E+03  0.11245774973E+04  0.95000000000E+03 0.  0.
   -2000013    1    1    2    0    0 -0.22067582818E+03 -0.44559106966E+03 -0.57869841599E+03  0.12184584848E+04  0.95000000000E+03 0.  0.
<mgrwt>
<rscale>  0 0.21558375E+04</rscale>
<asrwt>0</asrwt>
<pdfrwt beam="2">  1        2 0.25082621E+00 0.21558375E+04</pdfrwt>
<pdfrwt beam="1">  1       -2 0.10964086E+00 0.21558375E+04</pdfrwt>
<totfact> 0.65157379E+00</totfact>
</mgrwt>
</event>
<event>
 4    1  0.2482334E-008  0.2137105E+04  0.7816531E-02  0.8545072E-01
         -2   -1    0    0    0  501 -0.00000000000E+00  0.00000000000E+00  0.10060248842E+04  0.10060248842E+04  0.00000000000E+00 0. -1.
          2   -1    0    0  501    0  0.00000000000E+00 -0.00000000000E+00 -0.11349668078E+04  0.11349668078E+04  0.00000000000E+00 0.  1.
    2000013    1    1    2    0    0  0.37627603125E+03 -0.58399134359E+02 -0.37212996066E+03  0.10890247096E+04  0.95000000000E+03 0.  0.
   -2000013    1    1    2    0    0 -0.37627603125E+03  0.58399134359E+02  0.24318803705E+03  0.10519669823E+04  0.95000000000E+03 0.  0.
<mgrwt>
<rscale>  0 0.21371054E+04</rscale>
<asrwt>0</asrwt>
<pdfrwt beam="2">  1        2 0.17461028E+00 0.21371054E+04</pdfrwt>
<pdfrwt beam="1">  1       -2 0.15477306E+00 0.21371054E+04</pdfrwt>
<totfact> 0.52504961E+00</totfact>
</mgrwt>
</event>
<event>
 4    1  0.2482334E-008  0.2853330E+04  0.7816531E-02  0.8286900E-01
         -2   -1    0    0    0  501 -0.00000000000E+00  0.00000000000E+00  0.30859751459E+04  0.30859751459E+04  0.00000000000E+00 0. -1.
          2   -1    0    0  501    0  0.00000000000E+00 -0.00000000000E+00 -0.65955584390E+03  0.65955584390E+03  0.00000000000E+00 0.  1.
    2000013    1    1    2    0    0  0.75383969237E+02  0.79381570572E+03  0.21386747648E+04  0.24722976898E+04  0.95000000000E+03 0.  0.
   -2000013    1    1    2    0    0 -0.75383969237E+02 -0.79381570572E+03  0.28774453718E+03  0.12732333000E+04  0.95000000000E+03 0.  0.
<mgrwt>
<rscale>  0 0.28533299E+04</rscale>
<asrwt>0</asrwt>
<pdfrwt beam="2">  1        2 0.10147013E+00 0.28533299E+04</pdfrwt>
<pdfrwt beam="1">  1       -2 0.47476540E+00 0.28533299E+04</pdfrwt>
<totfact> 0.91115752E-02</totfact>
</mgrwt>
</event>
<event>
 4    1  0.2482334E-008  0.2061906E+04  0.7816531E-02  0.8578212E-01
          2   -1    0    0  501    0  0.00000000000E+00  0.00000000000E+00  0.12755971943E+04  0.12755971943E+04  0.00000000000E+00 0.  1.
         -2   -1    0    0    0  501 -0.00000000000E+00 -0.00000000000E+00 -0.83322853355E+03  0.83322853355E+03  0.00000000000E+00 0. -1.
    2000013    1    1    2    0    0 -0.52990770869E+02  0.38911253735E+03  0.14099487353E+03  0.10375915106E+04  0.95000000000E+03 0.  0.
   -2000013    1    1    2    0    0  0.52990770869E+02 -0.38911253735E+03  0.30137378720E+03  0.10712342172E+04  0.95000000000E+03 0.  0.
<mgrwt>
<rscale>  0 0.20619059E+04</rscale>
<asrwt>0</asrwt>
<pdfrwt beam="1">  1        2 0.19624572E+00 0.20619059E+04</pdfrwt>
<pdfrwt beam="2">  1       -2 0.12818900E+00 0.20619059E+04</pdfrwt>
<totfact> 0.71079442E+00</totfact>
</mgrwt>
</event>
<event>
 4    1  0.2482334E-008  0.2203904E+04  0.7816531E-02  0.8516805E-01
         -1   -1    0    0    0  501 -0.00000000000E+00  0.00000000000E+00  0.68042028873E+03  0.68042028873E+03  0.00000000000E+00 0. -1.
          1   -1    0    0  501    0  0.00000000000E+00 -0.00000000000E+00 -0.17846302624E+04  0.17846302624E+04  0.00000000000E+00 0.  1.
    2000013    1    1    2    0    0 -0.49322047135E+03  0.26177067680E+03 -0.55533079204E+03  0.12339702627E+04  0.95000000000E+03 0.  0.
   -2000013    1    1    2    0    0  0.49322047135E+03 -0.26177067680E+03 -0.54887918166E+03  0.12310802885E+04  0.95000000000E+03 0.  0.
<mgrwt>
<rscale>  0 0.22039044E+04</rscale>
<asrwt>0</asrwt>
<pdfrwt beam="2">  1        1 0.27455850E+00 0.22039044E+04</pdfrwt>
<pdfrwt beam="1">  1       -1 0.10468005E+00 0.22039044E+04</pdfrwt>
<totfact> 0.32609307E+00</totfact>
</mgrwt>
</event>
<event>
 4    1  0.2482334E-008  0.2520990E+04  0.7816531E-02  0.8395546E-01
         -2   -1    0    0    0  501 -0.00000000000E+00  0.00000000000E+00  0.74618277470E+03  0.74618277470E+03  0.00000000000E+00 0. -1.
          2   -1    0    0  501    0  0.00000000000E+00 -0.00000000000E+00 -0.21293002336E+04  0.21293002336E+04  0.00000000000E+00 0.  1.
    2000013    1    1    2    0    0 -0.42297091082E+03  0.59311722187E+03 -0.24155003430E+03  0.12212857362E+04  0.95000000000E+03 0.  0.
   -2000013    1    1    2    0    0  0.42297091082E+03 -0.59311722187E+03 -0.11415674246E+04  0.16541972722E+04  0.95000000000E+03 0.  0.
<mgrwt>
<rscale>  0 0.25209896E+04</rscale>
<asrwt>0</asrwt>
<pdfrwt beam="2">  1        2 0.32758465E+00 0.25209896E+04</pdfrwt>
<pdfrwt beam="1">  1       -2 0.11479735E+00 0.25209896E+04</pdfrwt>
<totfact> 0.29830565E+00</totfact>
</mgrwt>
</event>
<event>
 4    1  0.2482334E-008  0.3329522E+04  0.7816531E-02  0.8155424E-01
          2   -1    0    0  501    0  0.00000000000E+00  0.00000000000E+00  0.35497808152E+04  0.35497808152E+04  0.00000000000E+00 0.  1.
         -2   -1    0    0    0  501 -0.00000000000E+00 -0.00000000000E+00 -0.78073264816E+03  0.78073264816E+03  0.00000000000E+00 0. -1.
    2000013    1    1    2    0    0  0.10163539918E+04  0.19996366870E+03  0.25449181511E+04  0.29072442796E+04  0.95000000000E+03 0.  0.
   -2000013    1    1    2    0    0 -0.10163539918E+04 -0.19996366870E+03  0.22413001592E+03  0.14232691837E+04  0.95000000000E+03 0.  0.
<mgrwt>
<rscale>  0 0.33295224E+04</rscale>
<asrwt>0</asrwt>
<pdfrwt beam="1">  1        2 0.54612012E+00 0.33295224E+04</pdfrwt>
<pdfrwt beam="2">  1       -2 0.12011272E+00 0.33295224E+04</pdfrwt>
<totfact> 0.33048210E-01</totfact>
</mgrwt>
</event>
<event>
 4    1  0.2482334E-008  0.2285058E+04  0.7816531E-02  0.8483836E-01
         -2   -1    0    0    0  501 -0.00000000000E+00  0.00000000000E+00  0.56468340930E+03  0.56468340930E+03  0.00000000000E+00 0. -1.
          2   -1    0    0  501    0  0.00000000000E+00 -0.00000000000E+00 -0.23116890014E+04  0.23116890014E+04  0.00000000000E+00 0.  1.
    2000013    1    1    2    0    0 -0.55502663477E+03 -0.15374991842E+03 -0.53766984555E+03  0.12342132982E+04  0.95000000000E+03 0.  0.
   -2000013    1    1    2    0    0  0.55502663477E+03  0.15374991842E+03 -0.12093357465E+04  0.16421591124E+04  0.95000000000E+03 0.  0.
<mgrwt>
<rscale>  0 0.22850579E+04</rscale>
<asrwt>0</asrwt>
<pdfrwt beam="2">  1        2 0.35564446E+00 0.22850579E+04</pdfrwt>
<pdfrwt beam="1">  1       -2 0.86874372E-01 0.22850579E+04</pdfrwt>
<totfact> 0.46452623E+00</totfact>
</mgrwt>
</event>
<event>
 4    1  0.2482334E-008  0.2390868E+04  0.7816531E-02  0.8442930E-01
         -2   -1    0    0    0  501 -0.00000000000E+00  0.00000000000E+00  0.88897848103E+03  0.88897848103E+03  0.00000000000E+00 0. -1.
          2   -1    0    0  501    0  0.00000000000E+00 -0.00000000000E+00 -0.16075337361E+04  0.16075337361E+04  0.00000000000E+00 0.  1.
    2000013    1    1    2    0    0 -0.13965213297E+03 -0.70981576996E+03 -0.41854616052E+03  0.12653149940E+04  0.95000000000E+03 0.  0.
   -2000013    1    1    2    0    0  0.13965213297E+03  0.70981576996E+03 -0.30000909458E+03  0.12311972232E+04  0.95000000000E+03 0.  0.
<mgrwt>
<rscale>  0 0.23908684E+04</rscale>
<asrwt>0</asrwt>
<pdfrwt beam="2">  1        2 0.24731288E+00 0.23908684E+04</pdfrwt>
<pdfrwt beam="1">  1       -2 0.13676592E+00 0.23908684E+04</pdfrwt>
<totfact> 0.37931445E+00</totfact>
</mgrwt>
</event>
<event>
 4    1  0.2482334E-008  0.2152812E+04  0.7816531E-02  0.8538330E-01
         -2   -1    0    0    0  501 -0.00000000000E+00  0.00000000000E+00  0.60074178865E+03  0.60074178865E+03  0.00000000000E+00 0. -1.
          2   -1    0    0  501    0  0.00000000000E+00 -0.00000000000E+00 -0.19286984594E+04  0.19286984594E+04  0.00000000000E+00 0.  1.
    2000013    1    1    2    0    0  0.22772059515E+03 -0.44571625286E+03 -0.75213942808E+03  0.13110047165E+04  0.95000000000E+03 0.  0.
   -2000013    1    1    2    0    0 -0.22772059515E+03  0.44571625286E+03 -0.57581724268E+03  0.12184355315E+04  0.95000000000E+03 0.  0.
<mgrwt>
<rscale>  0 0.21528119E+04</rscale>
<asrwt>0</asrwt>
<pdfrwt beam="2">  1        2 0.29672284E+00 0.21528119E+04</pdfrwt>
<pdfrwt beam="1">  1       -2 0.92421812E-01 0.21528119E+04</pdfrwt>
<totfact> 0.66741788E+00</totfact>
</mgrwt>
</event>
<event>
 4    1  0.2482334E-008  0.2068721E+04  0.7816531E-02  0.8575149E-01
          2   -1    0    0  501    0  0.00000000000E+00  0.00000000000E+00  0.17223292528E+04  0.17223292528E+04  0.00000000000E+00 0.  1.
         -2   -1    0    0    0  501 -0.00000000000E+00 -0.00000000000E+00 -0.62119460302E+03  0.62119460302E+03  0.00000000000E+00 0. -1.
    2000013    1    1    2    0    0 -0.23545659971E+03  0.33136393769E+03  0.60321399361E+03  0.11964986384E+04  0.95000000000E+03 0.  0.
   -2000013    1    1    2    0    0  0.23545659971E+03 -0.33136393769E+03  0.49792065613E+03  0.11470252174E+04  0.95000000000E+03 0.  0.
<mgrwt>
<rscale>  0 0.20687210E+04</rscale>
<asrwt>0</asrwt>
<pdfrwt beam="1">  1        2 0.26497373E+00 0.20687210E+04</pdfrwt>
<pdfrwt beam="2">  1       -2 0.95568401E-01 0.20687210E+04</pdfrwt>
<totfact> 0.80926809E+00</totfact>
</mgrwt>
</event>
<event>
 4    1  0.2482334E-008  0.2343669E+04  0.7816531E-02  0.8460899E-01
         -2   -1    0    0    0  501 -0.00000000000E+00  0.00000000000E+00  0.10179588458E+04  0.10179588458E+04  0.00000000000E+00 0. -1.
          2   -1    0    0  501    0  0.00000000000E+00 -0.00000000000E+00 -0.13489698393E+04  0.13489698393E+04  0.00000000000E+00 0.  1.
    2000013    1    1    2    0    0 -0.39097332033E+03  0.23251495322E+03  0.35317946365E+03  0.11109271237E+04  0.95000000000E+03 0.  0.
   -2000013    1    1    2    0    0  0.39097332033E+03 -0.23251495322E+03 -0.68419045710E+03  0.12560015614E+04  0.95000000000E+03 0.  0.
<mgrwt>
<rscale>  0 0.23436687E+04</rscale>
<asrwt>0</asrwt>
<pdfrwt beam="2">  1        2 0.20753382E+00 0.23436687E+04</pdfrwt>
<pdfrwt beam="1">  1       -2 0.15660905E+00 0.23436687E+04</pdfrwt>
<totfact> 0.37347860E+00</totfact>
</mgrwt>
</event>
<event>
 4    1  0.2482334E-008  0.3447512E+04  0.7816531E-02  0.8126343E-01
          2   -1    0    0  501    0  0.00000000000E+00  0.00000000000E+00  0.20380056811E+04  0.20380056811E+04  0.00000000000E+00 0.  1.
         -2   -1    0    0    0  501 -0.00000000000E+00 -0.00000000000E+00 -0.14579620144E+04  0.14579620144E+04  0.00000000000E+00 0. -1.
    2000013    1    1    2    0    0 -0.38852707874E+03  0.13822472402E+04  0.20353448837E+03  0.17336340479E+04  0.95000000000E+03 0.  0.
   -2000013    1    1    2    0    0  0.38852707874E+03 -0.13822472402E+04  0.37650917831E+03  0.17623336476E+04  0.95000000000E+03 0.  0.
<mgrwt>
<rscale>  0 0.34475121E+04</rscale>
<asrwt>0</asrwt>
<pdfrwt beam="1">  1        2 0.31353934E+00 0.34475121E+04</pdfrwt>
<pdfrwt beam="2">  1       -2 0.22430185E+00 0.34475121E+04</pdfrwt>
<totfact> 0.48755113E-01</totfact>
</mgrwt>
</event>
<event>
 4    1  0.2482334E-008  0.3735382E+04  0.7816531E-02  0.8060166E-01
         -1   -1    0    0    0  501 -0.00000000000E+00  0.00000000000E+00  0.19242434574E+04  0.19242434574E+04  0.00000000000E+00 0. -1.
          1   -1    0    0  501    0  0.00000000000E+00 -0.00000000000E+00 -0.18128005179E+04  0.18128005179E+04  0.00000000000E+00 0.  1.
    2000013    1    1    2    0    0 -0.15515391177E+04 -0.41673644409E+03 -0.13783454901E+02  0.18664492710E+04  0.95000000000E+03 0.  0.
   -2000013    1    1    2    0    0  0.15515391177E+04  0.41673644409E+03  0.12522639444E+03  0.18705947042E+04  0.95000000000E+03 0.  0.
<mgrwt>
<rscale>  0 0.37353819E+04</rscale>
<asrwt>0</asrwt>
<pdfrwt beam="2">  1        1 0.27889239E+00 0.37353819E+04</pdfrwt>
<pdfrwt beam="1">  1       -1 0.29603746E+00 0.37353819E+04</pdfrwt>
<totfact> 0.11191753E-01</totfact>
</mgrwt>
</event>
<event>
 4    1  0.2482334E-008  0.2983742E+04  0.7816531E-02  0.8248389E-01
          1   -1    0    0  501    0  0.00000000000E+00  0.00000000000E+00  0.82742227796E+03  0.82742227796E+03  0.00000000000E+00 0.  1.
         -1   -1    0    0    0  501 -0.00000000000E+00 -0.00000000000E+00 -0.26898949909E+04  0.26898949909E+04  0.00000000000E+00 0. -1.
    2000013    1    1    2    0    0 -0.15640496756E+03 -0.93734620282E+03 -0.16717909137E+03  0.13540787519E+04  0.95000000000E+03 0.  0.
   -2000013    1    1    2    0    0  0.15640496756E+03  0.93734620282E+03 -0.16952936215E+04  0.21632385169E+04  0.95000000000E+03 0.  0.
<mgrwt>
<rscale>  0 0.29837420E+04</rscale>
<asrwt>0</asrwt>
<pdfrwt beam="1">  1        1 0.12729573E+00 0.29837420E+04</pdfrwt>
<pdfrwt beam="2">  1       -1 0.41383000E+00 0.29837420E+04</pdfrwt>
<totfact> 0.10250180E-01</totfact>
</mgrwt>
</event>
<event>
 4    1  0.2482334E-008  0.2601337E+04  0.7816531E-02  0.8367747E-01
         -2   -1    0    0    0  501 -0.00000000000E+00  0.00000000000E+00  0.11176115901E+04  0.11176115901E+04  0.00000000000E+00 0. -1.
          2   -1    0    0  501    0  0.00000000000E+00 -0.00000000000E+00 -0.15137088654E+04  0.15137088654E+04  0.00000000000E+00 0.  1.
    2000013    1    1    2    0    0  0.15443192939E+03  0.80322751308E+03 -0.54876521526E+03  0.13684542082E+04  0.95000000000E+03 0.  0.
   -2000013    1    1    2    0    0 -0.15443192939E+03 -0.80322751308E+03  0.15266793991E+03  0.12628662473E+04  0.95000000000E+03 0.  0.
<mgrwt>
<rscale>  0 0.26013370E+04</rscale>
<asrwt>0</asrwt>
<pdfrwt beam="2">  1        2 0.23287829E+00 0.26013370E+04</pdfrwt>
<pdfrwt beam="1">  1       -2 0.17194025E+00 0.26013370E+04</pdfrwt>
<totfact> 0.22776033E+00</totfact>
</mgrwt>
</event>
<event>
 4    1  0.2482334E-008  0.2461342E+04  0.7816531E-02  0.8416889E-01
          2   -1    0    0  501    0  0.00000000000E+00  0.00000000000E+00  0.32982150705E+04  0.32982150705E+04  0.00000000000E+00 0.  1.
         -2   -1    0    0    0  501 -0.00000000000E+00 -0.00000000000E+00 -0.45920319999E+03  0.45920319999E+03  0.00000000000E+00 0. -1.
    2000013    1    1    2    0    0  0.72761830641E+03  0.13863463381E+03  0.10351156957E+04  0.15882734226E+04  0.95000000000E+03 0.  0.
   -2000013    1    1    2    0    0 -0.72761830641E+03 -0.13863463381E+03  0.18038961748E+04  0.21691448478E+04  0.95000000000E+03 0.  0.
<mgrwt>
<rscale>  0 0.24613418E+04</rscale>
<asrwt>0</asrwt>
<pdfrwt beam="1">  1        2 0.50741769E+00 0.24613418E+04</pdfrwt>
<pdfrwt beam="2">  1       -2 0.70646648E-01 0.24613418E+04</pdfrwt>
<totfact> 0.18223209E+00</totfact>
</mgrwt>
</event>
<event>
 4    1  0.2482334E-008  0.3212750E+04  0.7816531E-02  0.8185458E-01
          1   -1    0    0  501    0  0.00000000000E+00  0.00000000000E+00  0.20915469962E+04  0.20915469962E+04  0.00000000000E+00 0.  1.
         -1   -1    0    0    0  501 -0.00000000000E+00 -0.00000000000E+00 -0.12337473734E+04  0.12337473734E+04  0.00000000000E+00 0. -1.
    2000013    1    1    2    0    0  0.57442936172E+03  0.88500769821E+02 -0.76929686865E+03  0.13535579596E+04  0.95000000000E+03 0.  0.
   -2000013    1    1    2    0    0 -0.57442936172E+03 -0.88500769821E+02  0.16270964915E+04  0.19717364100E+04  0.95000000000E+03 0.  0.
<mgrwt>
<rscale>  0 0.32127500E+04</rscale>
<asrwt>0</asrwt>
<pdfrwt beam="1">  1        1 0.32177646E+00 0.32127500E+04</pdfrwt>
<pdfrwt beam="2">  1       -1 0.18980729E+00 0.32127500E+04</pdfrwt>
<totfact> 0.38254920E-01</totfact>
</mgrwt>
</event>
<event>
 4    1  0.2482334E-008  0.2084109E+04  0.7816531E-02  0.8568276E-01
         -2   -1    0    0    0  501 -0.00000000000E+00  0.00000000000E+00  0.39310950409E+03  0.39310950409E+03  0.00000000000E+00 0. -1.
          2   -1    0    0  501    0  0.00000000000E+00 -0.00000000000E+00 -0.27622781168E+04  0.27622781168E+04  0.00000000000E+00 0.  1.
    2000013    1    1    2    0    0 -0.58352690491E+02 -0.37452563727E+03 -0.88290501247E+03  0.13511830929E+04  0.95000000000E+03 0.  0.
   -2000013    1    1    2    0    0  0.58352690491E+02  0.37452563727E+03 -0.14862636002E+04  0.18042045280E+04  0.95000000000E+03 0.  0.
<mgrwt>
<rscale>  0 0.20841092E+04</rscale>
<asrwt>0</asrwt>
<pdfrwt beam="2">  1        2 0.42496587E+00 0.20841092E+04</pdfrwt>
<pdfrwt beam="1">  1       -2 0.60478384E-01 0.20841092E+04</pdfrwt>
<totfact> 0.57324400E+00</totfact>
</mgrwt>
</event>
<event>
 4    1  0.2482334E-008  0.2695605E+04  0.7816531E-02  0.8336432E-01
         -2   -1    0    0    0  501 -0.00000000000E+00  0.00000000000E+00  0.85658396660E+03  0.85658396660E+03  0.00000000000E+00 0. -1.
          2   -1    0    0  501    0  0.00000000000E+00 -0.00000000000E+00 -0.21207169853E+04  0.21207169853E+04  0.00000000000E+00 0.  1.
    2000013    1    1    2    0    0 -0.64713144995E+03 -0.64349620266E+03 -0.31732092522E+03  0.13550125630E+04  0.95000000000E+03 0.  0.
   -2000013    1    1    2    0    0  0.64713144995E+03  0.64349620266E+03 -0.94681209350E+03  0.16222883889E+04  0.95000000000E+03 0.  0.
<mgrwt>
<rscale>  0 0.26956054E+04</rscale>
<asrwt>0</asrwt>
<pdfrwt beam="2">  1        2 0.32626415E+00 0.26956054E+04</pdfrwt>
<pdfrwt beam="1">  1       -2 0.13178215E+00 0.26956054E+04</pdfrwt>
<totfact> 0.21064542E+00</totfact>
</mgrwt>
</event>
<event>
 4    1  0.2482334E-008  0.2538316E+04  0.7816531E-02  0.8389461E-01
         -2   -1    0    0    0  501 -0.00000000000E+00  0.00000000000E+00  0.63606982232E+03  0.63606982232E+03  0.00000000000E+00 0. -1.
          2   -1    0    0  501    0  0.00000000000E+00 -0.00000000000E+00 -0.25323663173E+04  0.25323663173E+04  0.00000000000E+00 0.  1.
    2000013    1    1    2    0    0  0.21177911223E+03  0.79585033755E+03 -0.11644715466E+04  0.17136867085E+04  0.95000000000E+03 0.  0.
   -2000013    1    1    2    0    0 -0.21177911223E+03 -0.79585033755E+03 -0.73182494839E+03  0.14547494311E+04  0.95000000000E+03 0.  0.
<mgrwt>
<rscale>  0 0.25383158E+04</rscale>
<asrwt>0</asrwt>
<pdfrwt beam="2">  1        2 0.38959482E+00 0.25383158E+04</pdfrwt>
<pdfrwt beam="1">  1       -2 0.97856895E-01 0.25383158E+04</pdfrwt>
<totfact> 0.25761496E+00</totfact>
</mgrwt>
</event>
<event>
 4    1  0.2482334E-008  0.3661055E+04  0.7816531E-02  0.8076648E-01
         -2   -1    0    0    0  501 -0.00000000000E+00  0.00000000000E+00  0.10418024979E+04  0.10418024979E+04  0.00000000000E+00 0. -1.
          2   -1    0    0  501    0  0.00000000000E+00 -0.00000000000E+00 -0.32163774749E+04  0.32163774749E+04  0.00000000000E+00 0.  1.
    2000013    1    1    2    0    0 -0.47174376740E+03 -0.13496753940E+04 -0.18267169571E+04  0.25067031521E+04  0.95000000000E+03 0.  0.
   -2000013    1    1    2    0    0  0.47174376740E+03  0.13496753940E+04 -0.34785801990E+03  0.17514768207E+04  0.95000000000E+03 0.  0.
<mgrwt>
<rscale>  0 0.36610545E+04</rscale>
<asrwt>0</asrwt>
<pdfrwt beam="2">  1        2 0.49482731E+00 0.36610545E+04</pdfrwt>
<pdfrwt beam="1">  1       -2 0.16027731E+00 0.36610545E+04</pdfrwt>
<totfact> 0.25694967E-01</totfact>
</mgrwt>
</event>
<event>
 4    1  0.2482334E-008  0.2439595E+04  0.7816531E-02  0.8424827E-01
         -2   -1    0    0    0  501 -0.00000000000E+00  0.00000000000E+00  0.10895901896E+04  0.10895901896E+04  0.00000000000E+00 0.  1.
          2   -1    0    0  501    0  0.00000000000E+00 -0.00000000000E+00 -0.13655647635E+04  0.13655647635E+04  0.00000000000E+00 0. -1.
    2000013    1    1    2    0    0 -0.71825121981E+03  0.25433643276E+03 -0.68015897149E+02  0.12197122604E+04  0.95000000000E+03 0.  0.
   -2000013    1    1    2    0    0  0.71825121981E+03 -0.25433643276E+03 -0.20795867680E+03  0.12354426927E+04  0.95000000000E+03 0.  0.
<mgrwt>
<rscale>  0 0.24395950E+04</rscale>
<asrwt>0</asrwt>
<pdfrwt beam="2">  1        2 0.21008689E+00 0.24395950E+04</pdfrwt>
<pdfrwt beam="1">  1       -2 0.16762926E+00 0.24395950E+04</pdfrwt>
<totfact> 0.30088212E+00</totfact>
</mgrwt>
</event>
<event>
 4    1  0.2482334E-008  0.3639787E+04  0.7816531E-02  0.8081438E-01
         -2   -1    0    0    0  501 -0.00000000000E+00  0.00000000000E+00  0.95284450125E+03  0.95284450125E+03  0.00000000000E+00 0.  1.
          2   -1    0    0  501    0  0.00000000000E+00 -0.00000000000E+00 -0.34759214001E+04  0.34759214001E+04  0.00000000000E+00 0. -1.
    2000013    1    1    2    0    0 -0.11647631746E+04 -0.99673823387E+03 -0.96510632176E+03  0.20455049675E+04  0.95000000000E+03 0.  0.
   -2000013    1    1    2    0    0  0.11647631746E+04  0.99673823387E+03 -0.15579705771E+04  0.23832609338E+04  0.95000000000E+03 0.  0.
<mgrwt>
<rscale>  0 0.36397871E+04</rscale>
<asrwt>0</asrwt>
<pdfrwt beam="2">  1        2 0.53475714E+00 0.36397871E+04</pdfrwt>
<pdfrwt beam="1">  1       -2 0.14659146E+00 0.36397871E+04</pdfrwt>
<totfact> 0.21823113E-01</totfact>
</mgrwt>
</event>
<event>
 4    1  0.2482334E-008  0.2095862E+04  0.7816531E-02  0.8563069E-01
         -2   -1    0    0    0  501 -0.00000000000E+00  0.00000000000E+00  0.44706756722E+03  0.44706756722E+03  0.00000000000E+00 0. -1.
          2   -1    0    0  501    0  0.00000000000E+00 -0.00000000000E+00 -0.24563600963E+04  0.24563600963E+04  0.00000000000E+00 0.  1.
    2000013    1    1    2    0    0  0.20986523126E+02 -0.43720260375E+03 -0.91624211525E+03  0.13905344888E+04  0.95000000000E+03 0.  0.
   -2000013    1    1    2    0    0 -0.20986523126E+02  0.43720260375E+03 -0.10930504138E+04  0.15128931747E+04  0.95000000000E+03 0.  0.
<mgrwt>
<rscale>  0 0.20958616E+04</rscale>
<asrwt>0</asrwt>
<pdfrwt beam="2">  1        2 0.37790155E+00 0.20958616E+04</pdfrwt>
<pdfrwt beam="1">  1       -2 0.68779626E-01 0.20958616E+04</pdfrwt>
<totfact> 0.65715520E+00</totfact>
</mgrwt>
</event>
<event>
 4    1  0.2482334E-008  0.2263756E+04  0.7816531E-02  0.8492350E-01
         -2   -1    0    0    0  501 -0.00000000000E+00  0.00000000000E+00  0.10329130599E+04  0.10329130599E+04  0.00000000000E+00 0. -1.
          2   -1    0    0  501    0  0.00000000000E+00 -0.00000000000E+00 -0.12403245116E+04  0.12403245116E+04  0.00000000000E+00 0.  1.
    2000013    1    1    2    0    0 -0.92644006750E+02 -0.55882241999E+03  0.13767994317E+03  0.11145946240E+04  0.95000000000E+03 0.  0.
   -2000013    1    1    2    0    0  0.92644006750E+02  0.55882241999E+03 -0.34509139484E+03  0.11586429475E+04  0.95000000000E+03 0.  0.
<mgrwt>
<rscale>  0 0.22637556E+04</rscale>
<asrwt>0</asrwt>
<pdfrwt beam="2">  1        2 0.19081916E+00 0.22637556E+04</pdfrwt>
<pdfrwt beam="1">  1       -2 0.15890970E+00 0.22637556E+04</pdfrwt>
<totfact> 0.41824766E+00</totfact>
</mgrwt>
</event>
<event>
 4    1  0.2482334E-008  0.2040653E+04  0.7816531E-02  0.8587847E-01
         -2   -1    0    0    0  501 -0.00000000000E+00  0.00000000000E+00  0.27184889123E+03  0.27184889123E+03  0.00000000000E+00 0.  1.
          2   -1    0    0  501    0  0.00000000000E+00 -0.00000000000E+00 -0.38295748881E+04  0.38295748881E+04  0.00000000000E+00 0. -1.
    2000013    1    1    2    0    0  0.25755043556E+03 -0.23870489033E+03 -0.20270902284E+04  0.22660333284E+04  0.95000000000E+03 0.  0.
   -2000013    1    1    2    0    0 -0.25755043556E+03  0.23870489033E+03 -0.15306357685E+04  0.18353904509E+04  0.95000000000E+03 0.  0.
<mgrwt>
<rscale>  0 0.20406525E+04</rscale>
<asrwt>0</asrwt>
<pdfrwt beam="2">  1        2 0.58916535E+00 0.20406525E+04</pdfrwt>
<pdfrwt beam="1">  1       -2 0.41822908E-01 0.20406525E+04</pdfrwt>
<totfact> 0.23577579E+00</totfact>
</mgrwt>
</event>
<event>
 4    1  0.2482334E-008  0.3605647E+04  0.7816531E-02  0.8089200E-01
         -2   -1    0    0    0  501 -0.00000000000E+00  0.00000000000E+00  0.85802351291E+03  0.85802351291E+03  0.00000000000E+00 0. -1.
          2   -1    0    0  501    0  0.00000000000E+00 -0.00000000000E+00 -0.37879751340E+04  0.37879751340E+04  0.00000000000E+00 0.  1.
    2000013    1    1    2    0    0 -0.30825404886E+03 -0.13905544802E+04 -0.21927517206E+04  0.27819637721E+04  0.95000000000E+03 0.  0.
   -2000013    1    1    2    0    0  0.30825404886E+03  0.13905544802E+04 -0.73719990045E+03  0.18640348748E+04  0.95000000000E+03 0.  0.
<mgrwt>
<rscale>  0 0.36056465E+04</rscale>
<asrwt>0</asrwt>
<pdfrwt beam="2">  1        2 0.58276540E+00 0.36056465E+04</pdfrwt>
<pdfrwt beam="1">  1       -2 0.13200362E+00 0.36056465E+04</pdfrwt>
<totfact> 0.17029308E-01</totfact>
</mgrwt>
</event>
<event>
 4    1  0.2482334E-008  0.2069465E+04  0.7816531E-02  0.8574815E-01
          2   -1    0    0  501    0  0.00000000000E+00  0.00000000000E+00  0.20121699011E+04  0.20121699011E+04  0.00000000000E+00 0.  1.
         -2   -1    0    0    0  501 -0.00000000000E+00 -0.00000000000E+00 -0.53209766189E+03  0.53209766189E+03  0.00000000000E+00 0. -1.
    2000013    1    1    2    0    0 -0.15430292923E+03  0.26598181926E+03  0.40646498056E+03  0.10780860367E+04  0.95000000000E+03 0.  0.
   -2000013    1    1    2    0    0  0.15430292923E+03 -0.26598181926E+03  0.10736072586E+04  0.14661815263E+04  0.95000000000E+03 0.  0.
<mgrwt>
<rscale>  0 0.20694646E+04</rscale>
<asrwt>0</asrwt>
<pdfrwt beam="1">  1        2 0.30956460E+00 0.20694646E+04</pdfrwt>
<pdfrwt beam="2">  1       -2 0.81861180E-01 0.20694646E+04</pdfrwt>
<totfact> 0.79744236E+00</totfact>
</mgrwt>
</event>
<event>
 4    1  0.2482334E-008  0.2251583E+04  0.7816531E-02  0.8497260E-01
          2   -1    0    0  501    0  0.00000000000E+00  0.00000000000E+00  0.57291676598E+03  0.57291676598E+03  0.00000000000E+00 0.  1.
         -2   -1    0    0    0  501 -0.00000000000E+00 -0.00000000000E+00 -0.22122004091E+04  0.22122004091E+04  0.00000000000E+00 0. -1.
    2000013    1    1    2    0    0  0.25267957620E+03 -0.53338696852E+03 -0.97881153455E+03  0.14862438046E+04  0.95000000000E+03 0.  0.
   -2000013    1    1    2    0    0 -0.25267957620E+03  0.53338696852E+03 -0.66047210854E+03  0.12988733705E+04  0.95000000000E+03 0.  0.
<mgrwt>
<rscale>  0 0.22515832E+04</rscale>
<asrwt>0</asrwt>
<pdfrwt beam="1">  1        2 0.88141041E-01 0.22515832E+04</pdfrwt>
<pdfrwt beam="2">  1       -2 0.34033853E+00 0.22515832E+04</pdfrwt>
<totfact> 0.85492295E-01</totfact>
</mgrwt>
</event>
<event>
 4    1  0.2482334E-008  0.2313579E+04  0.7816531E-02  0.8472586E-01
         -2   -1    0    0    0  501 -0.00000000000E+00  0.00000000000E+00  0.95802695147E+03  0.95802695147E+03  0.00000000000E+00 0. -1.
          2   -1    0    0  501    0  0.00000000000E+00 -0.00000000000E+00 -0.13967894674E+04  0.13967894674E+04  0.00000000000E+00 0.  1.
    2000013    1    1    2    0    0 -0.47988649024E+03  0.34091928109E+03  0.84512029097E+02  0.11207851189E+04  0.95000000000E+03 0.  0.
   -2000013    1    1    2    0    0  0.47988649024E+03 -0.34091928109E+03 -0.52327454498E+03  0.12340312999E+04  0.95000000000E+03 0.  0.
<mgrwt>
<rscale>  0 0.23135790E+04</rscale>
<asrwt>0</asrwt>
<pdfrwt beam="2">  1        2 0.21489069E+00 0.23135790E+04</pdfrwt>
<pdfrwt beam="1">  1       -2 0.14738876E+00 0.23135790E+04</pdfrwt>
<totfact> 0.41313811E+00</totfact>
</mgrwt>
</event>
<event>
 4    1  0.2482334E-008  0.2980534E+04  0.7816531E-02  0.8249312E-01
          2   -1    0    0  501    0  0.00000000000E+00  0.00000000000E+00  0.15486484243E+04  0.15486484243E+04  0.00000000000E+00 0.  1.
         -2   -1    0    0    0  501 -0.00000000000E+00 -0.00000000000E+00 -0.14340861514E+04  0.14340861514E+04  0.00000000000E+00 0. -1.
    2000013    1    1    2    0    0  0.55872277034E+03  0.16475384615E+03  0.10474966576E+04  0.15293999515E+04  0.95000000000E+03 0.  0.
   -2000013    1    1    2    0    0 -0.55872277034E+03 -0.16475384615E+03 -0.93293438469E+03  0.14533346243E+04  0.95000000000E+03 0.  0.
<mgrwt>
<rscale>  0 0.29805337E+04</rscale>
<asrwt>0</asrwt>
<pdfrwt beam="1">  1        2 0.23825360E+00 0.29805337E+04</pdfrwt>
<pdfrwt beam="2">  1       -2 0.22062864E+00 0.29805337E+04</pdfrwt>
<totfact> 0.10006957E+00</totfact>
</mgrwt>
</event>
<event>
 4    1  0.2482334E-008  0.2104418E+04  0.7816531E-02  0.8559300E-01
         -2   -1    0    0    0  501 -0.00000000000E+00  0.00000000000E+00  0.73339292734E+03  0.73339292734E+03  0.00000000000E+00 0. -1.
          2   -1    0    0  501    0  0.00000000000E+00 -0.00000000000E+00 -0.15096186080E+04  0.15096186080E+04  0.00000000000E+00 0.  1.
    2000013    1    1    2    0    0 -0.39102364602E+03 -0.12565309829E+03 -0.59022000013E+03  0.11914477921E+04  0.95000000000E+03 0.  0.
   -2000013    1    1    2    0    0  0.39102364602E+03  0.12565309829E+03 -0.18600568057E+03  0.10515637432E+04  0.95000000000E+03 0.  0.
<mgrwt>
<rscale>  0 0.21044178E+04</rscale>
<asrwt>0</asrwt>
<pdfrwt beam="2">  1        2 0.23224901E+00 0.21044178E+04</pdfrwt>
<pdfrwt beam="1">  1       -2 0.11282968E+00 0.21044178E+04</pdfrwt>
<totfact> 0.71345006E+00</totfact>
</mgrwt>
</event>
<event>
 4    1  0.2482334E-008  0.2105151E+04  0.7816531E-02  0.8558978E-01
          2   -1    0    0  501    0  0.00000000000E+00  0.00000000000E+00  0.17983578827E+04  0.17983578827E+04  0.00000000000E+00 0.  1.
         -2   -1    0    0    0  501 -0.00000000000E+00 -0.00000000000E+00 -0.61607058376E+03  0.61607058376E+03  0.00000000000E+00 0. -1.
    2000013    1    1    2    0    0 -0.25798763016E+03  0.33653507645E+03  0.40763046119E+03  0.11173522577E+04  0.95000000000E+03 0.  0.
   -2000013    1    1    2    0    0  0.25798763016E+03 -0.33653507645E+03  0.77465683779E+03  0.12970762088E+04  0.95000000000E+03 0.  0.
<mgrwt>
<rscale>  0 0.21051512E+04</rscale>
<asrwt>0</asrwt>
<pdfrwt beam="1">  1        2 0.27667044E+00 0.21051512E+04</pdfrwt>
<pdfrwt beam="2">  1       -2 0.94780091E-01 0.21051512E+04</pdfrwt>
<totfact> 0.74638917E+00</totfact>
</mgrwt>
</event>
<event>
 4    1  0.2482334E-008  0.2614762E+04  0.7816531E-02  0.8363204E-01
          2   -1    0    0  501    0  0.00000000000E+00  0.00000000000E+00  0.13460347784E+04  0.13460347784E+04  0.00000000000E+00 0.  1.
         -2   -1    0    0    0  501 -0.00000000000E+00 -0.00000000000E+00 -0.12698375045E+04  0.12698375045E+04  0.00000000000E+00 0. -1.
    2000013    1    1    2    0    0  0.74080935877E+03  0.23676940588E+03  0.48760795910E+03  0.13210298177E+04  0.95000000000E+03 0.  0.
   -2000013    1    1    2    0    0 -0.74080935877E+03 -0.23676940588E+03 -0.41141068517E+03  0.12948424651E+04  0.95000000000E+03 0.  0.
<mgrwt>
<rscale>  0 0.26147623E+04</rscale>
<asrwt>0</asrwt>
<pdfrwt beam="1">  1        2 0.20708227E+00 0.26147623E+04</pdfrwt>
<pdfrwt beam="2">  1       -2 0.19535962E+00 0.26147623E+04</pdfrwt>
<totfact> 0.19602009E+00</totfact>
</mgrwt>
</event>
<event>
 4    1  0.2482334E-008  0.2003588E+04  0.7816531E-02  0.8604945E-01
          2   -1    0    0  501    0  0.00000000000E+00  0.00000000000E+00  0.22626720926E+04  0.22626720926E+04  0.00000000000E+00 0.  1.
         -2   -1    0    0    0  501 -0.00000000000E+00 -0.00000000000E+00 -0.44354259105E+03  0.44354259105E+03  0.00000000000E+00 0. -1.
    2000013    1    1    2    0    0 -0.54468315879E+02 -0.31082678365E+03  0.96207415992E+03  0.13884043993E+04  0.95000000000E+03 0.  0.
   -2000013    1    1    2    0    0  0.54468315879E+02  0.31082678365E+03  0.85705534164E+03  0.13178102843E+04  0.95000000000E+03 0.  0.
<mgrwt>
<rscale>  0 0.20035882E+04</rscale>
<asrwt>0</asrwt>
<pdfrwt beam="1">  1        2 0.34810339E+00 0.20035882E+04</pdfrwt>
<pdfrwt beam="2">  1       -2 0.68237323E-01 0.20035882E+04</pdfrwt>
<totfact> 0.86890887E+00</totfact>
</mgrwt>
</event>
<event>
 4    1  0.2482334E-008  0.1964906E+04  0.7816531E-02  0.8623206E-01
          2   -1    0    0  501    0  0.00000000000E+00  0.00000000000E+00  0.16933751573E+04  0.16933751573E+04  0.00000000000E+00 0. -1.
         -2   -1    0    0    0  501 -0.00000000000E+00 -0.00000000000E+00 -0.56999399011E+03  0.56999399011E+03  0.00000000000E+00 0.  1.
    2000013    1    1    2    0    0 -0.23780700813E+03  0.60724779816E+02  0.50439611556E+03  0.11032475304E+04  0.95000000000E+03 0.  0.
   -2000013    1    1    2    0    0  0.23780700813E+03 -0.60724779816E+02  0.61898505158E+03  0.11601216169E+04  0.95000000000E+03 0.  0.
<mgrwt>
<rscale>  0 0.19649058E+04</rscale>
<asrwt>0</asrwt>
<pdfrwt beam="1">  1        2 0.26051925E+00 0.19649058E+04</pdfrwt>
<pdfrwt beam="2">  1       -2 0.87691384E-01 0.19649058E+04</pdfrwt>
<totfact> 0.10338817E+01</totfact>
</mgrwt>
</event>
<event>
 4    1  0.2482334E-008  0.2493519E+04  0.7816531E-02  0.8405298E-01
         -2   -1    0    0    0  501 -0.00000000000E+00  0.00000000000E+00  0.80541629718E+03  0.80541629718E+03  0.00000000000E+00 0. -1.
          2   -1    0    0  501    0  0.00000000000E+00 -0.00000000000E+00 -0.19299458285E+04  0.19299458285E+04  0.00000000000E+00 0.  1.
    2000013    1    1    2    0    0 -0.75106787471E+03  0.16114413204E+03 -0.28947074990E+03  0.12555332328E+04  0.95000000000E+03 0.  0.
   -2000013    1    1    2    0    0  0.75106787471E+03 -0.16114413204E+03 -0.83505878145E+03  0.14798288929E+04  0.95000000000E+03 0.  0.
<mgrwt>
<rscale>  0 0.24935195E+04</rscale>
<asrwt>0</asrwt>
<pdfrwt beam="2">  1        2 0.29691474E+00 0.24935195E+04</pdfrwt>
<pdfrwt beam="1">  1       -2 0.12391020E+00 0.24935195E+04</pdfrwt>
<totfact> 0.31965318E+00</totfact>
</mgrwt>
</event>
<event>
 4    1  0.2482334E-008  0.2662187E+04  0.7816531E-02  0.8347379E-01
         -2   -1    0    0    0  501 -0.00000000000E+00  0.00000000000E+00  0.13104002894E+04  0.13104002894E+04  0.00000000000E+00 0. -1.
          2   -1    0    0  501    0  0.00000000000E+00 -0.00000000000E+00 -0.13521133375E+04  0.13521133375E+04  0.00000000000E+00 0.  1.
    2000013    1    1    2    0    0  0.21654771409E+03 -0.90684181545E+03 -0.28254593305E+02  0.13313727175E+04  0.95000000000E+03 0.  0.
   -2000013    1    1    2    0    0 -0.21654771409E+03  0.90684181545E+03 -0.13458454782E+02  0.13311409094E+04  0.95000000000E+03 0.  0.
<mgrwt>
<rscale>  0 0.26621869E+04</rscale>
<asrwt>0</asrwt>
<pdfrwt beam="2">  1        2 0.20801744E+00 0.26621869E+04</pdfrwt>
<pdfrwt beam="1">  1       -2 0.20160004E+00 0.26621869E+04</pdfrwt>
<totfact> 0.17616559E+00</totfact>
</mgrwt>
</event>
<event>
 4    1  0.2482334E-008  0.2283159E+04  0.7816531E-02  0.8484591E-01
         -2   -1    0    0    0  501 -0.00000000000E+00  0.00000000000E+00  0.95989033332E+03  0.95989033332E+03  0.00000000000E+00 0. -1.
          2   -1    0    0  501    0  0.00000000000E+00 -0.00000000000E+00 -0.13576590429E+04  0.13576590429E+04  0.00000000000E+00 0.  1.
    2000013    1    1    2    0    0 -0.48771270017E+03 -0.33751178091E+03 -0.42340810806E+03  0.11973104468E+04  0.95000000000E+03 0.  0.
   -2000013    1    1    2    0    0  0.48771270017E+03  0.33751178091E+03  0.25639398459E+02  0.11202389294E+04  0.95000000000E+03 0.  0.
<mgrwt>
<rscale>  0 0.22831590E+04</rscale>
<asrwt>0</asrwt>
<pdfrwt beam="2">  1        2 0.20887062E+00 0.22831590E+04</pdfrwt>
<pdfrwt beam="1">  1       -2 0.14767544E+00 0.22831590E+04</pdfrwt>
<totfact> 0.43396204E+00</totfact>
</mgrwt>
</event>
<event>
 4    1  0.2482334E-008  0.2188474E+04  0.7816531E-02  0.8523241E-01
          2   -1    0    0  501    0  0.00000000000E+00  0.00000000000E+00  0.17673404053E+04  0.17673404053E+04  0.00000000000E+00 0.  1.
         -2   -1    0    0    0  501 -0.00000000000E+00 -0.00000000000E+00 -0.67748951573E+03  0.67748951573E+03  0.00000000000E+00 0. -1.
    2000013    1    1    2    0    0 -0.47702834819E+03  0.25282916029E+03  0.60983465131E+03  0.12513500434E+04  0.95000000000E+03 0.  0.
   -2000013    1    1    2    0    0  0.47702834819E+03 -0.25282916029E+03  0.48001623831E+03  0.11934798776E+04  0.95000000000E+03 0.  0.
<mgrwt>
<rscale>  0 0.21884740E+04</rscale>
<asrwt>0</asrwt>
<pdfrwt beam="1">  1        2 0.27189852E+00 0.21884740E+04</pdfrwt>
<pdfrwt beam="2">  1       -2 0.10422916E+00 0.21884740E+04</pdfrwt>
<totfact> 0.61588338E+00</totfact>
</mgrwt>
</event>
<event>
 4    1  0.2482334E-008  0.2412568E+04  0.7816531E-02  0.8434813E-01
         -1   -1    0    0    0  501 -0.00000000000E+00  0.00000000000E+00  0.44766095590E+03  0.44766095590E+03  0.00000000000E+00 0. -1.
          1   -1    0    0  501    0  0.00000000000E+00 -0.00000000000E+00 -0.32504975699E+04  0.32504975699E+04  0.00000000000E+00 0.  1.
    2000013    1    1    2    0    0  0.74106892486E+03  0.17171027978E+01 -0.14912549529E+04  0.19171665119E+04  0.95000000000E+03 0.  0.
   -2000013    1    1    2    0    0 -0.74106892486E+03 -0.17171027978E+01 -0.13115816611E+04  0.17809920139E+04  0.95000000000E+03 0.  0.
<mgrwt>
<rscale>  0 0.24125678E+04</rscale>
<asrwt>0</asrwt>
<pdfrwt beam="2">  1        1 0.50007654E+00 0.24125678E+04</pdfrwt>
<pdfrwt beam="1">  1       -1 0.68870917E-01 0.24125678E+04</pdfrwt>
<totfact> 0.74415523E-01</totfact>
</mgrwt>
</event>
<event>
 4    1  0.2482334E-008  0.3592760E+04  0.7816531E-02  0.8092152E-01
          2   -1    0    0  501    0  0.00000000000E+00  0.00000000000E+00  0.20933590908E+04  0.20933590908E+04  0.00000000000E+00 0.  1.
         -2   -1    0    0    0  501 -0.00000000000E+00 -0.00000000000E+00 -0.15415321182E+04  0.15415321182E+04  0.00000000000E+00 0. -1.
    2000013    1    1    2    0    0 -0.30417856873E+03  0.12241799655E+04 -0.59048100429E+03  0.16859148870E+04  0.95000000000E+03 0.  0.
   -2000013    1    1    2    0    0  0.30417856873E+03 -0.12241799655E+04  0.11423079770E+04  0.19489763220E+04  0.95000000000E+03 0.  0.
<mgrwt>
<rscale>  0 0.35927595E+04</rscale>
<asrwt>0</asrwt>
<pdfrwt beam="1">  1        2 0.32205525E+00 0.35927595E+04</pdfrwt>
<pdfrwt beam="2">  1       -2 0.23715879E+00 0.35927595E+04</pdfrwt>
<totfact> 0.37286104E-01</totfact>
</mgrwt>
</event>
<event>
 4    1  0.2482334E-008  0.2730612E+04  0.7816531E-02  0.8325140E-01
          1   -1    0    0  501    0  0.00000000000E+00  0.00000000000E+00  0.92369649313E+03  0.92369649313E+03  0.00000000000E+00 0. -1.
         -1   -1    0    0    0  501 -0.00000000000E+00 -0.00000000000E+00 -0.20180443067E+04  0.20180443067E+04  0.00000000000E+00 0.  1.
    2000013    1    1    2    0    0 -0.55069731238E+02 -0.70126239005E+03  0.18884790628E+03  0.11970652224E+04  0.95000000000E+03 0.  0.
   -2000013    1    1    2    0    0  0.55069731238E+02  0.70126239005E+03 -0.12831957199E+04  0.17446755774E+04  0.95000000000E+03 0.  0.
<mgrwt>
<rscale>  0 0.27306120E+04</rscale>
<asrwt>0</asrwt>
<pdfrwt beam="1">  1        1 0.14210715E+00 0.27306120E+04</pdfrwt>
<pdfrwt beam="2">  1       -1 0.31046835E+00 0.27306120E+04</pdfrwt>
<totfact> 0.42797389E-01</totfact>
</mgrwt>
</event>
<event>
 4    1  0.2482334E-008  0.2144411E+04  0.7816531E-02  0.8541928E-01
          2   -1    0    0  501    0  0.00000000000E+00  0.00000000000E+00  0.12440349019E+04  0.12440349019E+04  0.00000000000E+00 0. -1.
         -2   -1    0    0    0  501 -0.00000000000E+00 -0.00000000000E+00 -0.92410954977E+03  0.92410954977E+03  0.00000000000E+00 0.  1.
    2000013    1    1    2    0    0 -0.60494331303E+02  0.46474022540E+03 -0.76474909519E+01  0.10593401368E+04  0.95000000000E+03 0.  0.
   -2000013    1    1    2    0    0  0.60494331303E+02 -0.46474022540E+03  0.32757284307E+03  0.11088043149E+04  0.95000000000E+03 0.  0.
<mgrwt>
<rscale>  0 0.21444109E+04</rscale>
<asrwt>0</asrwt>
<pdfrwt beam="1">  1        2 0.19138998E+00 0.21444109E+04</pdfrwt>
<pdfrwt beam="2">  1       -2 0.14217070E+00 0.21444109E+04</pdfrwt>
<totfact> 0.56502298E+00</totfact>
</mgrwt>
</event>
<event>
 4    1  0.2482334E-008  0.2314033E+04  0.7816531E-02  0.8472408E-01
         -1   -1    0    0    0  501 -0.00000000000E+00  0.00000000000E+00  0.14960271209E+04  0.14960271209E+04  0.00000000000E+00 0. -1.
          1   -1    0    0  501    0  0.00000000000E+00 -0.00000000000E+00 -0.89482839437E+03  0.89482839437E+03  0.00000000000E+00 0.  1.
    2000013    1    1    2    0    0 -0.20260975363E+03 -0.57440000016E+03  0.56442222771E+03  0.12617680150E+04  0.95000000000E+03 0.  0.
   -2000013    1    1    2    0    0  0.20260975363E+03  0.57440000016E+03  0.36776498804E+02  0.11290875003E+04  0.95000000000E+03 0.  0.
<mgrwt>
<rscale>  0 0.23140333E+04</rscale>
<asrwt>0</asrwt>
<pdfrwt beam="2">  1        1 0.13766591E+00 0.23140333E+04</pdfrwt>
<pdfrwt beam="1">  1       -1 0.23015802E+00 0.23140333E+04</pdfrwt>
<totfact> 0.15620359E+00</totfact>
</mgrwt>
</event>
<event>
 4    1  0.2482334E-008  0.2331448E+04  0.7816531E-02  0.8465624E-01
          2   -1    0    0  501    0  0.00000000000E+00  0.00000000000E+00  0.17165025114E+04  0.17165025114E+04  0.00000000000E+00 0.  1.
         -2   -1    0    0    0  501 -0.00000000000E+00 -0.00000000000E+00 -0.79167516474E+03  0.79167516474E+03  0.00000000000E+00 0. -1.
    2000013    1    1    2    0    0 -0.65624858147E+03 -0.56282136335E+02  0.62407973471E+03  0.13136991264E+04  0.95000000000E+03 0.  0.
   -2000013    1    1    2    0    0  0.65624858147E+03  0.56282136335E+02  0.30074761193E+03  0.11944785497E+04  0.95000000000E+03 0.  0.
<mgrwt>
<rscale>  0 0.23314480E+04</rscale>
<asrwt>0</asrwt>
<pdfrwt beam="1">  1        2 0.26407731E+00 0.23314480E+04</pdfrwt>
<pdfrwt beam="2">  1       -2 0.12179618E+00 0.23314480E+04</pdfrwt>
<totfact> 0.44434270E+00</totfact>
</mgrwt>
</event>
<event>
 4    1  0.2482334E-008  0.2853306E+04  0.7816531E-02  0.8286908E-01
          2   -1    0    0  501    0  0.00000000000E+00  0.00000000000E+00  0.15860260537E+04  0.15860260537E+04  0.00000000000E+00 0.  1.
         -2   -1    0    0    0  501 -0.00000000000E+00 -0.00000000000E+00 -0.12832942597E+04  0.12832942597E+04  0.00000000000E+00 0. -1.
    2000013    1    1    2    0    0  0.10127540327E+04  0.15298196949E+03 -0.13967849905E+03  0.14039530964E+04  0.95000000000E+03 0.  0.
   -2000013    1    1    2    0    0 -0.10127540327E+04 -0.15298196949E+03  0.44241029306E+03  0.14653672171E+04  0.95000000000E+03 0.  0.
<mgrwt>
<rscale>  0 0.28533055E+04</rscale>
<asrwt>0</asrwt>
<pdfrwt beam="1">  1        2 0.24400401E+00 0.28533055E+04</pdfrwt>
<pdfrwt beam="2">  1       -2 0.19742989E+00 0.28533055E+04</pdfrwt>
<totfact> 0.13605889E+00</totfact>
</mgrwt>
</event>
<event>
 4    1  0.2482334E-008  0.2221340E+04  0.7816531E-02  0.8509598E-01
          2   -1    0    0  501    0  0.00000000000E+00  0.00000000000E+00  0.13600854319E+04  0.13600854319E+04  0.00000000000E+00 0.  1.
         -2   -1    0    0    0  501 -0.00000000000E+00 -0.00000000000E+00 -0.90699283348E+03  0.90699283348E+03  0.00000000000E+00 0. -1.
    2000013    1    1    2    0    0 -0.53175925391E+03  0.12704316216E+03  0.40962745336E+03  0.11701292748E+04  0.95000000000E+03 0.  0.
   -2000013    1    1    2    0    0  0.53175925391E+03 -0.12704316216E+03  0.43465145086E+02  0.10969489906E+04  0.95000000000E+03 0.  0.
<mgrwt>
<rscale>  0 0.22213399E+04</rscale>
<asrwt>0</asrwt>
<pdfrwt beam="1">  1        2 0.20924391E+00 0.22213399E+04</pdfrwt>
<pdfrwt beam="2">  1       -2 0.13953736E+00 0.22213399E+04</pdfrwt>
<totfact> 0.50436291E+00</totfact>
</mgrwt>
</event>
<event>
 4    1  0.2482334E-008  0.2103803E+04  0.7816531E-02  0.8559570E-01
          2   -1    0    0  501    0  0.00000000000E+00  0.00000000000E+00  0.19436661987E+04  0.19436661987E+04  0.00000000000E+00 0.  1.
         -2   -1    0    0    0  501 -0.00000000000E+00 -0.00000000000E+00 -0.56928349182E+03  0.56928349182E+03  0.00000000000E+00 0. -1.
    2000013    1    1    2    0    0  0.28160079714E+03  0.33438644725E+03  0.82277279148E+03  0.13306270595E+04  0.95000000000E+03 0.  0.
   -2000013    1    1    2    0    0 -0.28160079714E+03 -0.33438644725E+03  0.55160991539E+03  0.11823226310E+04  0.95000000000E+03 0.  0.
<mgrwt>
<rscale>  0 0.21038033E+04</rscale>
<asrwt>0</asrwt>
<pdfrwt beam="1">  1        2 0.29902557E+00 0.21038033E+04</pdfrwt>
<pdfrwt beam="2">  1       -2 0.87582076E-01 0.21038033E+04</pdfrwt>
<totfact> 0.74432371E+00</totfact>
</mgrwt>
</event>
<event>
 4    1  0.2482334E-008  0.2042805E+04  0.7816531E-02  0.8586865E-01
         -2   -1    0    0    0  501 -0.00000000000E+00  0.00000000000E+00  0.10526370619E+04  0.10526370619E+04  0.00000000000E+00 0. -1.
          2   -1    0    0  501    0  0.00000000000E+00 -0.00000000000E+00 -0.99109523197E+03  0.99109523197E+03  0.00000000000E+00 0.  1.
    2000013    1    1    2    0    0 -0.10897128793E+03  0.26837560414E+03 -0.20779768072E+03  0.10146822570E+04  0.95000000000E+03 0.  0.
   -2000013    1    1    2    0    0  0.10897128793E+03 -0.26837560414E+03  0.26933951065E+03  0.10290500369E+04  0.95000000000E+03 0.  0.
<mgrwt>
<rscale>  0 0.20428055E+04</rscale>
<asrwt>0</asrwt>
<pdfrwt beam="2">  1        2 0.15247619E+00 0.20428055E+04</pdfrwt>
<pdfrwt beam="1">  1       -2 0.16194416E+00 0.20428055E+04</pdfrwt>
<totfact> 0.57583069E+00</totfact>
</mgrwt>
</event>
<event>
 4    1  0.2482334E-008  0.2510992E+04  0.7816531E-02  0.8399080E-01
          2   -1    0    0  501    0  0.00000000000E+00  0.00000000000E+00  0.21243853947E+04  0.21243853947E+04  0.00000000000E+00 0.  1.
         -2   -1    0    0    0  501 -0.00000000000E+00 -0.00000000000E+00 -0.74198875632E+03  0.74198875632E+03  0.00000000000E+00 0. -1.
    2000013    1    1    2    0    0  0.54136500343E+03 -0.54851763004E+03  0.36868325008E+03  0.12776443152E+04  0.95000000000E+03 0.  0.
   -2000013    1    1    2    0    0 -0.54136500343E+03  0.54851763004E+03  0.10137133883E+04  0.15887298357E+04  0.95000000000E+03 0.  0.
<mgrwt>
<rscale>  0 0.25109919E+04</rscale>
<asrwt>0</asrwt>
<pdfrwt beam="1">  1        2 0.32682852E+00 0.25109919E+04</pdfrwt>
<pdfrwt beam="2">  1       -2 0.11415212E+00 0.25109919E+04</pdfrwt>
<totfact> 0.30461320E+00</totfact>
</mgrwt>
</event>
<event>
 4    1  0.2482334E-008  0.3203878E+04  0.7816531E-02  0.8187794E-01
         -2   -1    0    0    0  501 -0.00000000000E+00  0.00000000000E+00  0.14398338795E+04  0.14398338795E+04  0.00000000000E+00 0. -1.
          2   -1    0    0  501    0  0.00000000000E+00 -0.00000000000E+00 -0.17822951492E+04  0.17822951492E+04  0.00000000000E+00 0.  1.
    2000013    1    1    2    0    0  0.96417930378E+03  0.44451026909E+03  0.56538819243E+03  0.15327736028E+04  0.95000000000E+03 0.  0.
   -2000013    1    1    2    0    0 -0.96417930378E+03 -0.44451026909E+03 -0.90784946219E+03  0.16893554259E+04  0.95000000000E+03 0.  0.
<mgrwt>
<rscale>  0 0.32038782E+04</rscale>
<asrwt>0</asrwt>
<pdfrwt beam="2">  1        2 0.27419925E+00 0.32038782E+04</pdfrwt>
<pdfrwt beam="1">  1       -2 0.22151291E+00 0.32038782E+04</pdfrwt>
<totfact> 0.71838021E-01</totfact>
</mgrwt>
</event>
<event>
 4    1  0.2482334E-008  0.2617576E+04  0.7816531E-02  0.8362255E-01
         -2   -1    0    0    0  501 -0.00000000000E+00  0.00000000000E+00  0.60490923157E+03  0.60490923157E+03  0.00000000000E+00 0. -1.
          2   -1    0    0  501    0  0.00000000000E+00 -0.00000000000E+00 -0.28317085289E+04  0.28317085289E+04  0.00000000000E+00 0.  1.
    2000013    1    1    2    0    0 -0.79652546579E+03 -0.40989263288E+03 -0.99625063545E+03  0.16424007175E+04  0.95000000000E+03 0.  0.
   -2000013    1    1    2    0    0  0.79652546579E+03  0.40989263288E+03 -0.12305486619E+04  0.17942170430E+04  0.95000000000E+03 0.  0.
<mgrwt>
<rscale>  0 0.26175765E+04</rscale>
<asrwt>0</asrwt>
<pdfrwt beam="2">  1        2 0.43564747E+00 0.26175765E+04</pdfrwt>
<pdfrwt beam="1">  1       -2 0.93062959E-01 0.26175765E+04</pdfrwt>
<totfact> 0.19103533E+00</totfact>
</mgrwt>
</event>
<event>
 4    1  0.2482334E-008  0.3044040E+04  0.7816531E-02  0.8231266E-01
         -2   -1    0    0    0  501 -0.00000000000E+00  0.00000000000E+00  0.11908081636E+04  0.11908081636E+04  0.00000000000E+00 0. -1.
          2   -1    0    0  501    0  0.00000000000E+00 -0.00000000000E+00 -0.19453554759E+04  0.19453554759E+04  0.00000000000E+00 0.  1.
    2000013    1    1    2    0    0 -0.91703238442E+03  0.46700990859E+03  0.23657542680E+03  0.14203924040E+04  0.95000000000E+03 0.  0.
   -2000013    1    1    2    0    0  0.91703238442E+03 -0.46700990859E+03 -0.99112273909E+03  0.17157712355E+04  0.95000000000E+03 0.  0.
<mgrwt>
<rscale>  0 0.30440402E+04</rscale>
<asrwt>0</asrwt>
<pdfrwt beam="2">  1        2 0.29928546E+00 0.30440402E+04</pdfrwt>
<pdfrwt beam="1">  1       -2 0.18320126E+00 0.30440402E+04</pdfrwt>
<totfact> 0.10535015E+00</totfact>
</mgrwt>
</event>
<event>
 4    1  0.2482334E-008  0.3141934E+04  0.7816531E-02  0.8204323E-01
         -2   -1    0    0    0  501 -0.00000000000E+00  0.00000000000E+00  0.98242614847E+03  0.98242614847E+03  0.00000000000E+00 0. -1.
          2   -1    0    0  501    0  0.00000000000E+00 -0.00000000000E+00 -0.25120836258E+04  0.25120836258E+04  0.00000000000E+00 0.  1.
    2000013    1    1    2    0    0 -0.94580874316E+03 -0.55919231796E+03 -0.99181989346E+02  0.14558802472E+04  0.95000000000E+03 0.  0.
   -2000013    1    1    2    0    0  0.94580874316E+03  0.55919231796E+03 -0.14304754880E+04  0.20386295271E+04  0.95000000000E+03 0.  0.
<mgrwt>
<rscale>  0 0.31419336E+04</rscale>
<asrwt>0</asrwt>
<pdfrwt beam="2">  1        2 0.38647439E+00 0.31419336E+04</pdfrwt>
<pdfrwt beam="1">  1       -2 0.15114249E+00 0.31419336E+04</pdfrwt>
<totfact> 0.85083278E-01</totfact>
</mgrwt>
</event>
<event>
 4    1  0.2482334E-008  0.2111155E+04  0.7816531E-02  0.8556345E-01
          2   -1    0    0  501    0  0.00000000000E+00  0.00000000000E+00  0.35494867492E+04  0.35494867492E+04  0.00000000000E+00 0.  1.
         -2   -1    0    0    0  501 -0.00000000000E+00 -0.00000000000E+00 -0.31391681375E+03  0.31391681375E+03  0.00000000000E+00 0. -1.
    2000013    1    1    2    0    0  0.24925026366E+03  0.36765558790E+03  0.13978255616E+04  0.17474875181E+04  0.95000000000E+03 0.  0.
   -2000013    1    1    2    0    0 -0.24925026366E+03 -0.36765558790E+03  0.18377443738E+04  0.21159160448E+04  0.95000000000E+03 0.  0.
<mgrwt>
<rscale>  0 0.21111547E+04</rscale>
<asrwt>0</asrwt>
<pdfrwt beam="1">  1        2 0.54607486E+00 0.21111547E+04</pdfrwt>
<pdfrwt beam="2">  1       -2 0.48294897E-01 0.21111547E+04</pdfrwt>
<totfact> 0.28186681E+00</totfact>
</mgrwt>
</event>
<event>
 4    1  0.2482334E-008  0.2507508E+04  0.7816531E-02  0.8400316E-01
          2   -1    0    0  501    0  0.00000000000E+00  0.00000000000E+00  0.29650131358E+04  0.29650131358E+04  0.00000000000E+00 0.  1.
         -2   -1    0    0    0  501 -0.00000000000E+00 -0.00000000000E+00 -0.53014912650E+03  0.53014912650E+03  0.00000000000E+00 0. -1.
    2000013    1    1    2    0    0 -0.67771616376E+03  0.30861341031E+03  0.74503727178E+03  0.14184928523E+04  0.95000000000E+03 0.  0.
   -2000013    1    1    2    0    0  0.67771616376E+03 -0.30861341031E+03  0.16898267375E+04  0.20766694100E+04  0.95000000000E+03 0.  0.
<mgrwt>
<rscale>  0 0.25075080E+04</rscale>
<asrwt>0</asrwt>
<pdfrwt beam="1">  1        2 0.45615586E+00 0.25075080E+04</pdfrwt>
<pdfrwt beam="2">  1       -2 0.81561406E-01 0.25075080E+04</pdfrwt>
<totfact> 0.21600281E+00</totfact>
</mgrwt>
</event>
<event>
 4    1  0.2482334E-008  0.2199145E+04  0.7816531E-02  0.8518784E-01
         -2   -1    0    0    0  501 -0.00000000000E+00  0.00000000000E+00  0.12410761570E+04  0.12410761570E+04  0.00000000000E+00 0. -1.
          2   -1    0    0  501    0  0.00000000000E+00 -0.00000000000E+00 -0.97420284269E+03  0.97420284269E+03  0.00000000000E+00 0.  1.
    2000013    1    1    2    0    0 -0.54720352988E+03 -0.84023564001E+02  0.12511422186E+03  0.11066369011E+04  0.95000000000E+03 0.  0.
   -2000013    1    1    2    0    0  0.54720352988E+03  0.84023564001E+02  0.14175909245E+03  0.11086420986E+04  0.95000000000E+03 0.  0.
<mgrwt>
<rscale>  0 0.21991452E+04</rscale>
<asrwt>0</asrwt>
<pdfrwt beam="2">  1        2 0.14987736E+00 0.21991452E+04</pdfrwt>
<pdfrwt beam="1">  1       -2 0.19093479E+00 0.21991452E+04</pdfrwt>
<totfact> 0.36547128E+00</totfact>
</mgrwt>
</event>
<event>
 4    1  0.2482334E-008  0.3392425E+04  0.7816531E-02  0.8139768E-01
          2   -1    0    0  501    0  0.00000000000E+00  0.00000000000E+00  0.16874257797E+04  0.16874257797E+04  0.00000000000E+00 0.  1.
         -2   -1    0    0    0  501 -0.00000000000E+00 -0.00000000000E+00 -0.17050452060E+04  0.17050452060E+04  0.00000000000E+00 0. -1.
    2000013    1    1    2    0    0  0.70976277210E+03 -0.11508962863E+04 -0.39132210306E+03  0.16982221418E+04  0.95000000000E+03 0.  0.
   -2000013    1    1    2    0    0 -0.70976277210E+03  0.11508962863E+04  0.37370267677E+03  0.16942488439E+04  0.95000000000E+03 0.  0.
<mgrwt>
<rscale>  0 0.33924252E+04</rscale>
<asrwt>0</asrwt>
<pdfrwt beam="1">  1        2 0.25960397E+00 0.33924252E+04</pdfrwt>
<pdfrwt beam="2">  1       -2 0.26231465E+00 0.33924252E+04</pdfrwt>
<totfact> 0.44615817E-01</totfact>
</mgrwt>
</event>
<event>
 4    1  0.2482334E-008  0.2370570E+04  0.7816531E-02  0.8450605E-01
          2   -1    0    0  501    0  0.00000000000E+00  0.00000000000E+00  0.24390622260E+04  0.24390622260E+04  0.00000000000E+00 0.  1.
         -2   -1    0    0    0  501 -0.00000000000E+00 -0.00000000000E+00 -0.57600029441E+03  0.57600029441E+03  0.00000000000E+00 0. -1.
    2000013    1    1    2    0    0 -0.49861072670E+03  0.82322658042E+02  0.15636539447E+04  0.18981315380E+04  0.95000000000E+03 0.  0.
   -2000013    1    1    2    0    0  0.49861072670E+03 -0.82322658042E+02  0.29940798686E+03  0.11169309824E+04  0.95000000000E+03 0.  0.
<mgrwt>
<rscale>  0 0.23705700E+04</rscale>
<asrwt>0</asrwt>
<pdfrwt beam="1">  1        2 0.37524034E+00 0.23705700E+04</pdfrwt>
<pdfrwt beam="2">  1       -2 0.88615431E-01 0.23705700E+04</pdfrwt>
<totfact> 0.37267366E+00</totfact>
</mgrwt>
</event>
<event>
 4    1  0.2482334E-008  0.2589217E+04  0.7816531E-02  0.8371873E-01
          2   -1    0    0  501    0  0.00000000000E+00  0.00000000000E+00  0.18297285576E+04  0.18297285576E+04  0.00000000000E+00 0.  1.
         -2   -1    0    0    0  501 -0.00000000000E+00 -0.00000000000E+00 -0.91598892864E+03  0.91598892864E+03  0.00000000000E+00 0. -1.
    2000013    1    1    2    0    0  0.49387798743E+02 -0.62314690439E+03 -0.19920084293E+03  0.11545268273E+04  0.95000000000E+03 0.  0.
   -2000013    1    1    2    0    0 -0.49387798743E+02  0.62314690439E+03  0.11129404719E+04  0.15911906589E+04  0.95000000000E+03 0.  0.
<mgrwt>
<rscale>  0 0.25892169E+04</rscale>
<asrwt>0</asrwt>
<pdfrwt beam="1">  1        2 0.28149670E+00 0.25892169E+04</pdfrwt>
<pdfrwt beam="2">  1       -2 0.14092137E+00 0.25892169E+04</pdfrwt>
<totfact> 0.25970739E+00</totfact>
</mgrwt>
</event>
<event>
 4    1  0.2482334E-008  0.2169781E+04  0.7816531E-02  0.8531112E-01
          2   -1    0    0  501    0  0.00000000000E+00  0.00000000000E+00  0.10458520884E+04  0.10458520884E+04  0.00000000000E+00 0.  1.
         -2   -1    0    0    0  501 -0.00000000000E+00 -0.00000000000E+00 -0.11253860098E+04  0.11253860098E+04  0.00000000000E+00 0. -1.
    2000013    1    1    2    0    0  0.15645840241E+03  0.49448978113E+03 -0.11389729804E+03  0.10883344935E+04  0.95000000000E+03 0.  0.
   -2000013    1    1    2    0    0 -0.15645840241E+03 -0.49448978113E+03  0.34363376612E+02  0.10829036047E+04  0.95000000000E+03 0.  0.
<mgrwt>
<rscale>  0 0.21697809E+04</rscale>
<asrwt>0</asrwt>
<pdfrwt beam="1">  1        2 0.16090032E+00 0.21697809E+04</pdfrwt>
<pdfrwt beam="2">  1       -2 0.17313631E+00 0.21697809E+04</pdfrwt>
<totfact> 0.43692917E+00</totfact>
</mgrwt>
</event>
<event>
 4    1  0.2482334E-008  0.2426483E+04  0.7816531E-02  0.8429655E-01
         -2   -1    0    0    0  501 -0.00000000000E+00  0.00000000000E+00  0.48701133532E+03  0.48701133532E+03  0.00000000000E+00 0. -1.
          2   -1    0    0  501    0  0.00000000000E+00 -0.00000000000E+00 -0.30224246664E+04  0.30224246664E+04  0.00000000000E+00 0.  1.
    2000013    1    1    2    0    0  0.19893858184E+03 -0.54105248453E+03 -0.56339785175E+03  0.12458858253E+04  0.95000000000E+03 0.  0.
   -2000013    1    1    2    0    0 -0.19893858184E+03  0.54105248453E+03 -0.19720154793E+04  0.22635501764E+04  0.95000000000E+03 0.  0.
<mgrwt>
<rscale>  0 0.24264831E+04</rscale>
<asrwt>0</asrwt>
<pdfrwt beam="2">  1        2 0.46498840E+00 0.24264831E+04</pdfrwt>
<pdfrwt beam="1">  1       -2 0.74924822E-01 0.24264831E+04</pdfrwt>
<totfact> 0.24214190E+00</totfact>
</mgrwt>
</event>
<event>
 4    1  0.2482334E-008  0.2816673E+04  0.7816531E-02  0.8298111E-01
          1   -1    0    0  501    0  0.00000000000E+00  0.00000000000E+00  0.18310069122E+04  0.18310069122E+04  0.00000000000E+00 0. -1.
         -1   -1    0    0    0  501 -0.00000000000E+00 -0.00000000000E+00 -0.10832355528E+04  0.10832355528E+04  0.00000000000E+00 0.  1.
    2000013    1    1    2    0    0 -0.49213554881E+03  0.84089444148E+03  0.74923463555E+03  0.15534327791E+04  0.95000000000E+03 0.  0.
   -2000013    1    1    2    0    0  0.49213554881E+03 -0.84089444148E+03 -0.14632761983E+01  0.13608096859E+04  0.95000000000E+03 0.  0.
<mgrwt>
<rscale>  0 0.28166731E+04</rscale>
<asrwt>0</asrwt>
<pdfrwt beam="1">  1        1 0.28169337E+00 0.28166731E+04</pdfrwt>
<pdfrwt beam="2">  1       -1 0.16665162E+00 0.28166731E+04</pdfrwt>
<totfact> 0.87400601E-01</totfact>
</mgrwt>
</event>
<event>
 4    1  0.2482334E-008  0.2672434E+04  0.7816531E-02  0.8344005E-01
         -2   -1    0    0    0  501 -0.00000000000E+00  0.00000000000E+00  0.90765983684E+03  0.90765983684E+03  0.00000000000E+00 0. -1.
          2   -1    0    0  501    0  0.00000000000E+00 -0.00000000000E+00 -0.19671206681E+04  0.19671206681E+04  0.00000000000E+00 0.  1.
    2000013    1    1    2    0    0 -0.53577694660E+03 -0.76862822430E+03 -0.60677857769E+03  0.14657852933E+04  0.95000000000E+03 0.  0.
   -2000013    1    1    2    0    0  0.53577694660E+03  0.76862822430E+03 -0.45268225355E+03  0.14089952116E+04  0.95000000000E+03 0.  0.
<mgrwt>
<rscale>  0 0.26724344E+04</rscale>
<asrwt>0</asrwt>
<pdfrwt beam="2">  1        2 0.30263395E+00 0.26724344E+04</pdfrwt>
<pdfrwt beam="1">  1       -2 0.13963998E+00 0.26724344E+04</pdfrwt>
<totfact> 0.22156549E+00</totfact>
</mgrwt>
</event>
<event>
 4    1  0.2482334E-008  0.2840072E+04  0.7816531E-02  0.8290935E-01
          2   -1    0    0  501    0  0.00000000000E+00  0.00000000000E+00  0.21401689750E+04  0.21401689750E+04  0.00000000000E+00 0.  1.
         -2   -1    0    0    0  501 -0.00000000000E+00 -0.00000000000E+00 -0.94221611542E+03  0.94221611542E+03  0.00000000000E+00 0. -1.
    2000013    1    1    2    0    0 -0.10252315476E+04 -0.15348154978E+03  0.81425683714E+03  0.16248601507E+04  0.95000000000E+03 0.  0.
   -2000013    1    1    2    0    0  0.10252315476E+04  0.15348154978E+03  0.38369602245E+03  0.14575249398E+04  0.95000000000E+03 0.  0.
<mgrwt>
<rscale>  0 0.28400716E+04</rscale>
<asrwt>0</asrwt>
<pdfrwt beam="1">  1        2 0.32925677E+00 0.28400716E+04</pdfrwt>
<pdfrwt beam="2">  1       -2 0.14495633E+00 0.28400716E+04</pdfrwt>
<totfact> 0.15868768E+00</totfact>
</mgrwt>
</event>
<event>
 4    1  0.2482334E-008  0.2499336E+04  0.7816531E-02  0.8403222E-01
          2   -1    0    0  501    0  0.00000000000E+00  0.00000000000E+00  0.10414909833E+04  0.10414909833E+04  0.00000000000E+00 0.  1.
         -2   -1    0    0    0  501 -0.00000000000E+00 -0.00000000000E+00 -0.14994566061E+04  0.14994566061E+04  0.00000000000E+00 0. -1.
    2000013    1    1    2    0    0  0.73853061211E+03 -0.19857639988E+03 -0.50612079137E+03  0.13204235332E+04  0.95000000000E+03 0.  0.
   -2000013    1    1    2    0    0 -0.73853061211E+03  0.19857639988E+03  0.48155168570E+02  0.12205240562E+04  0.95000000000E+03 0.  0.
<mgrwt>
<rscale>  0 0.24993363E+04</rscale>
<asrwt>0</asrwt>
<pdfrwt beam="1">  1        2 0.16022938E+00 0.24993363E+04</pdfrwt>
<pdfrwt beam="2">  1       -2 0.23068563E+00 0.24993363E+04</pdfrwt>
<totfact> 0.17892772E+00</totfact>
</mgrwt>
</event>
<event>
 4    1  0.2482334E-008  0.2704832E+04  0.7816531E-02  0.8333439E-01
         -2   -1    0    0    0  501 -0.00000000000E+00  0.00000000000E+00  0.12260636753E+04  0.12260636753E+04  0.00000000000E+00 0. -1.
          2   -1    0    0  501    0  0.00000000000E+00 -0.00000000000E+00 -0.14917890787E+04  0.14917890787E+04  0.00000000000E+00 0.  1.
    2000013    1    1    2    0    0 -0.83780827312E+03  0.20210219159E+03  0.29787379388E+03  0.13168131209E+04  0.95000000000E+03 0.  0.
   -2000013    1    1    2    0    0  0.83780827312E+03 -0.20210219159E+03 -0.56359919730E+03  0.14010396331E+04  0.95000000000E+03 0.  0.
<mgrwt>
<rscale>  0 0.27048315E+04</rscale>
<asrwt>0</asrwt>
<pdfrwt beam="2">  1        2 0.22950601E+00 0.27048315E+04</pdfrwt>
<pdfrwt beam="1">  1       -2 0.18862518E+00 0.27048315E+04</pdfrwt>
<totfact> 0.17817685E+00</totfact>
</mgrwt>
</event>
<event>
 4    1  0.2482334E-008  0.2143690E+04  0.7816531E-02  0.8542238E-01
         -2   -1    0    0    0  501 -0.00000000000E+00  0.00000000000E+00  0.11205710408E+04  0.11205710408E+04  0.00000000000E+00 0. -1.
          2   -1    0    0  501    0  0.00000000000E+00 -0.00000000000E+00 -0.10252374692E+04  0.10252374692E+04  0.00000000000E+00 0.  1.
    2000013    1    1    2    0    0  0.21320091381E+03  0.32904605984E+03  0.35231193578E+03  0.10864389717E+04  0.95000000000E+03 0.  0.
   -2000013    1    1    2    0    0 -0.21320091381E+03 -0.32904605984E+03 -0.25697836415E+03  0.10593695384E+04  0.95000000000E+03 0.  0.
<mgrwt>
<rscale>  0 0.21436897E+04</rscale>
<asrwt>0</asrwt>
<pdfrwt beam="2">  1        2 0.15772884E+00 0.21436897E+04</pdfrwt>
<pdfrwt beam="1">  1       -2 0.17239555E+00 0.21436897E+04</pdfrwt>
<totfact> 0.45668341E+00</totfact>
</mgrwt>
</event>
<event>
 4    1  0.2482334E-008  0.3141251E+04  0.7816531E-02  0.8204507E-01
         -2   -1    0    0    0  501 -0.00000000000E+00  0.00000000000E+00  0.11630075079E+04  0.11630075079E+04  0.00000000000E+00 0. -1.
          2   -1    0    0  501    0  0.00000000000E+00 -0.00000000000E+00 -0.21211073036E+04  0.21211073036E+04  0.00000000000E+00 0.  1.
    2000013    1    1    2    0    0 -0.70783941029E+03  0.95795032875E+03 -0.87805946580E+03  0.17584635022E+04  0.95000000000E+03 0.  0.
   -2000013    1    1    2    0    0  0.70783941029E+03 -0.95795032875E+03 -0.80040329875E+02  0.15256513093E+04  0.95000000000E+03 0.  0.
<mgrwt>
<rscale>  0 0.31412505E+04</rscale>
<asrwt>0</asrwt>
<pdfrwt beam="2">  1        2 0.32632420E+00 0.31412505E+04</pdfrwt>
<pdfrwt beam="1">  1       -2 0.17892423E+00 0.31412505E+04</pdfrwt>
<totfact> 0.89255763E-01</totfact>
</mgrwt>
</event>
<event>
 4    1  0.2482334E-008  0.2322664E+04  0.7816531E-02  0.8469038E-01
          1   -1    0    0  501    0  0.00000000000E+00  0.00000000000E+00  0.14031116547E+04  0.14031116547E+04  0.00000000000E+00 0.  1.
         -1   -1    0    0    0  501 -0.00000000000E+00 -0.00000000000E+00 -0.96121510645E+03  0.96121510645E+03  0.00000000000E+00 0. -1.
    2000013    1    1    2    0    0  0.56800339833E+03  0.16990633473E+02  0.57835244242E+03  0.12489628056E+04  0.95000000000E+03 0.  0.
   -2000013    1    1    2    0    0 -0.56800339833E+03 -0.16990633473E+02 -0.13645589421E+03  0.11153639555E+04  0.95000000000E+03 0.  0.
<mgrwt>
<rscale>  0 0.23226641E+04</rscale>
<asrwt>0</asrwt>
<pdfrwt beam="1">  1        1 0.21586333E+00 0.23226641E+04</pdfrwt>
<pdfrwt beam="2">  1       -1 0.14787925E+00 0.23226641E+04</pdfrwt>
<totfact> 0.25001727E+00</totfact>
</mgrwt>
</event>
<event>
 4    1  0.2482334E-008  0.2975973E+04  0.7816531E-02  0.8250625E-01
         -2   -1    0    0    0  501 -0.00000000000E+00  0.00000000000E+00  0.19293525035E+04  0.19293525035E+04  0.00000000000E+00 0. -1.
          2   -1    0    0  501    0  0.00000000000E+00 -0.00000000000E+00 -0.11475889736E+04  0.11475889736E+04  0.00000000000E+00 0.  1.
    2000013    1    1    2    0    0  0.10603563094E+04 -0.13019758970E+03 -0.35789541650E+02  0.14300656651E+04  0.95000000000E+03 0.  0.
   -2000013    1    1    2    0    0 -0.10603563094E+04  0.13019758970E+03  0.81755307158E+03  0.16468758120E+04  0.95000000000E+03 0.  0.
<mgrwt>
<rscale>  0 0.29759729E+04</rscale>
<asrwt>0</asrwt>
<pdfrwt beam="2">  1        2 0.17655215E+00 0.29759729E+04</pdfrwt>
<pdfrwt beam="1">  1       -2 0.29682346E+00 0.29759729E+04</pdfrwt>
<totfact> 0.58072351E-01</totfact>
</mgrwt>
</event>
<event>
 4    1  0.2482334E-008  0.2265636E+04  0.7816531E-02  0.8491595E-01
          2   -1    0    0  501    0  0.00000000000E+00  0.00000000000E+00  0.10877423898E+04  0.10877423898E+04  0.00000000000E+00 0.  1.
         -2   -1    0    0    0  501 -0.00000000000E+00 -0.00000000000E+00 -0.11797613177E+04  0.11797613177E+04  0.00000000000E+00 0. -1.
    2000013    1    1    2    0    0  0.13447780302E+03 -0.58127140865E+03  0.11165029819E+03  0.11273537684E+04  0.95000000000E+03 0.  0.
   -2000013    1    1    2    0    0 -0.13447780302E+03  0.58127140865E+03 -0.20366922600E+03  0.11401499391E+04  0.95000000000E+03 0.  0.
<mgrwt>
<rscale>  0 0.22656358E+04</rscale>
<asrwt>0</asrwt>
<pdfrwt beam="1">  1        2 0.16734498E+00 0.22656358E+04</pdfrwt>
<pdfrwt beam="2">  1       -2 0.18150174E+00 0.22656358E+04</pdfrwt>
<totfact> 0.35683608E+00</totfact>
</mgrwt>
</event>
<event>
 4    1  0.2482334E-008  0.2316194E+04  0.7816531E-02  0.8471563E-01
          2   -1    0    0  501    0  0.00000000000E+00  0.00000000000E+00  0.25152447581E+04  0.25152447581E+04  0.00000000000E+00 0.  1.
         -2   -1    0    0    0  501 -0.00000000000E+00 -0.00000000000E+00 -0.53322368782E+03  0.53322368782E+03  0.00000000000E+00 0. -1.
    2000013    1    1    2    0    0  0.27918618641E+03  0.54243896765E+03  0.65159798801E+03  0.13035585519E+04  0.95000000000E+03 0.  0.
   -2000013    1    1    2    0    0 -0.27918618641E+03 -0.54243896765E+03  0.13304230822E+04  0.17449098940E+04  0.95000000000E+03 0.  0.
<mgrwt>
<rscale>  0 0.23161935E+04</rscale>
<asrwt>0</asrwt>
<pdfrwt beam="1">  1        2 0.38696073E+00 0.23161935E+04</pdfrwt>
<pdfrwt beam="2">  1       -2 0.82034415E-01 0.23161935E+04</pdfrwt>
<totfact> 0.40335250E+00</totfact>
</mgrwt>
</event>
<event>
 4    1  0.2482334E-008  0.2576303E+04  0.7816531E-02  0.8376295E-01
         -2   -1    0    0    0  501 -0.00000000000E+00  0.00000000000E+00  0.11805440472E+04  0.11805440472E+04  0.00000000000E+00 0. -1.
          2   -1    0    0  501    0  0.00000000000E+00 -0.00000000000E+00 -0.14055672724E+04  0.14055672724E+04  0.00000000000E+00 0.  1.
    2000013    1    1    2    0    0  0.19337258868E+02 -0.86720365208E+03 -0.45790725425E+02  0.12872501289E+04  0.95000000000E+03 0.  0.
   -2000013    1    1    2    0    0 -0.19337258868E+02  0.86720365208E+03 -0.17923249983E+03  0.12988611907E+04  0.95000000000E+03 0.  0.
<mgrwt>
<rscale>  0 0.25763028E+04</rscale>
<asrwt>0</asrwt>
<pdfrwt beam="2">  1        2 0.21624112E+00 0.25763028E+04</pdfrwt>
<pdfrwt beam="1">  1       -2 0.18162216E+00 0.25763028E+04</pdfrwt>
<totfact> 0.22500805E+00</totfact>
</mgrwt>
</event>
<event>
 4    1  0.2482334E-008  0.4069451E+04  0.7816531E-02  0.7990681E-01
          2   -1    0    0  501    0  0.00000000000E+00  0.00000000000E+00  0.39020300261E+04  0.39020300261E+04  0.00000000000E+00 0.  1.
         -2   -1    0    0    0  501 -0.00000000000E+00 -0.00000000000E+00 -0.10610140412E+04  0.10610140412E+04  0.00000000000E+00 0. -1.
    2000013    1    1    2    0    0  0.11349342706E+04  0.17324245354E+03  0.31102039928E+04  0.34487617522E+04  0.95000000000E+03 0.  0.
   -2000013    1    1    2    0    0 -0.11349342706E+04 -0.17324245354E+03 -0.26918800788E+03  0.15142823151E+04  0.95000000000E+03 0.  0.
<mgrwt>
<rscale>  0 0.40694514E+04</rscale>
<asrwt>0</asrwt>
<pdfrwt beam="1">  1        2 0.60031230E+00 0.40694514E+04</pdfrwt>
<pdfrwt beam="2">  1       -2 0.16323293E+00 0.40694514E+04</pdfrwt>
<totfact> 0.76368402E-02</totfact>
</mgrwt>
</event>
<event>
 4    1  0.2482334E-008  0.2401723E+04  0.7816531E-02  0.8438859E-01
         -1   -1    0    0    0  501 -0.00000000000E+00  0.00000000000E+00  0.76564562180E+03  0.76564562180E+03  0.00000000000E+00 0. -1.
          1   -1    0    0  501    0  0.00000000000E+00 -0.00000000000E+00 -0.18834675235E+04  0.18834675235E+04  0.00000000000E+00 0.  1.
    2000013    1    1    2    0    0 -0.31658930961E+03 -0.64665111202E+03 -0.71944353361E+03  0.13922950297E+04  0.95000000000E+03 0.  0.
   -2000013    1    1    2    0    0  0.31658930961E+03  0.64665111202E+03 -0.39837836814E+03  0.12568181157E+04  0.95000000000E+03 0.  0.
<mgrwt>
<rscale>  0 0.24017233E+04</rscale>
<asrwt>0</asrwt>
<pdfrwt beam="2">  1        1 0.28976423E+00 0.24017233E+04</pdfrwt>
<pdfrwt beam="1">  1       -1 0.11779164E+00 0.24017233E+04</pdfrwt>
<totfact> 0.20749375E+00</totfact>
</mgrwt>
</event>
<event>
 4    1  0.2482334E-008  0.2666110E+04  0.7816531E-02  0.8346085E-01
          2   -1    0    0  501    0  0.00000000000E+00  0.00000000000E+00  0.14689909766E+04  0.14689909766E+04  0.00000000000E+00 0.  1.
         -2   -1    0    0    0  501 -0.00000000000E+00 -0.00000000000E+00 -0.12096983461E+04  0.12096983461E+04  0.00000000000E+00 0. -1.
    2000013    1    1    2    0    0 -0.35235108771E+03 -0.71371409041E+03  0.62287683099E+03  0.13870885474E+04  0.95000000000E+03 0.  0.
   -2000013    1    1    2    0    0  0.35235108771E+03  0.71371409041E+03 -0.36358420044E+03  0.12916007753E+04  0.95000000000E+03 0.  0.
<mgrwt>
<rscale>  0 0.26661102E+04</rscale>
<asrwt>0</asrwt>
<pdfrwt beam="1">  1        2 0.22599861E+00 0.26661102E+04</pdfrwt>
<pdfrwt beam="2">  1       -2 0.18610744E+00 0.26661102E+04</pdfrwt>
<totfact> 0.19150625E+00</totfact>
</mgrwt>
</event>
<event>
 4    1  0.2482334E-008  0.2562975E+04  0.7816531E-02  0.8380888E-01
         -2   -1    0    0    0  501 -0.00000000000E+00  0.00000000000E+00  0.66681298475E+03  0.66681298475E+03  0.00000000000E+00 0. -1.
          2   -1    0    0  501    0  0.00000000000E+00 -0.00000000000E+00 -0.24627752001E+04  0.24627752001E+04  0.00000000000E+00 0.  1.
    2000013    1    1    2    0    0 -0.76106711530E+03  0.21319223866E+03 -0.48382847727E+03  0.13271262487E+04  0.95000000000E+03 0.  0.
   -2000013    1    1    2    0    0  0.76106711530E+03 -0.21319223866E+03 -0.13121337381E+04  0.18024619361E+04  0.95000000000E+03 0.  0.
<mgrwt>
<rscale>  0 0.25629752E+04</rscale>
<asrwt>0</asrwt>
<pdfrwt beam="2">  1        2 0.37888850E+00 0.25629752E+04</pdfrwt>
<pdfrwt beam="1">  1       -2 0.10258661E+00 0.25629752E+04</pdfrwt>
<totfact> 0.25221811E+00</totfact>
</mgrwt>
</event>
<event>
 4    1  0.2482334E-008  0.3784124E+04  0.7816531E-02  0.8049570E-01
         -2   -1    0    0    0  501 -0.00000000000E+00  0.00000000000E+00  0.19030485569E+04  0.19030485569E+04  0.00000000000E+00 0.  1.
          2   -1    0    0  501    0  0.00000000000E+00 -0.00000000000E+00 -0.18811391801E+04  0.18811391801E+04  0.00000000000E+00 0. -1.
    2000013    1    1    2    0    0 -0.14815264872E+04 -0.68770585763E+03  0.10862475875E+03  0.18926593505E+04  0.95000000000E+03 0.  0.
   -2000013    1    1    2    0    0  0.14815264872E+04  0.68770585763E+03 -0.86715381937E+02  0.18915283864E+04  0.95000000000E+03 0.  0.
<mgrwt>
<rscale>  0 0.37841243E+04</rscale>
<asrwt>0</asrwt>
<pdfrwt beam="2">  1        2 0.28940603E+00 0.37841243E+04</pdfrwt>
<pdfrwt beam="1">  1       -2 0.29277670E+00 0.37841243E+04</pdfrwt>
<totfact> 0.21975602E-01</totfact>
</mgrwt>
</event>
<event>
 4    1  0.2482334E-008  0.2314528E+04  0.7816531E-02  0.8472215E-01
          2   -1    0    0  501    0  0.00000000000E+00  0.00000000000E+00  0.23001729922E+04  0.23001729922E+04  0.00000000000E+00 0.  1.
         -2   -1    0    0    0  501 -0.00000000000E+00 -0.00000000000E+00 -0.58224304601E+03  0.58224304601E+03  0.00000000000E+00 0. -1.
    2000013    1    1    2    0    0  0.60362145934E+03  0.41595877877E+02  0.11900303741E+04  0.16385241453E+04  0.95000000000E+03 0.  0.
   -2000013    1    1    2    0    0 -0.60362145934E+03 -0.41595877877E+02  0.52789957211E+03  0.12438918930E+04  0.95000000000E+03 0.  0.
<mgrwt>
<rscale>  0 0.23145278E+04</rscale>
<asrwt>0</asrwt>
<pdfrwt beam="1">  1        2 0.35387276E+00 0.23145278E+04</pdfrwt>
<pdfrwt beam="2">  1       -2 0.89575855E-01 0.23145278E+04</pdfrwt>
<totfact> 0.43845871E+00</totfact>
</mgrwt>
</event>
<event>
 4    1  0.2482334E-008  0.2942976E+04  0.7816531E-02  0.8260204E-01
         -2   -1    0    0    0  501 -0.00000000000E+00  0.00000000000E+00  0.11898924589E+04  0.11898924589E+04  0.00000000000E+00 0. -1.
          2   -1    0    0  501    0  0.00000000000E+00 -0.00000000000E+00 -0.18197254610E+04  0.18197254610E+04  0.00000000000E+00 0.  1.
    2000013    1    1    2    0    0  0.80010839158E+03 -0.30813233974E+03  0.42793344776E+03  0.13493502187E+04  0.95000000000E+03 0.  0.
   -2000013    1    1    2    0    0 -0.80010839158E+03  0.30813233974E+03 -0.10577664499E+04  0.16602677012E+04  0.95000000000E+03 0.  0.
<mgrwt>
<rscale>  0 0.29429765E+04</rscale>
<asrwt>0</asrwt>
<pdfrwt beam="2">  1        2 0.27995776E+00 0.29429765E+04</pdfrwt>
<pdfrwt beam="1">  1       -2 0.18306038E+00 0.29429765E+04</pdfrwt>
<totfact> 0.12501640E+00</totfact>
</mgrwt>
</event>
<event>
 4    1  0.2482334E-008  0.2968992E+04  0.7816531E-02  0.8252641E-01
         -1   -1    0    0    0  501 -0.00000000000E+00  0.00000000000E+00  0.91800426944E+03  0.91800426944E+03  0.00000000000E+00 0. -1.
          1   -1    0    0  501    0  0.00000000000E+00 -0.00000000000E+00 -0.24005636111E+04  0.24005636111E+04  0.00000000000E+00 0.  1.
    2000013    1    1    2    0    0  0.11119336717E+04  0.12105490342E+03 -0.99165613822E+03  0.17711388078E+04  0.95000000000E+03 0.  0.
   -2000013    1    1    2    0    0 -0.11119336717E+04 -0.12105490342E+03 -0.49090320342E+03  0.15474290727E+04  0.95000000000E+03 0.  0.
<mgrwt>
<rscale>  0 0.29689915E+04</rscale>
<asrwt>0</asrwt>
<pdfrwt beam="2">  1        1 0.36931748E+00 0.29689915E+04</pdfrwt>
<pdfrwt beam="1">  1       -1 0.14123143E+00 0.29689915E+04</pdfrwt>
<totfact> 0.55465229E-01</totfact>
</mgrwt>
</event>
<event>
 4    1  0.2482334E-008  0.3100392E+04  0.7816531E-02  0.8215630E-01
         -2   -1    0    0    0  501 -0.00000000000E+00  0.00000000000E+00  0.86555190002E+03  0.86555190002E+03  0.00000000000E+00 0. -1.
          2   -1    0    0  501    0  0.00000000000E+00 -0.00000000000E+00 -0.27763881751E+04  0.27763881751E+04  0.00000000000E+00 0.  1.
    2000013    1    1    2    0    0 -0.60962238385E+03 -0.57603757480E+03  0.93365710512E+02  0.12706989787E+04  0.95000000000E+03 0.  0.
   -2000013    1    1    2    0    0  0.60962238385E+03  0.57603757480E+03 -0.20042019856E+04  0.23712410964E+04  0.95000000000E+03 0.  0.
<mgrwt>
<rscale>  0 0.31003923E+04</rscale>
<asrwt>0</asrwt>
<pdfrwt beam="2">  1        2 0.42713665E+00 0.31003923E+04</pdfrwt>
<pdfrwt beam="1">  1       -2 0.13316183E+00 0.31003923E+04</pdfrwt>
<totfact> 0.82853376E-01</totfact>
</mgrwt>
</event>
<event>
 4    1  0.2482334E-008  0.2908633E+04  0.7816531E-02  0.8270313E-01
         -2   -1    0    0    0  501 -0.00000000000E+00  0.00000000000E+00  0.18471028612E+04  0.18471028612E+04  0.00000000000E+00 0. -1.
          2   -1    0    0  501    0  0.00000000000E+00 -0.00000000000E+00 -0.11450563991E+04  0.11450563991E+04  0.00000000000E+00 0.  1.
    2000013    1    1    2    0    0  0.10476886359E+04 -0.19409622647E+03  0.63687342534E+03  0.15631482920E+04  0.95000000000E+03 0.  0.
   -2000013    1    1    2    0    0 -0.10476886359E+04  0.19409622647E+03  0.65173036733E+02  0.14290109683E+04  0.95000000000E+03 0.  0.
<mgrwt>
<rscale>  0 0.29086333E+04</rscale>
<asrwt>0</asrwt>
<pdfrwt beam="2">  1        2 0.17616252E+00 0.29086333E+04</pdfrwt>
<pdfrwt beam="1">  1       -2 0.28416967E+00 0.29086333E+04</pdfrwt>
<totfact> 0.70023920E-01</totfact>
</mgrwt>
</event>
<event>
 4    1  0.2482334E-008  0.2629541E+04  0.7816531E-02  0.8358236E-01
          2   -1    0    0  501    0  0.00000000000E+00  0.00000000000E+00  0.14829134630E+04  0.14829134630E+04  0.00000000000E+00 0.  1.
         -2   -1    0    0    0  501 -0.00000000000E+00 -0.00000000000E+00 -0.11656924392E+04  0.11656924392E+04  0.00000000000E+00 0. -1.
    2000013    1    1    2    0    0  0.17258198150E+03  0.31992121156E+03 -0.68048826132E+03  0.12238048847E+04  0.95000000000E+03 0.  0.
   -2000013    1    1    2    0    0 -0.17258198150E+03 -0.31992121156E+03  0.99770928518E+03  0.14248010176E+04  0.95000000000E+03 0.  0.
<mgrwt>
<rscale>  0 0.26295407E+04</rscale>
<asrwt>0</asrwt>
<pdfrwt beam="1">  1        2 0.22814053E+00 0.26295407E+04</pdfrwt>
<pdfrwt beam="2">  1       -2 0.17933730E+00 0.26295407E+04</pdfrwt>
<totfact> 0.20991366E+00</totfact>
</mgrwt>
</event>
<event>
 4    1  0.2482334E-008  0.2398412E+04  0.7816531E-02  0.8440098E-01
          2   -1    0    0  501    0  0.00000000000E+00  0.00000000000E+00  0.33443440807E+04  0.33443440807E+04  0.00000000000E+00 0. -1.
         -2   -1    0    0    0  501 -0.00000000000E+00 -0.00000000000E+00 -0.43000814968E+03  0.43000814968E+03  0.00000000000E+00 0.  1.
    2000013    1    1    2    0    0 -0.37164574753E+03 -0.40863623572E+03  0.22126874488E+04  0.24705444503E+04  0.95000000000E+03 0.  0.
   -2000013    1    1    2    0    0  0.37164574753E+03  0.40863623572E+03  0.70164848219E+03  0.13038077801E+04  0.95000000000E+03 0.  0.
<mgrwt>
<rscale>  0 0.23984121E+04</rscale>
<asrwt>0</asrwt>
<pdfrwt beam="1">  1        2 0.51451446E+00 0.23984121E+04</pdfrwt>
<pdfrwt beam="2">  1       -2 0.66155102E-01 0.23984121E+04</pdfrwt>
<totfact> 0.19687332E+00</totfact>
</mgrwt>
</event>
<event>
 4    1  0.2482334E-008  0.2648759E+04  0.7816531E-02  0.8351825E-01
          2   -1    0    0  501    0  0.00000000000E+00  0.00000000000E+00  0.27222880198E+04  0.27222880198E+04  0.00000000000E+00 0.  1.
         -2   -1    0    0    0  501 -0.00000000000E+00 -0.00000000000E+00 -0.64430408509E+03  0.64430408509E+03  0.00000000000E+00 0. -1.
    2000013    1    1    2    0    0  0.66890756539E+03  0.45444575176E+03  0.16038728598E+04  0.20319612257E+04  0.95000000000E+03 0.  0.
   -2000013    1    1    2    0    0 -0.66890756539E+03 -0.45444575176E+03  0.47411107493E+03  0.13346308792E+04  0.95000000000E+03 0.  0.
<mgrwt>
<rscale>  0 0.26487592E+04</rscale>
<asrwt>0</asrwt>
<pdfrwt beam="1">  1        2 0.41881354E+00 0.26487592E+04</pdfrwt>
<pdfrwt beam="2">  1       -2 0.99123707E-01 0.26487592E+04</pdfrwt>
<totfact> 0.19130827E+00</totfact>
</mgrwt>
</event>
<event>
 4    1  0.2482334E-008  0.3768819E+04  0.7816531E-02  0.8052880E-01
          2   -1    0    0  501    0  0.00000000000E+00  0.00000000000E+00  0.26381637746E+04  0.26381637746E+04  0.00000000000E+00 0.  1.
         -2   -1    0    0    0  501 -0.00000000000E+00 -0.00000000000E+00 -0.13460112911E+04  0.13460112911E+04  0.00000000000E+00 0. -1.
    2000013    1    1    2    0    0  0.31407197579E+03  0.14182558125E+04 -0.12961471646E+03  0.17405145017E+04  0.95000000000E+03 0.  0.
   -2000013    1    1    2    0    0 -0.31407197579E+03 -0.14182558125E+04  0.14217671999E+04  0.22436605640E+04  0.95000000000E+03 0.  0.
<mgrwt>
<rscale>  0 0.37688185E+04</rscale>
<asrwt>0</asrwt>
<pdfrwt beam="1">  1        2 0.40587135E+00 0.37688185E+04</pdfrwt>
<pdfrwt beam="2">  1       -2 0.20707866E+00 0.37688185E+04</pdfrwt>
<totfact> 0.27774959E-01</totfact>
</mgrwt>
</event>
<event>
 4    1  0.2482334E-008  0.2277358E+04  0.7816531E-02  0.8486902E-01
         -2   -1    0    0    0  501 -0.00000000000E+00  0.00000000000E+00  0.10097229554E+04  0.10097229554E+04  0.00000000000E+00 0. -1.
          2   -1    0    0  501    0  0.00000000000E+00 -0.00000000000E+00 -0.12841047318E+04  0.12841047318E+04  0.00000000000E+00 0.  1.
    2000013    1    1    2    0    0  0.33688031113E+03  0.69751812514E+02  0.39171265954E+03  0.10836477597E+04  0.95000000000E+03 0.  0.
   -2000013    1    1    2    0    0 -0.33688031113E+03 -0.69751812514E+02 -0.66609443592E+03  0.12101799275E+04  0.95000000000E+03 0.  0.
<mgrwt>
<rscale>  0 0.22773581E+04</rscale>
<asrwt>0</asrwt>
<pdfrwt beam="2">  1        2 0.19755458E+00 0.22773581E+04</pdfrwt>
<pdfrwt beam="1">  1       -2 0.15534199E+00 0.22773581E+04</pdfrwt>
<totfact> 0.41868296E+00</totfact>
</mgrwt>
</event>
<event>
 4    1  0.2482334E-008  0.2251820E+04  0.7816531E-02  0.8497164E-01
          2   -1    0    0  501    0  0.00000000000E+00  0.00000000000E+00  0.26336909035E+04  0.26336909035E+04  0.00000000000E+00 0.  1.
         -2   -1    0    0    0  501 -0.00000000000E+00 -0.00000000000E+00 -0.48132963144E+03  0.48132963144E+03  0.00000000000E+00 0. -1.
    2000013    1    1    2    0    0  0.41873993706E+03  0.40755246218E+03  0.12892829838E+04  0.17047559229E+04  0.95000000000E+03 0.  0.
   -2000013    1    1    2    0    0 -0.41873993706E+03 -0.40755246218E+03  0.86307828822E+03  0.14102646120E+04  0.95000000000E+03 0.  0.
<mgrwt>
<rscale>  0 0.22518201E+04</rscale>
<asrwt>0</asrwt>
<pdfrwt beam="1">  1        2 0.40518321E+00 0.22518201E+04</pdfrwt>
<pdfrwt beam="2">  1       -2 0.74050714E-01 0.22518201E+04</pdfrwt>
<totfact> 0.43472346E+00</totfact>
</mgrwt>
</event>
<event>
 4    1  0.2482334E-008  0.2753930E+04  0.7816531E-02  0.8317716E-01
         -2   -1    0    0    0  501 -0.00000000000E+00  0.00000000000E+00  0.16450835869E+04  0.16450835869E+04  0.00000000000E+00 0. -1.
          2   -1    0    0  501    0  0.00000000000E+00 -0.00000000000E+00 -0.11525451127E+04  0.11525451127E+04  0.00000000000E+00 0.  1.
    2000013    1    1    2    0    0  0.39442551123E+03  0.90957304583E+03  0.35104867657E+03  0.14172613672E+04  0.95000000000E+03 0.  0.
   -2000013    1    1    2    0    0 -0.39442551123E+03 -0.90957304583E+03  0.14148979768E+03  0.13803673324E+04  0.95000000000E+03 0.  0.
<mgrwt>
<rscale>  0 0.27539303E+04</rscale>
<asrwt>0</asrwt>
<pdfrwt beam="2">  1        2 0.17731463E+00 0.27539303E+04</pdfrwt>
<pdfrwt beam="1">  1       -2 0.25308978E+00 0.27539303E+04</pdfrwt>
<totfact> 0.10868548E+00</totfact>
</mgrwt>
</event>
<event>
 4    1  0.2482334E-008  0.2719633E+04  0.7816531E-02  0.8328663E-01
          2   -1    0    0  501    0  0.00000000000E+00  0.00000000000E+00  0.13089468913E+04  0.13089468913E+04  0.00000000000E+00 0.  1.
         -2   -1    0    0    0  501 -0.00000000000E+00 -0.00000000000E+00 -0.14126626027E+04  0.14126626027E+04  0.00000000000E+00 0. -1.
    2000013    1    1    2    0    0  0.83898930599E+03 -0.38266480304E+03  0.25863355799E+03  0.13489724698E+04  0.95000000000E+03 0.  0.
   -2000013    1    1    2    0    0 -0.83898930599E+03  0.38266480304E+03 -0.36234926946E+03  0.13726370242E+04  0.95000000000E+03 0.  0.
<mgrwt>
<rscale>  0 0.27196326E+04</rscale>
<asrwt>0</asrwt>
<pdfrwt beam="1">  1        2 0.20137645E+00 0.27196326E+04</pdfrwt>
<pdfrwt beam="2">  1       -2 0.21733271E+00 0.27196326E+04</pdfrwt>
<totfact> 0.14703207E+00</totfact>
</mgrwt>
</event>
<event>
 4    1  0.2482334E-008  0.2286482E+04  0.7816531E-02  0.8483270E-01
          2   -1    0    0  501    0  0.00000000000E+00  0.00000000000E+00  0.44062200171E+04  0.44062200171E+04  0.00000000000E+00 0.  1.
         -2   -1    0    0    0  501 -0.00000000000E+00 -0.00000000000E+00 -0.29662614973E+03  0.29662614973E+03  0.00000000000E+00 0. -1.
    2000013    1    1    2    0    0 -0.54887468031E+03 -0.13929928828E+03  0.14592735102E+04  0.18310234526E+04  0.95000000000E+03 0.  0.
   -2000013    1    1    2    0    0  0.54887468031E+03  0.13929928828E+03  0.26503203571E+04  0.28718227142E+04  0.95000000000E+03 0.  0.
<mgrwt>
<rscale>  0 0.22864821E+04</rscale>
<asrwt>0</asrwt>
<pdfrwt beam="1">  1        2 0.67787995E+00 0.22864821E+04</pdfrwt>
<pdfrwt beam="2">  1       -2 0.45634796E-01 0.22864821E+04</pdfrwt>
<totfact> 0.63147767E-01</totfact>
</mgrwt>
</event>
<event>
 4    1  0.2482334E-008  0.2753326E+04  0.7816531E-02  0.8317907E-01
          2   -1    0    0  501    0  0.00000000000E+00  0.00000000000E+00  0.41444045861E+04  0.41444045861E+04  0.00000000000E+00 0.  1.
         -2   -1    0    0    0  501 -0.00000000000E+00 -0.00000000000E+00 -0.45729158811E+03  0.45729158811E+03  0.00000000000E+00 0. -1.
    2000013    1    1    2    0    0 -0.32504726253E+03  0.81916249657E+03  0.26203501644E+04  0.29232546764E+04  0.95000000000E+03 0.  0.
   -2000013    1    1    2    0    0  0.32504726253E+03 -0.81916249657E+03  0.10667628336E+04  0.16784414979E+04  0.95000000000E+03 0.  0.
<mgrwt>
<rscale>  0 0.27533262E+04</rscale>
<asrwt>0</asrwt>
<pdfrwt beam="1">  1        2 0.63760068E+00 0.27533262E+04</pdfrwt>
<pdfrwt beam="2">  1       -2 0.70352555E-01 0.27533262E+04</pdfrwt>
<totfact> 0.41746216E-01</totfact>
</mgrwt>
</event>
<event>
 4    1  0.2482334E-008  0.1958798E+04  0.7816531E-02  0.8626130E-01
          2   -1    0    0  501    0  0.00000000000E+00  0.00000000000E+00  0.14368733864E+04  0.14368733864E+04  0.00000000000E+00 0. -1.
         -2   -1    0    0    0  501 -0.00000000000E+00 -0.00000000000E+00 -0.66757646323E+03  0.66757646323E+03  0.00000000000E+00 0.  1.
    2000013    1    1    2    0    0  0.16393268831E+03  0.88449474982E+00  0.57026108008E+03  0.11200769652E+04  0.95000000000E+03 0.  0.
   -2000013    1    1    2    0    0 -0.16393268831E+03 -0.88449474982E+00  0.19903584306E+03  0.98437288435E+03  0.95000000000E+03 0.  0.
<mgrwt>
<rscale>  0 0.19587985E+04</rscale>
<asrwt>0</asrwt>
<pdfrwt beam="1">  1        2 0.22105744E+00 0.19587985E+04</pdfrwt>
<pdfrwt beam="2">  1       -2 0.10270407E+00 0.19587985E+04</pdfrwt>
<totfact> 0.99613468E+00</totfact>
</mgrwt>
</event>
<event>
 4    1  0.2482334E-008  0.2258594E+04  0.7816531E-02  0.8494428E-01
          2   -1    0    0  501    0  0.00000000000E+00  0.00000000000E+00  0.18250429654E+04  0.18250429654E+04  0.00000000000E+00 0.  1.
         -2   -1    0    0    0  501 -0.00000000000E+00 -0.00000000000E+00 -0.69878462773E+03  0.69878462773E+03  0.00000000000E+00 0. -1.
    2000013    1    1    2    0    0  0.94507257219E+02 -0.54276137273E+03  0.26898643157E+03  0.11306525681E+04  0.95000000000E+03 0.  0.
   -2000013    1    1    2    0    0 -0.94507257219E+02  0.54276137273E+03  0.85727190612E+03  0.13931750250E+04  0.95000000000E+03 0.  0.
<mgrwt>
<rscale>  0 0.22585942E+04</rscale>
<asrwt>0</asrwt>
<pdfrwt beam="1">  1        2 0.28077584E+00 0.22585942E+04</pdfrwt>
<pdfrwt beam="2">  1       -2 0.10750533E+00 0.22585942E+04</pdfrwt>
<totfact> 0.52798316E+00</totfact>
</mgrwt>
</event>
<event>
 4    1  0.2482334E-008  0.3203191E+04  0.7816531E-02  0.8187975E-01
         -2   -1    0    0    0  501 -0.00000000000E+00  0.00000000000E+00  0.14304697814E+04  0.14304697814E+04  0.00000000000E+00 0. -1.
          2   -1    0    0  501    0  0.00000000000E+00 -0.00000000000E+00 -0.17931931166E+04  0.17931931166E+04  0.00000000000E+00 0.  1.
    2000013    1    1    2    0    0  0.72204860308E+03 -0.10645614365E+03 -0.12511328142E+04  0.17322010318E+04  0.95000000000E+03 0.  0.
   -2000013    1    1    2    0    0 -0.72204860308E+03  0.10645614365E+03  0.88840947911E+03  0.14914618662E+04  0.95000000000E+03 0.  0.
<mgrwt>
<rscale>  0 0.32031913E+04</rscale>
<asrwt>0</asrwt>
<pdfrwt beam="2">  1        2 0.27587586E+00 0.32031913E+04</pdfrwt>
<pdfrwt beam="1">  1       -2 0.22007227E+00 0.32031913E+04</pdfrwt>
<totfact> 0.72351869E-01</totfact>
</mgrwt>
</event>
<event>
 4    1  0.2482334E-008  0.3072927E+04  0.7816531E-02  0.8223207E-01
         -2   -1    0    0    0  501 -0.00000000000E+00  0.00000000000E+00  0.56543132599E+03  0.56543132599E+03  0.00000000000E+00 0. -1.
          2   -1    0    0  501    0  0.00000000000E+00 -0.00000000000E+00 -0.41750781801E+04  0.41750781801E+04  0.00000000000E+00 0.  1.
    2000013    1    1    2    0    0 -0.85542438174E+03  0.77287453371E+03 -0.23591851210E+04  0.27923718149E+04  0.95000000000E+03 0.  0.
   -2000013    1    1    2    0    0  0.85542438174E+03 -0.77287453371E+03 -0.12504617331E+04  0.19481376912E+04  0.95000000000E+03 0.  0.
<mgrwt>
<rscale>  0 0.30729269E+04</rscale>
<asrwt>0</asrwt>
<pdfrwt beam="2">  1        2 0.64231972E+00 0.30729269E+04</pdfrwt>
<pdfrwt beam="1">  1       -2 0.86989434E-01 0.30729269E+04</pdfrwt>
<totfact> 0.23736526E-01</totfact>
</mgrwt>
</event>
<event>
 4    1  0.2482334E-008  0.2675866E+04  0.7816531E-02  0.8342878E-01
         -2   -1    0    0    0  501 -0.00000000000E+00  0.00000000000E+00  0.11344581950E+04  0.11344581950E+04  0.00000000000E+00 0. -1.
          2   -1    0    0  501    0  0.00000000000E+00 -0.00000000000E+00 -0.15779023929E+04  0.15779023929E+04  0.00000000000E+00 0.  1.
    2000013    1    1    2    0    0  0.77173006275E+03 -0.10864006436E+03 -0.75827531026E+03  0.14439014508E+04  0.95000000000E+03 0.  0.
   -2000013    1    1    2    0    0 -0.77173006275E+03  0.10864006436E+03  0.31483111230E+03  0.12684591371E+04  0.95000000000E+03 0.  0.
<mgrwt>
<rscale>  0 0.26758657E+04</rscale>
<asrwt>0</asrwt>
<pdfrwt beam="2">  1        2 0.24275421E+00 0.26758657E+04</pdfrwt>
<pdfrwt beam="1">  1       -2 0.17453203E+00 0.26758657E+04</pdfrwt>
<totfact> 0.19971716E+00</totfact>
</mgrwt>
</event>
<event>
 4    1  0.2482334E-008  0.2805562E+04  0.7816531E-02  0.8301544E-01
          2   -1    0    0  501    0  0.00000000000E+00  0.00000000000E+00  0.11415888944E+04  0.11415888944E+04  0.00000000000E+00 0.  1.
         -2   -1    0    0    0  501 -0.00000000000E+00 -0.00000000000E+00 -0.17237332902E+04  0.17237332902E+04  0.00000000000E+00 0. -1.
    2000013    1    1    2    0    0 -0.49566321581E+03  0.57572674825E+03 -0.10046328022E+04  0.15776344251E+04  0.95000000000E+03 0.  0.
   -2000013    1    1    2    0    0  0.49566321581E+03 -0.57572674825E+03  0.42248840637E+03  0.12876877594E+04  0.95000000000E+03 0.  0.
<mgrwt>
<rscale>  0 0.28055622E+04</rscale>
<asrwt>0</asrwt>
<pdfrwt beam="1">  1        2 0.17562906E+00 0.28055622E+04</pdfrwt>
<pdfrwt beam="2">  1       -2 0.26518974E+00 0.28055622E+04</pdfrwt>
<totfact> 0.92661186E-01</totfact>
</mgrwt>
</event>
<event>
 4    1  0.2482334E-008  0.2735716E+04  0.7816531E-02  0.8323509E-01
         -2   -1    0    0    0  501 -0.00000000000E+00  0.00000000000E+00  0.12045875576E+04  0.12045875576E+04  0.00000000000E+00 0. -1.
          2   -1    0    0  501    0  0.00000000000E+00 -0.00000000000E+00 -0.15532583815E+04  0.15532583815E+04  0.00000000000E+00 0.  1.
    2000013    1    1    2    0    0 -0.40394413173E+03  0.83171068674E+03 -0.51414102500E+03  0.14218841449E+04  0.95000000000E+03 0.  0.
   -2000013    1    1    2    0    0  0.40394413173E+03 -0.83171068674E+03  0.16547020106E+03  0.13359617942E+04  0.95000000000E+03 0.  0.
<mgrwt>
<rscale>  0 0.27357162E+04</rscale>
<asrwt>0</asrwt>
<pdfrwt beam="2">  1        2 0.23896283E+00 0.27357162E+04</pdfrwt>
<pdfrwt beam="1">  1       -2 0.18532116E+00 0.27357162E+04</pdfrwt>
<totfact> 0.17277326E+00</totfact>
</mgrwt>
</event>
<event>
 4    1  0.2482334E-008  0.3226971E+04  0.7816531E-02  0.8181730E-01
          2   -1    0    0  501    0  0.00000000000E+00  0.00000000000E+00  0.24682142562E+04  0.24682142562E+04  0.00000000000E+00 0.  1.
         -2   -1    0    0    0  501 -0.00000000000E+00 -0.00000000000E+00 -0.10547442662E+04  0.10547442662E+04  0.00000000000E+00 0. -1.
    2000013    1    1    2    0    0 -0.44700844723E+03 -0.11717499326E+04  0.10973528333E+04  0.19182016831E+04  0.95000000000E+03 0.  0.
   -2000013    1    1    2    0    0  0.44700844723E+03  0.11717499326E+04  0.31611715681E+03  0.16047568393E+04  0.95000000000E+03 0.  0.
<mgrwt>
<rscale>  0 0.32269706E+04</rscale>
<asrwt>0</asrwt>
<pdfrwt beam="1">  1        2 0.37972527E+00 0.32269706E+04</pdfrwt>
<pdfrwt beam="2">  1       -2 0.16226835E+00 0.32269706E+04</pdfrwt>
<totfact> 0.73950019E-01</totfact>
</mgrwt>
</event>
<event>
 4    1  0.2482334E-008  0.2261925E+04  0.7816531E-02  0.8493087E-01
         -2   -1    0    0    0  501 -0.00000000000E+00  0.00000000000E+00  0.62651835632E+03  0.62651835632E+03  0.00000000000E+00 0. -1.
          2   -1    0    0  501    0  0.00000000000E+00 -0.00000000000E+00 -0.20415623935E+04  0.20415623935E+04  0.00000000000E+00 0.  1.
    2000013    1    1    2    0    0 -0.40863517897E+03 -0.38796975863E+03 -0.99421398497E+03  0.14860904047E+04  0.95000000000E+03 0.  0.
   -2000013    1    1    2    0    0  0.40863517897E+03  0.38796975863E+03 -0.42083005224E+03  0.11819903451E+04  0.95000000000E+03 0.  0.
<mgrwt>
<rscale>  0 0.22619251E+04</rscale>
<asrwt>0</asrwt>
<pdfrwt beam="2">  1        2 0.31408653E+00 0.22619251E+04</pdfrwt>
<pdfrwt beam="1">  1       -2 0.96387438E-01 0.22619251E+04</pdfrwt>
<totfact> 0.51891658E+00</totfact>
</mgrwt>
</event>
<event>
 4    1  0.2482334E-008  0.3260447E+04  0.7816531E-02  0.8173033E-01
          2   -1    0    0  501    0  0.00000000000E+00  0.00000000000E+00  0.14737172553E+04  0.14737172553E+04  0.00000000000E+00 0.  1.
         -2   -1    0    0    0  501 -0.00000000000E+00 -0.00000000000E+00 -0.18033504018E+04  0.18033504018E+04  0.00000000000E+00 0. -1.
    2000013    1    1    2    0    0  0.71613468736E+02 -0.11284419446E+04 -0.85871179066E+03  0.17083312474E+04  0.95000000000E+03 0.  0.
   -2000013    1    1    2    0    0 -0.71613468736E+02  0.11284419446E+04  0.52907864422E+03  0.15687364097E+04  0.95000000000E+03 0.  0.
<mgrwt>
<rscale>  0 0.32604470E+04</rscale>
<asrwt>0</asrwt>
<pdfrwt beam="1">  1        2 0.22672573E+00 0.32604470E+04</pdfrwt>
<pdfrwt beam="2">  1       -2 0.27743852E+00 0.32604470E+04</pdfrwt>
<totfact> 0.48049206E-01</totfact>
</mgrwt>
</event>
<event>
 4    1  0.2482334E-008  0.2048159E+04  0.7816531E-02  0.8584430E-01
         -2   -1    0    0    0  501 -0.00000000000E+00  0.00000000000E+00  0.66006709694E+03  0.66006709694E+03  0.00000000000E+00 0. -1.
          2   -1    0    0  501    0  0.00000000000E+00 -0.00000000000E+00 -0.15888363499E+04  0.15888363499E+04  0.00000000000E+00 0.  1.
    2000013    1    1    2    0    0 -0.29092322745E+03 -0.18271902811E+03 -0.27994461578E+03  0.10482802848E+04  0.95000000000E+03 0.  0.
   -2000013    1    1    2    0    0  0.29092322745E+03  0.18271902811E+03 -0.64882463715E+03  0.12006231621E+04  0.95000000000E+03 0.  0.
<mgrwt>
<rscale>  0 0.20481588E+04</rscale>
<asrwt>0</asrwt>
<pdfrwt beam="2">  1        2 0.24443636E+00 0.20481588E+04</pdfrwt>
<pdfrwt beam="1">  1       -2 0.10154878E+00 0.20481588E+04</pdfrwt>
<totfact> 0.83383924E+00</totfact>
</mgrwt>
</event>
<event>
 4    1  0.2482334E-008  0.2919253E+04  0.7816531E-02  0.8267172E-01
          2   -1    0    0  501    0  0.00000000000E+00  0.00000000000E+00  0.17028979703E+04  0.17028979703E+04  0.00000000000E+00 0.  1.
         -2   -1    0    0    0  501 -0.00000000000E+00 -0.00000000000E+00 -0.12511078547E+04  0.12511078547E+04  0.00000000000E+00 0. -1.
    2000013    1    1    2    0    0  0.61123368288E+03 -0.35219503340E+03 -0.63889058435E+03  0.13447412894E+04  0.95000000000E+03 0.  0.
   -2000013    1    1    2    0    0 -0.61123368288E+03  0.35219503340E+03  0.10906806999E+04  0.16092645357E+04  0.95000000000E+03 0.  0.
<mgrwt>
<rscale>  0 0.29192527E+04</rscale>
<asrwt>0</asrwt>
<pdfrwt beam="1">  1        2 0.26198430E+00 0.29192527E+04</pdfrwt>
<pdfrwt beam="2">  1       -2 0.19247813E+00 0.29192527E+04</pdfrwt>
<totfact> 0.12562148E+00</totfact>
</mgrwt>
</event>
<event>
 4    1  0.2482334E-008  0.2336552E+04  0.7816531E-02  0.8463647E-01
         -2   -1    0    0    0  501 -0.00000000000E+00  0.00000000000E+00  0.19914387889E+04  0.19914387889E+04  0.00000000000E+00 0. -1.
          2   -1    0    0  501    0  0.00000000000E+00 -0.00000000000E+00 -0.68536842958E+03  0.68536842958E+03  0.00000000000E+00 0.  1.
    2000013    1    1    2    0    0  0.48940396134E+03 -0.27108677328E+03  0.10957927453E+04  0.15544343076E+04  0.95000000000E+03 0.  0.
   -2000013    1    1    2    0    0 -0.48940396134E+03  0.27108677328E+03  0.21027761396E+03  0.11223729108E+04  0.95000000000E+03 0.  0.
<mgrwt>
<rscale>  0 0.23365524E+04</rscale>
<asrwt>0</asrwt>
<pdfrwt beam="2">  1        2 0.10544130E+00 0.23365524E+04</pdfrwt>
<pdfrwt beam="1">  1       -2 0.30637520E+00 0.23365524E+04</pdfrwt>
<totfact> 0.11054021E+00</totfact>
</mgrwt>
</event>
<event>
 4    1  0.2482334E-008  0.2090228E+04  0.7816531E-02  0.8565560E-01
         -2   -1    0    0    0  501 -0.00000000000E+00  0.00000000000E+00  0.12679174402E+04  0.12679174402E+04  0.00000000000E+00 0.  1.
          2   -1    0    0  501    0  0.00000000000E+00 -0.00000000000E+00 -0.86146238238E+03  0.86146238238E+03  0.00000000000E+00 0. -1.
    2000013    1    1    2    0    0 -0.43346245657E+03  0.43173153145E+02  0.20007829535E+03  0.10640887870E+04  0.95000000000E+03 0.  0.
   -2000013    1    1    2    0    0  0.43346245657E+03 -0.43173153145E+02  0.20637676252E+03  0.10652910356E+04  0.95000000000E+03 0.  0.
<mgrwt>
<rscale>  0 0.20902279E+04</rscale>
<asrwt>0</asrwt>
<pdfrwt beam="2">  1        2 0.13253267E+00 0.20902279E+04</pdfrwt>
<pdfrwt beam="1">  1       -2 0.19506422E+00 0.20902279E+04</pdfrwt>
<totfact> 0.41187926E+00</totfact>
</mgrwt>
</event>
<event>
 4    1  0.2482334E-008  0.2219932E+04  0.7816531E-02  0.8510177E-01
         -1   -1    0    0    0  501 -0.00000000000E+00  0.00000000000E+00  0.83332829750E+03  0.83332829750E+03  0.00000000000E+00 0. -1.
          1   -1    0    0  501    0  0.00000000000E+00 -0.00000000000E+00 -0.14784384132E+04  0.14784384132E+04  0.00000000000E+00 0.  1.
    2000013    1    1    2    0    0  0.48586810130E+03  0.30499437779E+03 -0.30083102080E+03  0.11498211537E+04  0.95000000000E+03 0.  0.
   -2000013    1    1    2    0    0 -0.48586810130E+03 -0.30499437779E+03 -0.34427909491E+03  0.11619455570E+04  0.95000000000E+03 0.  0.
<mgrwt>
<rscale>  0 0.22199320E+04</rscale>
<asrwt>0</asrwt>
<pdfrwt beam="2">  1        1 0.22745206E+00 0.22199320E+04</pdfrwt>
<pdfrwt beam="1">  1       -1 0.12820435E+00 0.22199320E+04</pdfrwt>
<totfact> 0.32370962E+00</totfact>
</mgrwt>
</event>
<event>
 4    1  0.2482334E-008  0.2468678E+04  0.7816531E-02  0.8414230E-01
         -2   -1    0    0    0  501 -0.00000000000E+00  0.00000000000E+00  0.70160577216E+03  0.70160577216E+03  0.00000000000E+00 0. -1.
          2   -1    0    0  501    0  0.00000000000E+00 -0.00000000000E+00 -0.21715789833E+04  0.21715789833E+04  0.00000000000E+00 0.  1.
    2000013    1    1    2    0    0  0.45264080143E+03 -0.16176625532E+03 -0.81213240144E+01  0.10647149724E+04  0.95000000000E+03 0.  0.
   -2000013    1    1    2    0    0 -0.45264080143E+03  0.16176625532E+03 -0.14618518871E+04  0.18084697831E+04  0.95000000000E+03 0.  0.
<mgrwt>
<rscale>  0 0.24686777E+04</rscale>
<asrwt>0</asrwt>
<pdfrwt beam="2">  1        2 0.33408907E+00 0.24686777E+04</pdfrwt>
<pdfrwt beam="1">  1       -2 0.10793935E+00 0.24686777E+04</pdfrwt>
<totfact> 0.32944309E+00</totfact>
</mgrwt>
</event>
<event>
 4    1  0.2482334E-008  0.2211726E+04  0.7816531E-02  0.8513563E-01
         -2   -1    0    0    0  501 -0.00000000000E+00  0.00000000000E+00  0.68134466140E+03  0.68134466140E+03  0.00000000000E+00 0. -1.
          2   -1    0    0  501    0  0.00000000000E+00 -0.00000000000E+00 -0.17948812623E+04  0.17948812623E+04  0.00000000000E+00 0.  1.
    2000013    1    1    2    0    0  0.37056980942E+03  0.17443247823E+03 -0.11929064480E+03  0.10413831817E+04  0.95000000000E+03 0.  0.
   -2000013    1    1    2    0    0 -0.37056980942E+03 -0.17443247823E+03 -0.99424595606E+03  0.14348427420E+04  0.95000000000E+03 0.  0.
<mgrwt>
<rscale>  0 0.22117258E+04</rscale>
<asrwt>0</asrwt>
<pdfrwt beam="2">  1        2 0.27613558E+00 0.22117258E+04</pdfrwt>
<pdfrwt beam="1">  1       -2 0.10482225E+00 0.22117258E+04</pdfrwt>
<totfact> 0.58540244E+00</totfact>
</mgrwt>
</event>
<event>
 4    1  0.2482334E-008  0.2543745E+04  0.7816531E-02  0.8387565E-01
         -2   -1    0    0    0  501 -0.00000000000E+00  0.00000000000E+00  0.65477358665E+03  0.65477358665E+03  0.00000000000E+00 0. -1.
          2   -1    0    0  501    0  0.00000000000E+00 -0.00000000000E+00 -0.24705637907E+04  0.24705637907E+04  0.00000000000E+00 0.  1.
    2000013    1    1    2    0    0 -0.23322809371E+03  0.70086915137E+03 -0.14137993865E+04  0.18565940903E+04  0.95000000000E+03 0.  0.
   -2000013    1    1    2    0    0  0.23322809371E+03 -0.70086915137E+03 -0.40199081763E+03  0.12687432871E+04  0.95000000000E+03 0.  0.
<mgrwt>
<rscale>  0 0.25437452E+04</rscale>
<asrwt>0</asrwt>
<pdfrwt beam="2">  1        2 0.38008674E+00 0.25437452E+04</pdfrwt>
<pdfrwt beam="1">  1       -2 0.10073440E+00 0.25437452E+04</pdfrwt>
<totfact> 0.26112707E+00</totfact>
</mgrwt>
</event>
<event>
 4    1  0.2482334E-008  0.2386021E+04  0.7816531E-02  0.8444756E-01
          2   -1    0    0  501    0  0.00000000000E+00  0.00000000000E+00  0.19915842351E+04  0.19915842351E+04  0.00000000000E+00 0.  1.
         -2   -1    0    0    0  501 -0.00000000000E+00 -0.00000000000E+00 -0.71464409966E+03  0.71464409966E+03  0.00000000000E+00 0. -1.
    2000013    1    1    2    0    0 -0.49195059308E+03 -0.50245606634E+03  0.82239417516E+03  0.14398991853E+04  0.95000000000E+03 0.  0.
   -2000013    1    1    2    0    0  0.49195059308E+03  0.50245606634E+03  0.45454596027E+03  0.12663291494E+04  0.95000000000E+03 0.  0.
<mgrwt>
<rscale>  0 0.23860209E+04</rscale>
<asrwt>0</asrwt>
<pdfrwt beam="1">  1        2 0.30639757E+00 0.23860209E+04</pdfrwt>
<pdfrwt beam="2">  1       -2 0.10994525E+00 0.23860209E+04</pdfrwt>
<totfact> 0.39994077E+00</totfact>
</mgrwt>
</event>
<event>
 4    1  0.2482334E-008  0.3107115E+04  0.7816531E-02  0.8213788E-01
          2   -1    0    0  501    0  0.00000000000E+00  0.00000000000E+00  0.20820152771E+04  0.20820152771E+04  0.00000000000E+00 0.  1.
         -2   -1    0    0    0  501 -0.00000000000E+00 -0.00000000000E+00 -0.11592332364E+04  0.11592332364E+04  0.00000000000E+00 0. -1.
    2000013    1    1    2    0    0 -0.22502641879E+03  0.11542401454E+04  0.83480221847E+03  0.17269342623E+04  0.95000000000E+03 0.  0.
   -2000013    1    1    2    0    0  0.22502641879E+03 -0.11542401454E+04  0.87979822220E+02  0.15143142512E+04  0.95000000000E+03 0.  0.
<mgrwt>
<rscale>  0 0.31071153E+04</rscale>
<asrwt>0</asrwt>
<pdfrwt beam="1">  1        2 0.32031004E+00 0.31071153E+04</pdfrwt>
<pdfrwt beam="2">  1       -2 0.17834357E+00 0.31071153E+04</pdfrwt>
<totfact> 0.95007516E-01</totfact>
</mgrwt>
</event>
<event>
 4    1  0.2482334E-008  0.2981814E+04  0.7816531E-02  0.8248943E-01
          3   -1    0    0  501    0  0.00000000000E+00  0.00000000000E+00  0.57896549624E+03  0.57896549624E+03  0.00000000000E+00 0.  1.
         -3   -1    0    0    0  501 -0.00000000000E+00 -0.00000000000E+00 -0.38392673113E+04  0.38392673113E+04  0.00000000000E+00 0. -1.
    2000013    1    1    2    0    0 -0.56540759930E+03  0.93867187817E+03 -0.21423927283E+04  0.25871098257E+04  0.95000000000E+03 0.  0.
   -2000013    1    1    2    0    0  0.56540759930E+03 -0.93867187817E+03 -0.11179090868E+04  0.18311229818E+04  0.95000000000E+03 0.  0.
<mgrwt>
<rscale>  0 0.29818137E+04</rscale>
<asrwt>0</asrwt>
<pdfrwt beam="1">  1        3 0.89071616E-01 0.29818137E+04</pdfrwt>
<pdfrwt beam="2">  1       -3 0.59065650E+00 0.29818137E+04</pdfrwt>
<totfact> 0.25817965E-03</totfact>
</mgrwt>
</event>
<event>
 4    1  0.2482334E-008  0.2281312E+04  0.7816531E-02  0.8485326E-01
          2   -1    0    0  501    0  0.00000000000E+00  0.00000000000E+00  0.13505267588E+04  0.13505267588E+04  0.00000000000E+00 0.  1.
         -2   -1    0    0    0  501 -0.00000000000E+00 -0.00000000000E+00 -0.96339914085E+03  0.96339914085E+03  0.00000000000E+00 0. -1.
    2000013    1    1    2    0    0 -0.25270343761E+02  0.54012211177E+03 -0.13701864603E+03  0.11016553886E+04  0.95000000000E+03 0.  0.
   -2000013    1    1    2    0    0  0.25270343761E+02 -0.54012211177E+03  0.52414626399E+03  0.12122705110E+04  0.95000000000E+03 0.  0.
<mgrwt>
<rscale>  0 0.22813122E+04</rscale>
<asrwt>0</asrwt>
<pdfrwt beam="1">  1        2 0.20777335E+00 0.22813122E+04</pdfrwt>
<pdfrwt beam="2">  1       -2 0.14821525E+00 0.22813122E+04</pdfrwt>
<totfact> 0.43395818E+00</totfact>
</mgrwt>
</event>
<event>
 4    1  0.2482334E-008  0.2481912E+04  0.7816531E-02  0.8409458E-01
          1   -1    0    0  501    0  0.00000000000E+00  0.00000000000E+00  0.36379601147E+04  0.36379601147E+04  0.00000000000E+00 0.  1.
         -1   -1    0    0    0  501 -0.00000000000E+00 -0.00000000000E+00 -0.42330626351E+03  0.42330626351E+03  0.00000000000E+00 0. -1.
    2000013    1    1    2    0    0  0.60646956196E+03  0.19769059964E+03  0.23930873065E+04  0.26525937796E+04  0.95000000000E+03 0.  0.
   -2000013    1    1    2    0    0 -0.60646956196E+03 -0.19769059964E+03  0.82156654462E+03  0.14086725986E+04  0.95000000000E+03 0.  0.
<mgrwt>
<rscale>  0 0.24819116E+04</rscale>
<asrwt>0</asrwt>
<pdfrwt beam="1">  1        1 0.55968615E+00 0.24819116E+04</pdfrwt>
<pdfrwt beam="2">  1       -1 0.65124043E-01 0.24819116E+04</pdfrwt>
<totfact> 0.41290776E-01</totfact>
</mgrwt>
</event>
<event>
 4    1  0.2482334E-008  0.2715831E+04  0.7816531E-02  0.8329887E-01
         -1   -1    0    0    0  501 -0.00000000000E+00  0.00000000000E+00  0.14150936815E+04  0.14150936815E+04  0.00000000000E+00 0. -1.
          1   -1    0    0  501    0  0.00000000000E+00 -0.00000000000E+00 -0.13030474227E+04  0.13030474227E+04  0.00000000000E+00 0.  1.
    2000013    1    1    2    0    0 -0.91207262962E+03 -0.78828335187E+02  0.37776788785E+03  0.13723334016E+04  0.95000000000E+03 0.  0.
   -2000013    1    1    2    0    0  0.91207262962E+03  0.78828335187E+02 -0.26572162902E+03  0.13458077026E+04  0.95000000000E+03 0.  0.
<mgrwt>
<rscale>  0 0.27158308E+04</rscale>
<asrwt>0</asrwt>
<pdfrwt beam="2">  1        1 0.20046883E+00 0.27158308E+04</pdfrwt>
<pdfrwt beam="1">  1       -1 0.21770672E+00 0.27158308E+04</pdfrwt>
<totfact> 0.89487407E-01</totfact>
</mgrwt>
</event>
<event>
 4    1  0.2482334E-008  0.1968440E+04  0.7816531E-02  0.8621520E-01
         -2   -1    0    0    0  501 -0.00000000000E+00  0.00000000000E+00  0.14506246736E+04  0.14506246736E+04  0.00000000000E+00 0. -1.
          2   -1    0    0  501    0  0.00000000000E+00 -0.00000000000E+00 -0.66777393512E+03  0.66777393512E+03  0.00000000000E+00 0.  1.
    2000013    1    1    2    0    0  0.88083790639E+02 -0.17457914497E+03  0.57135281746E+03  0.11256911984E+04  0.95000000000E+03 0.  0.
   -2000013    1    1    2    0    0 -0.88083790639E+02  0.17457914497E+03  0.21149792105E+03  0.99270741039E+03  0.95000000000E+03 0.  0.
<mgrwt>
<rscale>  0 0.19684403E+04</rscale>
<asrwt>0</asrwt>
<pdfrwt beam="2">  1        2 0.10273445E+00 0.19684403E+04</pdfrwt>
<pdfrwt beam="1">  1       -2 0.22317303E+00 0.19684403E+04</pdfrwt>
<totfact> 0.38196971E+00</totfact>
</mgrwt>
</event>
<event>
 4    1  0.2482334E-008  0.2198478E+04  0.7816531E-02  0.8519062E-01
          2   -1    0    0  501    0  0.00000000000E+00  0.00000000000E+00  0.16693776733E+04  0.16693776733E+04  0.00000000000E+00 0.  1.
         -2   -1    0    0    0  501 -0.00000000000E+00 -0.00000000000E+00 -0.72381874795E+03  0.72381874795E+03  0.00000000000E+00 0. -1.
    2000013    1    1    2    0    0  0.10809732840E+03  0.32140876022E+03  0.94832140692E+03  0.13844862276E+04  0.95000000000E+03 0.  0.
   -2000013    1    1    2    0    0 -0.10809732840E+03 -0.32140876022E+03 -0.27624815429E+01  0.10087101937E+04  0.95000000000E+03 0.  0.
<mgrwt>
<rscale>  0 0.21984784E+04</rscale>
<asrwt>0</asrwt>
<pdfrwt beam="1">  1        2 0.25682733E+00 0.21984784E+04</pdfrwt>
<pdfrwt beam="2">  1       -2 0.11135673E+00 0.21984784E+04</pdfrwt>
<totfact> 0.59471975E+00</totfact>
</mgrwt>
</event>
<event>
 4    1  0.2482334E-008  0.2416723E+04  0.7816531E-02  0.8433269E-01
         -2   -1    0    0    0  501 -0.00000000000E+00  0.00000000000E+00  0.79413158616E+03  0.79413158616E+03  0.00000000000E+00 0. -1.
          2   -1    0    0  501    0  0.00000000000E+00 -0.00000000000E+00 -0.18386589951E+04  0.18386589951E+04  0.00000000000E+00 0.  1.
    2000013    1    1    2    0    0  0.71278575726E+03  0.21877593960E+03 -0.56732265532E+03  0.13342718774E+04  0.95000000000E+03 0.  0.
   -2000013    1    1    2    0    0 -0.71278575726E+03 -0.21877593960E+03 -0.47720475364E+03  0.12985187039E+04  0.95000000000E+03 0.  0.
<mgrwt>
<rscale>  0 0.24167227E+04</rscale>
<asrwt>0</asrwt>
<pdfrwt beam="2">  1        2 0.28287061E+00 0.24167227E+04</pdfrwt>
<pdfrwt beam="1">  1       -2 0.12217409E+00 0.24167227E+04</pdfrwt>
<totfact> 0.37449850E+00</totfact>
</mgrwt>
</event>
<event>
 4    1  0.2482334E-008  0.2347581E+04  0.7816531E-02  0.8459393E-01
         -2   -1    0    0    0  501 -0.00000000000E+00  0.00000000000E+00  0.56797658696E+03  0.56797658696E+03  0.00000000000E+00 0. -1.
          2   -1    0    0  501    0  0.00000000000E+00 -0.00000000000E+00 -0.24257772539E+04  0.24257772539E+04  0.00000000000E+00 0.  1.
    2000013    1    1    2    0    0 -0.58330959247E+03  0.27159487431E+03 -0.12445623262E+04  0.16927637875E+04  0.95000000000E+03 0.  0.
   -2000013    1    1    2    0    0  0.58330959247E+03 -0.27159487431E+03 -0.61323834076E+03  0.13009900534E+04  0.95000000000E+03 0.  0.
<mgrwt>
<rscale>  0 0.23475815E+04</rscale>
<asrwt>0</asrwt>
<pdfrwt beam="2">  1        2 0.37319650E+00 0.23475815E+04</pdfrwt>
<pdfrwt beam="1">  1       -2 0.87381014E-01 0.23475815E+04</pdfrwt>
<totfact> 0.39245781E+00</totfact>
</mgrwt>
</event>
<event>
 4    1  0.2482334E-008  0.2143436E+04  0.7816531E-02  0.8542347E-01
          2   -1    0    0  501    0  0.00000000000E+00  0.00000000000E+00  0.17329143535E+04  0.17329143535E+04  0.00000000000E+00 0.  1.
         -2   -1    0    0    0  501 -0.00000000000E+00 -0.00000000000E+00 -0.66280210072E+03  0.66280210072E+03  0.00000000000E+00 0. -1.
    2000013    1    1    2    0    0  0.25256678124E+03  0.42184002932E+03  0.60869108263E+03  0.12307492935E+04  0.95000000000E+03 0.  0.
   -2000013    1    1    2    0    0 -0.25256678124E+03 -0.42184002932E+03  0.46142117014E+03  0.11649671607E+04  0.95000000000E+03 0.  0.
<mgrwt>
<rscale>  0 0.21434358E+04</rscale>
<asrwt>0</asrwt>
<pdfrwt beam="1">  1        2 0.26660221E+00 0.21434358E+04</pdfrwt>
<pdfrwt beam="2">  1       -2 0.10196955E+00 0.21434358E+04</pdfrwt>
<totfact> 0.68080041E+00</totfact>
</mgrwt>
</event>
<event>
 4    1  0.2482334E-008  0.2929391E+04  0.7816531E-02  0.8264186E-01
          1   -1    0    0  501    0  0.00000000000E+00  0.00000000000E+00  0.25856216344E+04  0.25856216344E+04  0.00000000000E+00 0.  1.
         -1   -1    0    0    0  501 -0.00000000000E+00 -0.00000000000E+00 -0.82971651898E+03  0.82971651898E+03  0.00000000000E+00 0. -1.
    2000013    1    1    2    0    0  0.45152066207E+03 -0.99425126777E+03  0.61614285964E+03  0.15730665959E+04  0.95000000000E+03 0.  0.
   -2000013    1    1    2    0    0 -0.45152066207E+03  0.99425126777E+03  0.11397622558E+04  0.18422715575E+04  0.95000000000E+03 0.  0.
<mgrwt>
<rscale>  0 0.29293911E+04</rscale>
<asrwt>0</asrwt>
<pdfrwt beam="1">  1        1 0.39778794E+00 0.29293911E+04</pdfrwt>
<pdfrwt beam="2">  1       -1 0.12764870E+00 0.29293911E+04</pdfrwt>
<totfact> 0.53664872E-01</totfact>
</mgrwt>
</event>
<event>
 4    1  0.2482334E-008  0.2232196E+04  0.7816531E-02  0.8505146E-01
          2   -1    0    0  501    0  0.00000000000E+00  0.00000000000E+00  0.25971081897E+04  0.25971081897E+04  0.00000000000E+00 0.  1.
         -2   -1    0    0    0  501 -0.00000000000E+00 -0.00000000000E+00 -0.47963913125E+03  0.47963913125E+03  0.00000000000E+00 0. -1.
    2000013    1    1    2    0    0 -0.48131924007E+03 -0.18275687529E+02  0.59915761477E+03  0.12220851275E+04  0.95000000000E+03 0.  0.
   -2000013    1    1    2    0    0  0.48131924007E+03  0.18275687529E+02  0.15183114436E+04  0.18546621934E+04  0.95000000000E+03 0.  0.
<mgrwt>
<rscale>  0 0.22321960E+04</rscale>
<asrwt>0</asrwt>
<pdfrwt beam="1">  1        2 0.39955510E+00 0.22321960E+04</pdfrwt>
<pdfrwt beam="2">  1       -2 0.73790637E-01 0.22321960E+04</pdfrwt>
<totfact> 0.46113045E+00</totfact>
</mgrwt>
</event>
<event>
 4    1  0.2482334E-008  0.2496781E+04  0.7816531E-02  0.8404133E-01
         -1   -1    0    0    0  501 -0.00000000000E+00  0.00000000000E+00  0.18223642152E+04  0.18223642152E+04  0.00000000000E+00 0. -1.
          1   -1    0    0  501    0  0.00000000000E+00 -0.00000000000E+00 -0.85519630216E+03  0.85519630216E+03  0.00000000000E+00 0.  1.
    2000013    1    1    2    0    0 -0.40335099299E+03 -0.67404990561E+03  0.69521442099E+03  0.14152237950E+04  0.95000000000E+03 0.  0.
   -2000013    1    1    2    0    0  0.40335099299E+03  0.67404990561E+03  0.27195349206E+03  0.12623367224E+04  0.95000000000E+03 0.  0.
<mgrwt>
<rscale>  0 0.24967812E+04</rscale>
<asrwt>0</asrwt>
<pdfrwt beam="2">  1        1 0.13156866E+00 0.24967812E+04</pdfrwt>
<pdfrwt beam="1">  1       -1 0.28036372E+00 0.24967812E+04</pdfrwt>
<totfact> 0.77993749E-01</totfact>
</mgrwt>
</event>
<event>
 4    1  0.2482334E-008  0.2308602E+04  0.7816531E-02  0.8474537E-01
          1   -1    0    0  501    0  0.00000000000E+00  0.00000000000E+00  0.16430696965E+04  0.16430696965E+04  0.00000000000E+00 0.  1.
         -1   -1    0    0    0  501 -0.00000000000E+00 -0.00000000000E+00 -0.81092786415E+03  0.81092786415E+03  0.00000000000E+00 0. -1.
    2000013    1    1    2    0    0 -0.60401319332E+03 -0.24160476834E+01  0.68723126917E+03  0.13189482902E+04  0.95000000000E+03 0.  0.
   -2000013    1    1    2    0    0  0.60401319332E+03  0.24160476834E+01  0.14491056319E+03  0.11350492704E+04  0.95000000000E+03 0.  0.
<mgrwt>
<rscale>  0 0.23086022E+04</rscale>
<asrwt>0</asrwt>
<pdfrwt beam="1">  1        1 0.25277995E+00 0.23086022E+04</pdfrwt>
<pdfrwt beam="2">  1       -1 0.12475813E+00 0.23086022E+04</pdfrwt>
<totfact> 0.26476380E+00</totfact>
</mgrwt>
</event>
<event>
 4    1  0.2482334E-008  0.2454976E+04  0.7816531E-02  0.8419203E-01
         -2   -1    0    0    0  501 -0.00000000000E+00  0.00000000000E+00  0.85643970970E+03  0.85643970970E+03  0.00000000000E+00 0. -1.
          2   -1    0    0  501    0  0.00000000000E+00 -0.00000000000E+00 -0.17592917051E+04  0.17592917051E+04  0.00000000000E+00 0.  1.
    2000013    1    1    2    0    0  0.36156900568E+03 -0.68776886858E+03 -0.42834867837E+03  0.12999002857E+04  0.95000000000E+03 0.  0.
   -2000013    1    1    2    0    0 -0.36156900568E+03  0.68776886858E+03 -0.47450331702E+03  0.13158311291E+04  0.95000000000E+03 0.  0.
<mgrwt>
<rscale>  0 0.24549764E+04</rscale>
<asrwt>0</asrwt>
<pdfrwt beam="2">  1        2 0.27066026E+00 0.24549764E+04</pdfrwt>
<pdfrwt beam="1">  1       -2 0.13175996E+00 0.24549764E+04</pdfrwt>
<totfact> 0.34157922E+00</totfact>
</mgrwt>
</event>
<event>
 4    1  0.2482334E-008  0.2189072E+04  0.7816531E-02  0.8522990E-01
          2   -1    0    0  501    0  0.00000000000E+00  0.00000000000E+00  0.30593500414E+04  0.30593500414E+04  0.00000000000E+00 0.  1.
         -2   -1    0    0    0  501 -0.00000000000E+00 -0.00000000000E+00 -0.39158941096E+03  0.39158941096E+03  0.00000000000E+00 0. -1.
    2000013    1    1    2    0    0 -0.34801565745E+02  0.54003094953E+03  0.14152542985E+04  0.17883761642E+04  0.95000000000E+03 0.  0.
   -2000013    1    1    2    0    0  0.34801565745E+02 -0.54003094953E+03  0.12525063320E+04  0.16625632881E+04  0.95000000000E+03 0.  0.
<mgrwt>
<rscale>  0 0.21890720E+04</rscale>
<asrwt>0</asrwt>
<pdfrwt beam="1">  1        2 0.47066922E+00 0.21890720E+04</pdfrwt>
<pdfrwt beam="2">  1       -2 0.60244527E-01 0.21890720E+04</pdfrwt>
<totfact> 0.37579344E+00</totfact>
</mgrwt>
</event>
<event>
 4    1  0.2482334E-008  0.3697813E+04  0.7816531E-02  0.8068447E-01
         -2   -1    0    0    0  501 -0.00000000000E+00  0.00000000000E+00  0.14820194616E+04  0.14820194616E+04  0.00000000000E+00 0. -1.
          2   -1    0    0  501    0  0.00000000000E+00 -0.00000000000E+00 -0.23066196423E+04  0.23066196423E+04  0.00000000000E+00 0.  1.
    2000013    1    1    2    0    0  0.71094319258E+03 -0.12821450609E+04 -0.10326629532E+04  0.20293420006E+04  0.95000000000E+03 0.  0.
   -2000013    1    1    2    0    0 -0.71094319258E+03  0.12821450609E+04  0.20806277248E+03  0.17592971033E+04  0.95000000000E+03 0.  0.
<mgrwt>
<rscale>  0 0.36978130E+04</rscale>
<asrwt>0</asrwt>
<pdfrwt beam="2">  1        2 0.35486456E+00 0.36978130E+04</pdfrwt>
<pdfrwt beam="1">  1       -2 0.22800299E+00 0.36978130E+04</pdfrwt>
<totfact> 0.31980013E-01</totfact>
</mgrwt>
</event>
<event>
 4    1  0.2482334E-008  0.2267874E+04  0.7816531E-02  0.8490697E-01
          2   -1    0    0  501    0  0.00000000000E+00  0.00000000000E+00  0.17439893363E+04  0.17439893363E+04  0.00000000000E+00 0.  1.
         -2   -1    0    0    0  501 -0.00000000000E+00 -0.00000000000E+00 -0.73728243826E+03  0.73728243826E+03  0.00000000000E+00 0. -1.
    2000013    1    1    2    0    0 -0.39208394799E+03 -0.45093298405E+03  0.32611550910E+03  0.11687265307E+04  0.95000000000E+03 0.  0.
   -2000013    1    1    2    0    0  0.39208394799E+03  0.45093298405E+03  0.68059138894E+03  0.13125452438E+04  0.95000000000E+03 0.  0.
<mgrwt>
<rscale>  0 0.22678736E+04</rscale>
<asrwt>0</asrwt>
<pdfrwt beam="1">  1        2 0.26830605E+00 0.22678736E+04</pdfrwt>
<pdfrwt beam="2">  1       -2 0.11342807E+00 0.22678736E+04</pdfrwt>
<totfact> 0.51385188E+00</totfact>
</mgrwt>
</event>
<event>
 4    1  0.2482334E-008  0.2640347E+04  0.7816531E-02  0.8354624E-01
         -2   -1    0    0    0  501 -0.00000000000E+00  0.00000000000E+00  0.10974954084E+04  0.10974954084E+04  0.00000000000E+00 0. -1.
          2   -1    0    0  501    0  0.00000000000E+00 -0.00000000000E+00 -0.15880316301E+04  0.15880316301E+04  0.00000000000E+00 0.  1.
    2000013    1    1    2    0    0 -0.81911256695E+03 -0.10013073543E+03  0.16079496488E+03  0.12685923625E+04  0.95000000000E+03 0.  0.
   -2000013    1    1    2    0    0  0.81911256695E+03  0.10013073543E+03 -0.65133118650E+03  0.14169346760E+04  0.95000000000E+03 0.  0.
<mgrwt>
<rscale>  0 0.26403465E+04</rscale>
<asrwt>0</asrwt>
<pdfrwt beam="2">  1        2 0.24431256E+00 0.26403465E+04</pdfrwt>
<pdfrwt beam="1">  1       -2 0.16884545E+00 0.26403465E+04</pdfrwt>
<totfact> 0.21691824E+00</totfact>
</mgrwt>
</event>
<event>
 4    1  0.2482334E-008  0.2655409E+04  0.7816531E-02  0.8349620E-01
         -2   -1    0    0    0  501 -0.00000000000E+00  0.00000000000E+00  0.10548669314E+04  0.10548669314E+04  0.00000000000E+00 0. -1.
          2   -1    0    0  501    0  0.00000000000E+00 -0.00000000000E+00 -0.16711099456E+04  0.16711099456E+04  0.00000000000E+00 0.  1.
    2000013    1    1    2    0    0  0.83837630140E+03  0.16753374476E+03  0.61097896174E+02  0.12795215244E+04  0.95000000000E+03 0.  0.
   -2000013    1    1    2    0    0 -0.83837630140E+03 -0.16753374476E+03 -0.67734091038E+03  0.14464553527E+04  0.95000000000E+03 0.  0.
<mgrwt>
<rscale>  0 0.26554085E+04</rscale>
<asrwt>0</asrwt>
<pdfrwt beam="2">  1        2 0.25709384E+00 0.26554085E+04</pdfrwt>
<pdfrwt beam="1">  1       -2 0.16228722E+00 0.26554085E+04</pdfrwt>
<totfact> 0.21717375E+00</totfact>
</mgrwt>
</event>
<event>
 4    1  0.2482334E-008  0.3140188E+04  0.7816531E-02  0.8204795E-01
          2   -1    0    0  501    0  0.00000000000E+00  0.00000000000E+00  0.21215135588E+04  0.21215135588E+04  0.00000000000E+00 0.  1.
         -2   -1    0    0    0  501 -0.00000000000E+00 -0.00000000000E+00 -0.11619979970E+04  0.11619979970E+04  0.00000000000E+00 0. -1.
    2000013    1    1    2    0    0 -0.93864134831E+03  0.79262565271E+03  0.23814549277E+03  0.15711512600E+04  0.95000000000E+03 0.  0.
   -2000013    1    1    2    0    0  0.93864134831E+03 -0.79262565271E+03  0.72137006909E+03  0.17123602958E+04  0.95000000000E+03 0.  0.
<mgrwt>
<rscale>  0 0.31401876E+04</rscale>
<asrwt>0</asrwt>
<pdfrwt beam="1">  1        2 0.32638670E+00 0.31401876E+04</pdfrwt>
<pdfrwt beam="2">  1       -2 0.17876892E+00 0.31401876E+04</pdfrwt>
<totfact> 0.89438518E-01</totfact>
</mgrwt>
</event>
<event>
 4    1  0.2482334E-008  0.3080815E+04  0.7816531E-02  0.8221023E-01
         -2   -1    0    0    0  501 -0.00000000000E+00  0.00000000000E+00  0.18072875430E+04  0.18072875430E+04  0.00000000000E+00 0. -1.
          2   -1    0    0  501    0  0.00000000000E+00 -0.00000000000E+00 -0.13129370644E+04  0.13129370644E+04  0.00000000000E+00 0.  1.
    2000013    1    1    2    0    0 -0.10998430784E+04  0.47949056789E+03  0.69463278885E+02  0.15319566407E+04  0.95000000000E+03 0.  0.
   -2000013    1    1    2    0    0  0.10998430784E+04 -0.47949056789E+03  0.42488719977E+03  0.15882679668E+04  0.95000000000E+03 0.  0.
<mgrwt>
<rscale>  0 0.30808147E+04</rscale>
<asrwt>0</asrwt>
<pdfrwt beam="2">  1        2 0.20199032E+00 0.30808147E+04</pdfrwt>
<pdfrwt beam="1">  1       -2 0.27804424E+00 0.30808147E+04</pdfrwt>
<totfact> 0.59798910E-01</totfact>
</mgrwt>
</event>
<event>
 4    1  0.2482334E-008  0.3277913E+04  0.7816531E-02  0.8168538E-01
         -2   -1    0    0    0  501 -0.00000000000E+00  0.00000000000E+00  0.10032895232E+04  0.10032895232E+04  0.00000000000E+00 0. -1.
          2   -1    0    0  501    0  0.00000000000E+00 -0.00000000000E+00 -0.26773713512E+04  0.26773713512E+04  0.00000000000E+00 0.  1.
    2000013    1    1    2    0    0  0.13270957678E+04 -0.73856082225E+02 -0.98362014590E+03  0.19069993417E+04  0.95000000000E+03 0.  0.
   -2000013    1    1    2    0    0 -0.13270957678E+04  0.73856082225E+02 -0.69046168212E+03  0.17736615326E+04  0.95000000000E+03 0.  0.
<mgrwt>
<rscale>  0 0.32779131E+04</rscale>
<asrwt>0</asrwt>
<pdfrwt beam="2">  1        2 0.41190328E+00 0.32779131E+04</pdfrwt>
<pdfrwt beam="1">  1       -2 0.15435224E+00 0.32779131E+04</pdfrwt>
<totfact> 0.63605948E-01</totfact>
</mgrwt>
</event>
<event>
 4    1  0.2482334E-008  0.2186414E+04  0.7816531E-02  0.8524104E-01
          2   -1    0    0  501    0  0.00000000000E+00  0.00000000000E+00  0.12268575559E+04  0.12268575559E+04  0.00000000000E+00 0.  1.
         -2   -1    0    0    0  501 -0.00000000000E+00 -0.00000000000E+00 -0.97411632177E+03  0.97411632177E+03  0.00000000000E+00 0. -1.
    2000013    1    1    2    0    0  0.45246006046E+03 -0.29245844062E+03  0.17516943605E+03  0.11060905827E+04  0.95000000000E+03 0.  0.
   -2000013    1    1    2    0    0 -0.45246006046E+03  0.29245844062E+03  0.77571798090E+02  0.10948832950E+04  0.95000000000E+03 0.  0.
<mgrwt>
<rscale>  0 0.21864144E+04</rscale>
<asrwt>0</asrwt>
<pdfrwt beam="1">  1        2 0.18874732E+00 0.21864144E+04</pdfrwt>
<pdfrwt beam="2">  1       -2 0.14986405E+00 0.21864144E+04</pdfrwt>
<totfact> 0.50175123E+00</totfact>
</mgrwt>
</event>
<event>
 4    1  0.2482334E-008  0.2461626E+04  0.7816531E-02  0.8416786E-01
         -2   -1    0    0    0  501 -0.00000000000E+00  0.00000000000E+00  0.73506563812E+03  0.73506563812E+03  0.00000000000E+00 0.  1.
          2   -1    0    0  501    0  0.00000000000E+00 -0.00000000000E+00 -0.20609047673E+04  0.20609047673E+04  0.00000000000E+00 0. -1.
    2000013    1    1    2    0    0  0.63254655935E+03 -0.26215420276E+01 -0.13960441545E+03  0.11498310376E+04  0.95000000000E+03 0.  0.
   -2000013    1    1    2    0    0 -0.63254655935E+03  0.26215420276E+01 -0.11862347138E+04  0.16461393678E+04  0.95000000000E+03 0.  0.
<mgrwt>
<rscale>  0 0.24616257E+04</rscale>
<asrwt>0</asrwt>
<pdfrwt beam="2">  1        2 0.31706227E+00 0.24616257E+04</pdfrwt>
<pdfrwt beam="1">  1       -2 0.11308702E+00 0.24616257E+04</pdfrwt>
<totfact> 0.33957466E+00</totfact>
</mgrwt>
</event>
<event>
 4    1  0.2482334E-008  0.2552472E+04  0.7816531E-02  0.8384527E-01
          2   -1    0    0  501    0  0.00000000000E+00  0.00000000000E+00  0.21221546245E+04  0.21221546245E+04  0.00000000000E+00 0.  1.
         -2   -1    0    0    0  501 -0.00000000000E+00 -0.00000000000E+00 -0.76751168625E+03  0.76751168625E+03  0.00000000000E+00 0. -1.
    2000013    1    1    2    0    0  0.37043803987E+03 -0.76064326523E+03  0.56144813005E+03  0.13905130424E+04  0.95000000000E+03 0.  0.
   -2000013    1    1    2    0    0 -0.37043803987E+03  0.76064326523E+03  0.79319480824E+03  0.14991532684E+04  0.95000000000E+03 0.  0.
<mgrwt>
<rscale>  0 0.25524721E+04</rscale>
<asrwt>0</asrwt>
<pdfrwt beam="1">  1        2 0.32648532E+00 0.25524721E+04</pdfrwt>
<pdfrwt beam="2">  1       -2 0.11807872E+00 0.25524721E+04</pdfrwt>
<totfact> 0.28025823E+00</totfact>
</mgrwt>
</event>
<event>
 4    1  0.2482334E-008  0.2579863E+04  0.7816531E-02  0.8375074E-01
         -2   -1    0    0    0  501 -0.00000000000E+00  0.00000000000E+00  0.55371166183E+03  0.55371166183E+03  0.00000000000E+00 0. -1.
          2   -1    0    0  501    0  0.00000000000E+00 -0.00000000000E+00 -0.30050358068E+04  0.30050358068E+04  0.00000000000E+00 0.  1.
    2000013    1    1    2    0    0  0.60028220971E+03  0.95225775038E+01 -0.35214895704E+03  0.11776834459E+04  0.95000000000E+03 0.  0.
   -2000013    1    1    2    0    0 -0.60028220971E+03 -0.95225775038E+01 -0.20991751880E+04  0.23810640228E+04  0.95000000000E+03 0.  0.
<mgrwt>
<rscale>  0 0.25798631E+04</rscale>
<asrwt>0</asrwt>
<pdfrwt beam="2">  1        2 0.46231320E+00 0.25798631E+04</pdfrwt>
<pdfrwt beam="1">  1       -2 0.85186410E-01 0.25798631E+04</pdfrwt>
<totfact> 0.18361023E+00</totfact>
</mgrwt>
</event>
<event>
 4    1  0.2482334E-008  0.2143355E+04  0.7816531E-02  0.8542382E-01
          2   -1    0    0  501    0  0.00000000000E+00  0.00000000000E+00  0.20008220248E+04  0.20008220248E+04  0.00000000000E+00 0.  1.
         -2   -1    0    0    0  501 -0.00000000000E+00 -0.00000000000E+00 -0.57401061157E+03  0.57401061157E+03  0.00000000000E+00 0. -1.
    2000013    1    1    2    0    0  0.28401694340E+03  0.16681715716E+03  0.26794914891E+03  0.10405721188E+04  0.95000000000E+03 0.  0.
   -2000013    1    1    2    0    0 -0.28401694340E+03 -0.16681715716E+03  0.11588622643E+04  0.15342605176E+04  0.95000000000E+03 0.  0.
<mgrwt>
<rscale>  0 0.21433554E+04</rscale>
<asrwt>0</asrwt>
<pdfrwt beam="1">  1        2 0.30781877E+00 0.21433554E+04</pdfrwt>
<pdfrwt beam="2">  1       -2 0.88309326E-01 0.21433554E+04</pdfrwt>
<totfact> 0.67657691E+00</totfact>
</mgrwt>
</event>
<event>
 4    1  0.2482334E-008  0.3841335E+04  0.7816531E-02  0.8037342E-01
         -2   -1    0    0    0  501 -0.00000000000E+00  0.00000000000E+00  0.24111680633E+04  0.24111680633E+04  0.00000000000E+00 0. -1.
          2   -1    0    0  501    0  0.00000000000E+00 -0.00000000000E+00 -0.15299486241E+04  0.15299486241E+04  0.00000000000E+00 0.  1.
    2000013    1    1    2    0    0 -0.13978942058E+04 -0.60782311670E+03 -0.25743555092E+03  0.18144779455E+04  0.95000000000E+03 0.  0.
   -2000013    1    1    2    0    0  0.13978942058E+04  0.60782311670E+03  0.11386549901E+04  0.21266387418E+04  0.95000000000E+03 0.  0.
<mgrwt>
<rscale>  0 0.38413348E+04</rscale>
<asrwt>0</asrwt>
<pdfrwt beam="2">  1        2 0.23537671E+00 0.38413348E+04</pdfrwt>
<pdfrwt beam="1">  1       -2 0.37094894E+00 0.38413348E+04</pdfrwt>
<totfact> 0.11164354E-01</totfact>
</mgrwt>
</event>
<event>
 4    1  0.2482334E-008  0.2667223E+04  0.7816531E-02  0.8345719E-01
          2   -1    0    0  501    0  0.00000000000E+00  0.00000000000E+00  0.54884926245E+03  0.54884926245E+03  0.00000000000E+00 0.  1.
         -2   -1    0    0    0  501 -0.00000000000E+00 -0.00000000000E+00 -0.32404514554E+04  0.32404514554E+04  0.00000000000E+00 0. -1.
    2000013    1    1    2    0    0  0.48034100538E+03  0.35685434832E+03 -0.32335037333E+03  0.11683869099E+04  0.95000000000E+03 0.  0.
   -2000013    1    1    2    0    0 -0.48034100538E+03 -0.35685434832E+03 -0.23682518196E+04  0.26209138079E+04  0.95000000000E+03 0.  0.
<mgrwt>
<rscale>  0 0.26672228E+04</rscale>
<asrwt>0</asrwt>
<pdfrwt beam="1">  1        2 0.84438348E-01 0.26672228E+04</pdfrwt>
<pdfrwt beam="2">  1       -2 0.49853099E+00 0.26672228E+04</pdfrwt>
<totfact> 0.81465799E-02</totfact>
</mgrwt>
</event>
<event>
 4    1  0.2482334E-008  0.2357372E+04  0.7816531E-02  0.8455637E-01
          2   -1    0    0  501    0  0.00000000000E+00  0.00000000000E+00  0.22671915880E+04  0.22671915880E+04  0.00000000000E+00 0.  1.
         -2   -1    0    0    0  501 -0.00000000000E+00 -0.00000000000E+00 -0.61278508464E+03  0.61278508464E+03  0.00000000000E+00 0. -1.
    2000013    1    1    2    0    0  0.54204082667E+02 -0.63938214980E+03  0.11618961188E+04  0.16322531075E+04  0.95000000000E+03 0.  0.
   -2000013    1    1    2    0    0 -0.54204082667E+02  0.63938214980E+03  0.49251038456E+03  0.12477235651E+04  0.95000000000E+03 0.  0.
<mgrwt>
<rscale>  0 0.23573724E+04</rscale>
<asrwt>0</asrwt>
<pdfrwt beam="1">  1        2 0.34879870E+00 0.23573724E+04</pdfrwt>
<pdfrwt beam="2">  1       -2 0.94274629E-01 0.23573724E+04</pdfrwt>
<totfact> 0.40510588E+00</totfact>
</mgrwt>
</event>
<event>
 4    1  0.2482334E-008  0.2780841E+04  0.7816531E-02  0.8309241E-01
          2   -1    0    0  501    0  0.00000000000E+00  0.00000000000E+00  0.10184790030E+04  0.10184790030E+04  0.00000000000E+00 0.  1.
         -2   -1    0    0    0  501 -0.00000000000E+00 -0.00000000000E+00 -0.18981927140E+04  0.18981927140E+04  0.00000000000E+00 0. -1.
    2000013    1    1    2    0    0  0.86507752544E+03  0.53141499201E+03 -0.43681627909E+03  0.14574187732E+04  0.95000000000E+03 0.  0.
   -2000013    1    1    2    0    0 -0.86507752544E+03 -0.53141499201E+03 -0.44289743195E+03  0.14592529438E+04  0.95000000000E+03 0.  0.
<mgrwt>
<rscale>  0 0.27808412E+04</rscale>
<asrwt>0</asrwt>
<pdfrwt beam="1">  1        2 0.15668908E+00 0.27808412E+04</pdfrwt>
<pdfrwt beam="2">  1       -2 0.29202965E+00 0.27808412E+04</pdfrwt>
<totfact> 0.75960023E-01</totfact>
</mgrwt>
</event>
<event>
 4    1  0.2482334E-008  0.3950739E+04  0.7816531E-02  0.8014558E-01
         -1   -1    0    0    0  501 -0.00000000000E+00  0.00000000000E+00  0.20896761011E+04  0.20896761011E+04  0.00000000000E+00 0.  1.
          1   -1    0    0  501    0  0.00000000000E+00 -0.00000000000E+00 -0.18673152942E+04  0.18673152942E+04  0.00000000000E+00 0. -1.
    2000013    1    1    2    0    0  0.10856839062E+04  0.13357582069E+04 -0.80498056946E+02  0.19677244392E+04  0.95000000000E+03 0.  0.
   -2000013    1    1    2    0    0 -0.10856839062E+04 -0.13357582069E+04  0.30285886380E+03  0.19892669561E+04  0.95000000000E+03 0.  0.
<mgrwt>
<rscale>  0 0.39507387E+04</rscale>
<asrwt>0</asrwt>
<pdfrwt beam="2">  1        1 0.28727928E+00 0.39507387E+04</pdfrwt>
<pdfrwt beam="1">  1       -1 0.32148863E+00 0.39507387E+04</pdfrwt>
<totfact> 0.68949744E-02</totfact>
</mgrwt>
</event>
<event>
 4    1  0.2482334E-008  0.2832515E+04  0.7816531E-02  0.8293244E-01
          2   -1    0    0  501    0  0.00000000000E+00  0.00000000000E+00  0.26959735040E+04  0.26959735040E+04  0.00000000000E+00 0.  1.
         -2   -1    0    0    0  501 -0.00000000000E+00 -0.00000000000E+00 -0.74399319716E+03  0.74399319716E+03  0.00000000000E+00 0. -1.
    2000013    1    1    2    0    0  0.73925918222E+03 -0.44279793196E+03  0.17053840510E+04  0.21338718117E+04  0.95000000000E+03 0.  0.
   -2000013    1    1    2    0    0 -0.73925918222E+03  0.44279793196E+03  0.24659625580E+03  0.13060948895E+04  0.95000000000E+03 0.  0.
<mgrwt>
<rscale>  0 0.28325155E+04</rscale>
<asrwt>0</asrwt>
<pdfrwt beam="1">  1        2 0.41476515E+00 0.28325155E+04</pdfrwt>
<pdfrwt beam="2">  1       -2 0.11446049E+00 0.28325155E+04</pdfrwt>
<totfact> 0.13817306E+00</totfact>
</mgrwt>
</event>
<event>
 4    1  0.2482334E-008  0.2842428E+04  0.7816531E-02  0.8290216E-01
          2   -1    0    0  501    0  0.00000000000E+00  0.00000000000E+00  0.15178045456E+04  0.15178045456E+04  0.00000000000E+00 0.  1.
         -2   -1    0    0    0  501 -0.00000000000E+00 -0.00000000000E+00 -0.13307703645E+04  0.13307703645E+04  0.00000000000E+00 0. -1.
    2000013    1    1    2    0    0 -0.73148054524E+03 -0.75725523260E+03  0.18779514443E+03  0.14304776446E+04  0.95000000000E+03 0.  0.
   -2000013    1    1    2    0    0  0.73148054524E+03  0.75725523260E+03 -0.76096335528E+00  0.14180972655E+04  0.95000000000E+03 0.  0.
<mgrwt>
<rscale>  0 0.28424281E+04</rscale>
<asrwt>0</asrwt>
<pdfrwt beam="1">  1        2 0.23350839E+00 0.28424281E+04</pdfrwt>
<pdfrwt beam="2">  1       -2 0.20473390E+00 0.28424281E+04</pdfrwt>
<totfact> 0.13322177E+00</totfact>
</mgrwt>
</event>
<event>
 4    1  0.2482334E-008  0.3507000E+04  0.7816531E-02  0.8112133E-01
         -2   -1    0    0    0  501 -0.00000000000E+00  0.00000000000E+00  0.15388217300E+04  0.15388217300E+04  0.00000000000E+00 0. -1.
          2   -1    0    0  501    0  0.00000000000E+00 -0.00000000000E+00 -0.19981273687E+04  0.19981273687E+04  0.00000000000E+00 0.  1.
    2000013    1    1    2    0    0 -0.14656114213E+04  0.89792931816E+02 -0.35794846835E+03  0.17851349290E+04  0.95000000000E+03 0.  0.
   -2000013    1    1    2    0    0  0.14656114213E+04 -0.89792931816E+02 -0.10135717038E+03  0.17518141696E+04  0.95000000000E+03 0.  0.
<mgrwt>
<rscale>  0 0.35069998E+04</rscale>
<asrwt>0</asrwt>
<pdfrwt beam="2">  1        2 0.30740421E+00 0.35069998E+04</pdfrwt>
<pdfrwt beam="1">  1       -2 0.23674180E+00 0.35069998E+04</pdfrwt>
<totfact> 0.42686754E-01</totfact>
</mgrwt>
</event>
<event>
 4    1  0.2482334E-008  0.3166891E+04  0.7816531E-02  0.8197616E-01
          2   -1    0    0  501    0  0.00000000000E+00  0.00000000000E+00  0.60737109096E+03  0.60737109096E+03  0.00000000000E+00 0.  1.
         -2   -1    0    0    0  501 -0.00000000000E+00 -0.00000000000E+00 -0.41281174838E+04  0.41281174838E+04  0.00000000000E+00 0. -1.
    2000013    1    1    2    0    0 -0.80881314400E+02 -0.96091778754E+03 -0.29888010052E+04  0.32810571818E+04  0.95000000000E+03 0.  0.
   -2000013    1    1    2    0    0  0.80881314400E+02  0.96091778754E+03 -0.53194538764E+03  0.14544313930E+04  0.95000000000E+03 0.  0.
<mgrwt>
<rscale>  0 0.31668907E+04</rscale>
<asrwt>0</asrwt>
<pdfrwt beam="1">  1        2 0.93441705E-01 0.31668907E+04</pdfrwt>
<pdfrwt beam="2">  1       -2 0.63509500E+00 0.31668907E+04</pdfrwt>
<totfact> 0.15405197E-02</totfact>
</mgrwt>
</event>
<event>
 4    1  0.2482334E-008  0.2096497E+04  0.7816531E-02  0.8562788E-01
          1   -1    0    0  501    0  0.00000000000E+00  0.00000000000E+00  0.14615724276E+04  0.14615724276E+04  0.00000000000E+00 0.  1.
         -1   -1    0    0    0  501 -0.00000000000E+00 -0.00000000000E+00 -0.75181037478E+03  0.75181037478E+03  0.00000000000E+00 0. -1.
    2000013    1    1    2    0    0  0.10355279373E+03 -0.38614652881E+03  0.15319911809E+03  0.10420183744E+04  0.95000000000E+03 0.  0.
   -2000013    1    1    2    0    0 -0.10355279373E+03  0.38614652881E+03  0.55656293473E+03  0.11713644280E+04  0.95000000000E+03 0.  0.
<mgrwt>
<rscale>  0 0.20964974E+04</rscale>
<asrwt>0</asrwt>
<pdfrwt beam="1">  1        1 0.22485730E+00 0.20964974E+04</pdfrwt>
<pdfrwt beam="2">  1       -1 0.11566314E+00 0.20964974E+04</pdfrwt>
<totfact> 0.43326887E+00</totfact>
</mgrwt>
</event>
<event>
 4    1  0.2482334E-008  0.2237997E+04  0.7816531E-02  0.8502777E-01
         -2   -1    0    0    0  501 -0.00000000000E+00  0.00000000000E+00  0.34923109913E+03  0.34923109913E+03  0.00000000000E+00 0. -1.
          2   -1    0    0  501    0  0.00000000000E+00 -0.00000000000E+00 -0.35854701981E+04  0.35854701981E+04  0.00000000000E+00 0.  1.
    2000013    1    1    2    0    0 -0.28893732869E+03 -0.29694190991E+03 -0.23598742943E+04  0.25774339881E+04  0.95000000000E+03 0.  0.
   -2000013    1    1    2    0    0  0.28893732869E+03  0.29694190991E+03 -0.87636480467E+03  0.13572673092E+04  0.95000000000E+03 0.  0.
<mgrwt>
<rscale>  0 0.22379970E+04</rscale>
<asrwt>0</asrwt>
<pdfrwt beam="2">  1        2 0.55161080E+00 0.22379970E+04</pdfrwt>
<pdfrwt beam="1">  1       -2 0.53727862E-01 0.22379970E+04</pdfrwt>
<totfact> 0.21108619E+00</totfact>
</mgrwt>
</event>
<event>
 4    1  0.2482334E-008  0.2933188E+04  0.7816531E-02  0.8263071E-01
         -1   -1    0    0    0  501 -0.00000000000E+00  0.00000000000E+00  0.13421804169E+04  0.13421804169E+04  0.00000000000E+00 0. -1.
          1   -1    0    0  501    0  0.00000000000E+00 -0.00000000000E+00 -0.16025397877E+04  0.16025397877E+04  0.00000000000E+00 0.  1.
    2000013    1    1    2    0    0  0.63034904549E+03 -0.89805855945E+03  0.81715143673E+02  0.14536252819E+04  0.95000000000E+03 0.  0.
   -2000013    1    1    2    0    0 -0.63034904549E+03  0.89805855945E+03 -0.34207451444E+03  0.14910949228E+04  0.95000000000E+03 0.  0.
<mgrwt>
<rscale>  0 0.29331877E+04</rscale>
<asrwt>0</asrwt>
<pdfrwt beam="2">  1        1 0.24654458E+00 0.29331877E+04</pdfrwt>
<pdfrwt beam="1">  1       -1 0.20648930E+00 0.29331877E+04</pdfrwt>
<totfact> 0.64619088E-01</totfact>
</mgrwt>
</event>
<event>
 4    1  0.2482334E-008  0.2678606E+04  0.7816531E-02  0.8341980E-01
          2   -1    0    0  501    0  0.00000000000E+00  0.00000000000E+00  0.16438371719E+04  0.16438371719E+04  0.00000000000E+00 0.  1.
         -2   -1    0    0    0  501 -0.00000000000E+00 -0.00000000000E+00 -0.10911859874E+04  0.10911859874E+04  0.00000000000E+00 0. -1.
    2000013    1    1    2    0    0  0.50332089924E+03 -0.73524500658E+03 -0.42198278120E+02  0.13031492017E+04  0.95000000000E+03 0.  0.
   -2000013    1    1    2    0    0 -0.50332089924E+03  0.73524500658E+03  0.59484946257E+03  0.14318739576E+04  0.95000000000E+03 0.  0.
<mgrwt>
<rscale>  0 0.26786057E+04</rscale>
<asrwt>0</asrwt>
<pdfrwt beam="1">  1        2 0.25289802E+00 0.26786057E+04</pdfrwt>
<pdfrwt beam="2">  1       -2 0.16787477E+00 0.26786057E+04</pdfrwt>
<totfact> 0.20448581E+00</totfact>
</mgrwt>
</event>
<event>
 4    1  0.2482334E-008  0.2228732E+04  0.7816531E-02  0.8506563E-01
         -2   -1    0    0    0  501 -0.00000000000E+00  0.00000000000E+00  0.18551040377E+04  0.18551040377E+04  0.00000000000E+00 0. -1.
          2   -1    0    0  501    0  0.00000000000E+00 -0.00000000000E+00 -0.66940290461E+03  0.66940290461E+03  0.00000000000E+00 0.  1.
    2000013    1    1    2    0    0 -0.96482873297E+02  0.57407922860E+03  0.56919548475E+03  0.12511432394E+04  0.95000000000E+03 0.  0.
   -2000013    1    1    2    0    0  0.96482873297E+02 -0.57407922860E+03  0.61650564835E+03  0.12733637030E+04  0.95000000000E+03 0.  0.
<mgrwt>
<rscale>  0 0.22287324E+04</rscale>
<asrwt>0</asrwt>
<pdfrwt beam="2">  1        2 0.10298506E+00 0.22287324E+04</pdfrwt>
<pdfrwt beam="1">  1       -2 0.28540062E+00 0.22287324E+04</pdfrwt>
<totfact> 0.15433171E+00</totfact>
</mgrwt>
</event>
<event>
 4    1  0.2482334E-008  0.3710849E+04  0.7816531E-02  0.8065562E-01
         -2   -1    0    0    0  501 -0.00000000000E+00  0.00000000000E+00  0.97502697431E+03  0.97502697431E+03  0.00000000000E+00 0. -1.
          2   -1    0    0  501    0  0.00000000000E+00 -0.00000000000E+00 -0.35307743739E+04  0.35307743739E+04  0.00000000000E+00 0.  1.
    2000013    1    1    2    0    0  0.15141022989E+04 -0.38655125067E+03 -0.16583204895E+04  0.24686948954E+04  0.95000000000E+03 0.  0.
   -2000013    1    1    2    0    0 -0.15141022989E+04  0.38655125067E+03 -0.89742691009E+03  0.20371064528E+04  0.95000000000E+03 0.  0.
<mgrwt>
<rscale>  0 0.37108491E+04</rscale>
<asrwt>0</asrwt>
<pdfrwt beam="2">  1        2 0.54319607E+00 0.37108491E+04</pdfrwt>
<pdfrwt beam="1">  1       -2 0.15000415E+00 0.37108491E+04</pdfrwt>
<totfact> 0.18681830E-01</totfact>
</mgrwt>
</event>
<event>
 4    1  0.2482334E-008  0.2159600E+04  0.7816531E-02  0.8535434E-01
          2   -1    0    0  501    0  0.00000000000E+00  0.00000000000E+00  0.18699087727E+04  0.18699087727E+04  0.00000000000E+00 0.  1.
         -2   -1    0    0    0  501 -0.00000000000E+00 -0.00000000000E+00 -0.62354294047E+03  0.62354294047E+03  0.00000000000E+00 0. -1.
    2000013    1    1    2    0    0 -0.22555522447E+02 -0.51052774991E+03  0.67880824430E+03  0.12745304891E+04  0.95000000000E+03 0.  0.
   -2000013    1    1    2    0    0  0.22555522447E+02  0.51052774991E+03  0.56755758798E+03  0.12189212242E+04  0.95000000000E+03 0.  0.
<mgrwt>
<rscale>  0 0.21596003E+04</rscale>
<asrwt>0</asrwt>
<pdfrwt beam="1">  1        2 0.28767827E+00 0.21596003E+04</pdfrwt>
<pdfrwt beam="2">  1       -2 0.95929684E-01 0.21596003E+04</pdfrwt>
<totfact> 0.65924722E+00</totfact>
</mgrwt>
</event>
<event>
 4    1  0.2482334E-008  0.3913745E+04  0.7816531E-02  0.8022176E-01
          2   -1    0    0  501    0  0.00000000000E+00  0.00000000000E+00  0.22952848931E+04  0.22952848931E+04  0.00000000000E+00 0.  1.
         -2   -1    0    0    0  501 -0.00000000000E+00 -0.00000000000E+00 -0.16683552902E+04  0.16683552902E+04  0.00000000000E+00 0. -1.
    2000013    1    1    2    0    0 -0.64563014776E+03  0.12447083228E+04 -0.67919086295E+03  0.18248115861E+04  0.95000000000E+03 0.  0.
   -2000013    1    1    2    0    0  0.64563014776E+03 -0.12447083228E+04  0.13061204658E+04  0.21388285971E+04  0.95000000000E+03 0.  0.
<mgrwt>
<rscale>  0 0.39137454E+04</rscale>
<asrwt>0</asrwt>
<pdfrwt beam="1">  1        2 0.35312076E+00 0.39137454E+04</pdfrwt>
<pdfrwt beam="2">  1       -2 0.25667004E+00 0.39137454E+04</pdfrwt>
<totfact> 0.21191377E-01</totfact>
</mgrwt>
</event>
<event>
 4    1  0.2482334E-008  0.2306639E+04  0.7816531E-02  0.8475308E-01
         -2   -1    0    0    0  501 -0.00000000000E+00  0.00000000000E+00  0.11404764826E+04  0.11404764826E+04  0.00000000000E+00 0. -1.
          2   -1    0    0  501    0  0.00000000000E+00 -0.00000000000E+00 -0.11663072184E+04  0.11663072184E+04  0.00000000000E+00 0.  1.
    2000013    1    1    2    0    0 -0.64240062654E+03  0.11993082105E+03 -0.37082710285E+02  0.11536624698E+04  0.95000000000E+03 0.  0.
   -2000013    1    1    2    0    0  0.64240062654E+03 -0.11993082105E+03  0.11251974464E+02  0.11531212312E+04  0.95000000000E+03 0.  0.
<mgrwt>
<rscale>  0 0.23066391E+04</rscale>
<asrwt>0</asrwt>
<pdfrwt beam="2">  1        2 0.17943188E+00 0.23066391E+04</pdfrwt>
<pdfrwt beam="1">  1       -2 0.17545792E+00 0.23066391E+04</pdfrwt>
<totfact> 0.35070785E+00</totfact>
</mgrwt>
</event>
<event>
 4    1  0.2482334E-008  0.2406358E+04  0.7816531E-02  0.8437127E-01
          2   -1    0    0  501    0  0.00000000000E+00  0.00000000000E+00  0.16027131042E+04  0.16027131042E+04  0.00000000000E+00 0.  1.
         -2   -1    0    0    0  501 -0.00000000000E+00 -0.00000000000E+00 -0.90324353355E+03  0.90324353355E+03  0.00000000000E+00 0. -1.
    2000013    1    1    2    0    0  0.66308156632E+03 -0.26526971084E+03  0.15464422605E+03  0.11985241006E+04  0.95000000000E+03 0.  0.
   -2000013    1    1    2    0    0 -0.66308156632E+03  0.26526971084E+03  0.54482534461E+03  0.13074325372E+04  0.95000000000E+03 0.  0.
<mgrwt>
<rscale>  0 0.24063585E+04</rscale>
<asrwt>0</asrwt>
<pdfrwt beam="1">  1        2 0.24657125E+00 0.24063585E+04</pdfrwt>
<pdfrwt beam="2">  1       -2 0.13896054E+00 0.24063585E+04</pdfrwt>
<totfact> 0.36580157E+00</totfact>
</mgrwt>
</event>
<event>
 4    1  0.2482334E-008  0.2690058E+04  0.7816531E-02  0.8338238E-01
          2   -1    0    0  501    0  0.00000000000E+00  0.00000000000E+00  0.34011801622E+04  0.34011801622E+04  0.00000000000E+00 0.  1.
         -2   -1    0    0    0  501 -0.00000000000E+00 -0.00000000000E+00 -0.53190451167E+03  0.53190451167E+03  0.00000000000E+00 0. -1.
    2000013    1    1    2    0    0 -0.81450759028E+03  0.30587216013E+03  0.20001869832E+04  0.23791234438E+04  0.95000000000E+03 0.  0.
   -2000013    1    1    2    0    0  0.81450759028E+03 -0.30587216013E+03  0.86908866735E+03  0.15539612301E+04  0.95000000000E+03 0.  0.
<mgrwt>
<rscale>  0 0.26900580E+04</rscale>
<asrwt>0</asrwt>
<pdfrwt beam="1">  1        2 0.52325847E+00 0.26900580E+04</pdfrwt>
<pdfrwt beam="2">  1       -2 0.81831466E-01 0.26900580E+04</pdfrwt>
<totfact> 0.10975535E+00</totfact>
</mgrwt>
</event>
<event>
 4    1  0.2482334E-008  0.2084738E+04  0.7816531E-02  0.8567996E-01
         -2   -1    0    0    0  501 -0.00000000000E+00  0.00000000000E+00  0.11150402726E+04  0.11150402726E+04  0.00000000000E+00 0. -1.
          2   -1    0    0  501    0  0.00000000000E+00 -0.00000000000E+00 -0.97443373742E+03  0.97443373742E+03  0.00000000000E+00 0.  1.
    2000013    1    1    2    0    0 -0.82612249875E+02  0.41526086701E+03  0.13949987914E+03  0.10493934380E+04  0.95000000000E+03 0.  0.
   -2000013    1    1    2    0    0  0.82612249875E+02 -0.41526086701E+03  0.11066560183E+01  0.10400805720E+04  0.95000000000E+03 0.  0.
<mgrwt>
<rscale>  0 0.20847377E+04</rscale>
<asrwt>0</asrwt>
<pdfrwt beam="2">  1        2 0.14991288E+00 0.20847377E+04</pdfrwt>
<pdfrwt beam="1">  1       -2 0.17154466E+00 0.20847377E+04</pdfrwt>
<totfact> 0.50164703E+00</totfact>
</mgrwt>
</event>
<event>
 4    1  0.2482334E-008  0.3097319E+04  0.7816531E-02  0.8216474E-01
          1   -1    0    0  501    0  0.00000000000E+00  0.00000000000E+00  0.13350478228E+04  0.13350478228E+04  0.00000000000E+00 0.  1.
         -1   -1    0    0    0  501 -0.00000000000E+00 -0.00000000000E+00 -0.17964495350E+04  0.17964495350E+04  0.00000000000E+00 0. -1.
    2000013    1    1    2    0    0 -0.18041745088E+03 -0.12053256369E+04 -0.12717121709E+03  0.15504943941E+04  0.95000000000E+03 0.  0.
   -2000013    1    1    2    0    0  0.18041745088E+03  0.12053256369E+04 -0.33423049508E+03  0.15810029637E+04  0.95000000000E+03 0.  0.
<mgrwt>
<rscale>  0 0.30973189E+04</rscale>
<asrwt>0</asrwt>
<pdfrwt beam="1">  1        1 0.20539197E+00 0.30973189E+04</pdfrwt>
<pdfrwt beam="2">  1       -1 0.27637685E+00 0.30973189E+04</pdfrwt>
<totfact> 0.33857147E-01</totfact>
</mgrwt>
</event>
<event>
 4    1  0.2482334E-008  0.2982993E+04  0.7816531E-02  0.8248604E-01
          1   -1    0    0  501    0  0.00000000000E+00  0.00000000000E+00  0.21473133779E+04  0.21473133779E+04  0.00000000000E+00 0.  1.
         -1   -1    0    0    0  501 -0.00000000000E+00 -0.00000000000E+00 -0.10359741564E+04  0.10359741564E+04  0.00000000000E+00 0. -1.
    2000013    1    1    2    0    0 -0.94081438652E+03 -0.60872366705E+03  0.83062264830E+03  0.16876344973E+04  0.95000000000E+03 0.  0.
   -2000013    1    1    2    0    0  0.94081438652E+03  0.60872366705E+03  0.28071657315E+03  0.14956530370E+04  0.95000000000E+03 0.  0.
<mgrwt>
<rscale>  0 0.29829926E+04</rscale>
<asrwt>0</asrwt>
<pdfrwt beam="1">  1        1 0.33035590E+00 0.29829926E+04</pdfrwt>
<pdfrwt beam="2">  1       -1 0.15938064E+00 0.29829926E+04</pdfrwt>
<totfact> 0.59574319E-01</totfact>
</mgrwt>
</event>
<event>
 4    1  0.2482334E-008  0.2299289E+04  0.7816531E-02  0.8478202E-01
          2   -1    0    0  501    0  0.00000000000E+00  0.00000000000E+00  0.10157985162E+04  0.10157985162E+04  0.00000000000E+00 0.  1.
         -2   -1    0    0    0  501 -0.00000000000E+00 -0.00000000000E+00 -0.13011262353E+04  0.13011262353E+04  0.00000000000E+00 0. -1.
    2000013    1    1    2    0    0  0.45587167279E+03 -0.41449942876E+03  0.57741814881E+02  0.11337825522E+04  0.95000000000E+03 0.  0.
   -2000013    1    1    2    0    0 -0.45587167279E+03  0.41449942876E+03 -0.34306953406E+03  0.11831421993E+04  0.95000000000E+03 0.  0.
<mgrwt>
<rscale>  0 0.22992887E+04</rscale>
<asrwt>0</asrwt>
<pdfrwt beam="1">  1        2 0.15627669E+00 0.22992887E+04</pdfrwt>
<pdfrwt beam="2">  1       -2 0.20017327E+00 0.22992887E+04</pdfrwt>
<totfact> 0.29589572E+00</totfact>
</mgrwt>
</event>
<event>
 4    1  0.2482334E-008  0.1990337E+04  0.7816531E-02  0.8611152E-01
          2   -1    0    0  501    0  0.00000000000E+00  0.00000000000E+00  0.18346177990E+04  0.18346177990E+04  0.00000000000E+00 0.  1.
         -2   -1    0    0    0  501 -0.00000000000E+00 -0.00000000000E+00 -0.53981820170E+03  0.53981820170E+03  0.00000000000E+00 0. -1.
    2000013    1    1    2    0    0 -0.51631550118E+02  0.27345832806E+03  0.52565244768E+03  0.11208281625E+04  0.95000000000E+03 0.  0.
   -2000013    1    1    2    0    0  0.51631550118E+02 -0.27345832806E+03  0.76914714960E+03  0.12536078382E+04  0.95000000000E+03 0.  0.
<mgrwt>
<rscale>  0 0.19903367E+04</rscale>
<asrwt>0</asrwt>
<pdfrwt beam="1">  1        2 0.28224889E+00 0.19903367E+04</pdfrwt>
<pdfrwt beam="2">  1       -2 0.83048955E-01 0.19903367E+04</pdfrwt>
<totfact> 0.97491794E+00</totfact>
</mgrwt>
</event>
<event>
 4    1  0.2482334E-008  0.2200333E+04  0.7816531E-02  0.8518289E-01
         -2   -1    0    0    0  501 -0.00000000000E+00  0.00000000000E+00  0.77237769159E+03  0.77237769159E+03  0.00000000000E+00 0. -1.
          2   -1    0    0  501    0  0.00000000000E+00 -0.00000000000E+00 -0.15670657883E+04  0.15670657883E+04  0.00000000000E+00 0.  1.
    2000013    1    1    2    0    0  0.11038854009E+03  0.37284995122E+03 -0.81817590549E+03  0.13126745706E+04  0.95000000000E+03 0.  0.
   -2000013    1    1    2    0    0 -0.11038854009E+03 -0.37284995122E+03  0.23487808808E+02  0.10267689093E+04  0.95000000000E+03 0.  0.
<mgrwt>
<rscale>  0 0.22003333E+04</rscale>
<asrwt>0</asrwt>
<pdfrwt beam="2">  1        2 0.24108704E+00 0.22003333E+04</pdfrwt>
<pdfrwt beam="1">  1       -2 0.11882734E+00 0.22003333E+04</pdfrwt>
<totfact> 0.57880042E+00</totfact>
</mgrwt>
</event>
<event>
 4    1  0.2482334E-008  0.2249516E+04  0.7816531E-02  0.8498097E-01
         -2   -1    0    0    0  501 -0.00000000000E+00  0.00000000000E+00  0.10154126926E+04  0.10154126926E+04  0.00000000000E+00 0. -1.
          2   -1    0    0  501    0  0.00000000000E+00 -0.00000000000E+00 -0.12458780591E+04  0.12458780591E+04  0.00000000000E+00 0.  1.
    2000013    1    1    2    0    0 -0.37110206147E+03 -0.47383693281E+03 -0.96636779011E+02  0.11287501256E+04  0.95000000000E+03 0.  0.
   -2000013    1    1    2    0    0  0.37110206147E+03  0.47383693281E+03 -0.13382858744E+03  0.11325406261E+04  0.95000000000E+03 0.  0.
<mgrwt>
<rscale>  0 0.22495159E+04</rscale>
<asrwt>0</asrwt>
<pdfrwt beam="2">  1        2 0.19167355E+00 0.22495159E+04</pdfrwt>
<pdfrwt beam="1">  1       -2 0.15621734E+00 0.22495159E+04</pdfrwt>
<totfact> 0.43528377E+00</totfact>
</mgrwt>
</event>
<event>
 4    1  0.2482334E-008  0.2356013E+04  0.7816531E-02  0.8456158E-01
          2   -1    0    0  501    0  0.00000000000E+00  0.00000000000E+00  0.20443506559E+04  0.20443506559E+04  0.00000000000E+00 0. -1.
         -2   -1    0    0    0  501 -0.00000000000E+00 -0.00000000000E+00 -0.67879696429E+03  0.67879696429E+03  0.00000000000E+00 0.  1.
    2000013    1    1    2    0    0 -0.25422754602E+03 -0.55398110798E+03  0.29308539004E+03  0.11661585480E+04  0.95000000000E+03 0.  0.
   -2000013    1    1    2    0    0  0.25422754602E+03  0.55398110798E+03  0.10724683016E+04  0.15569890722E+04  0.95000000000E+03 0.  0.
<mgrwt>
<rscale>  0 0.23560127E+04</rscale>
<asrwt>0</asrwt>
<pdfrwt beam="1">  1        2 0.31451548E+00 0.23560127E+04</pdfrwt>
<pdfrwt beam="2">  1       -2 0.10443030E+00 0.23560127E+04</pdfrwt>
<totfact> 0.42419233E+00</totfact>
</mgrwt>
</event>
<event>
 4    1  0.2482334E-008  0.2888427E+04  0.7816531E-02  0.8276329E-01
          2   -1    0    0  501    0  0.00000000000E+00  0.00000000000E+00  0.26725524136E+04  0.26725524136E+04  0.00000000000E+00 0.  1.
         -2   -1    0    0    0  501 -0.00000000000E+00 -0.00000000000E+00 -0.78043485232E+03  0.78043485232E+03  0.00000000000E+00 0. -1.
    2000013    1    1    2    0    0 -0.99557046364E+03  0.42982157336E+03  0.10485192860E+04  0.17826384451E+04  0.95000000000E+03 0.  0.
   -2000013    1    1    2    0    0  0.99557046364E+03 -0.42982157336E+03  0.84359827529E+03  0.16703488208E+04  0.95000000000E+03 0.  0.
<mgrwt>
<rscale>  0 0.28884273E+04</rscale>
<asrwt>0</asrwt>
<pdfrwt beam="1">  1        2 0.41116191E+00 0.28884273E+04</pdfrwt>
<pdfrwt beam="2">  1       -2 0.12006690E+00 0.28884273E+04</pdfrwt>
<totfact> 0.12626478E+00</totfact>
</mgrwt>
</event>
<event>
 4    1  0.2482334E-008  0.3886419E+04  0.7816531E-02  0.8027860E-01
          2   -1    0    0  501    0  0.00000000000E+00  0.00000000000E+00  0.22195278100E+04  0.22195278100E+04  0.00000000000E+00 0.  1.
         -2   -1    0    0    0  501 -0.00000000000E+00 -0.00000000000E+00 -0.17012914146E+04  0.17012914146E+04  0.00000000000E+00 0. -1.
    2000013    1    1    2    0    0  0.13197228530E+04  0.43916266868E+03  0.12367317610E+04  0.20896262122E+04  0.95000000000E+03 0.  0.
   -2000013    1    1    2    0    0 -0.13197228530E+04 -0.43916266868E+03 -0.71849536562E+03  0.18311930124E+04  0.95000000000E+03 0.  0.
<mgrwt>
<rscale>  0 0.38864192E+04</rscale>
<asrwt>0</asrwt>
<pdfrwt beam="1">  1        2 0.34146582E+00 0.38864192E+04</pdfrwt>
<pdfrwt beam="2">  1       -2 0.26173714E+00 0.38864192E+04</pdfrwt>
<totfact> 0.21824843E-01</totfact>
</mgrwt>
</event>
<event>
 4    1  0.2482334E-008  0.2659111E+04  0.7816531E-02  0.8348395E-01
          2   -1    0    0  501    0  0.00000000000E+00  0.00000000000E+00  0.16993381180E+04  0.16993381180E+04  0.00000000000E+00 0.  1.
         -2   -1    0    0    0  501 -0.00000000000E+00 -0.00000000000E+00 -0.10402387347E+04  0.10402387347E+04  0.00000000000E+00 0. -1.
    2000013    1    1    2    0    0  0.13591794219E+03 -0.91307348889E+03  0.44720008436E+03  0.13980932725E+04  0.95000000000E+03 0.  0.
   -2000013    1    1    2    0    0 -0.13591794219E+03  0.91307348889E+03  0.21189929893E+03  0.13414835802E+04  0.95000000000E+03 0.  0.
<mgrwt>
<rscale>  0 0.26591106E+04</rscale>
<asrwt>0</asrwt>
<pdfrwt beam="1">  1        2 0.26143663E+00 0.26591106E+04</pdfrwt>
<pdfrwt beam="2">  1       -2 0.16003673E+00 0.26591106E+04</pdfrwt>
<totfact> 0.21753127E+00</totfact>
</mgrwt>
</event>
<event>
 4    1  0.2482334E-008  0.3138411E+04  0.7816531E-02  0.8205275E-01
          1   -1    0    0  501    0  0.00000000000E+00  0.00000000000E+00  0.37990008906E+04  0.37990008906E+04  0.00000000000E+00 0.  1.
         -1   -1    0    0    0  501 -0.00000000000E+00 -0.00000000000E+00 -0.64817204829E+03  0.64817204829E+03  0.00000000000E+00 0. -1.
    2000013    1    1    2    0    0 -0.30590468561E+03  0.10980457506E+04  0.22988192667E+04  0.27361199111E+04  0.95000000000E+03 0.  0.
   -2000013    1    1    2    0    0  0.30590468561E+03 -0.10980457506E+04  0.85200957560E+03  0.17110530278E+04  0.95000000000E+03 0.  0.
<mgrwt>
<rscale>  0 0.31384112E+04</rscale>
<asrwt>0</asrwt>
<pdfrwt beam="1">  1        1 0.58446167E+00 0.31384112E+04</pdfrwt>
<pdfrwt beam="2">  1       -1 0.99718778E-01 0.31384112E+04</pdfrwt>
<totfact> 0.11506485E-01</totfact>
</mgrwt>
</event>
<event>
 4    1  0.2482334E-008  0.2772862E+04  0.7816531E-02  0.8311744E-01
         -2   -1    0    0    0  501 -0.00000000000E+00  0.00000000000E+00  0.96512406839E+03  0.96512406839E+03  0.00000000000E+00 0. -1.
          2   -1    0    0  501    0  0.00000000000E+00 -0.00000000000E+00 -0.19916513837E+04  0.19916513837E+04  0.00000000000E+00 0.  1.
    2000013    1    1    2    0    0  0.95231448453E+03 -0.33311160326E+03 -0.46771681172E+03  0.14625748643E+04  0.95000000000E+03 0.  0.
   -2000013    1    1    2    0    0 -0.95231448453E+03  0.33311160326E+03 -0.55881050359E+03  0.14942005878E+04  0.95000000000E+03 0.  0.
<mgrwt>
<rscale>  0 0.27728618E+04</rscale>
<asrwt>0</asrwt>
<pdfrwt beam="2">  1        2 0.30640790E+00 0.27728618E+04</pdfrwt>
<pdfrwt beam="1">  1       -2 0.14848063E+00 0.27728618E+04</pdfrwt>
<totfact> 0.18129185E+00</totfact>
</mgrwt>
</event>
<event>
 4    1  0.2482334E-008  0.2282967E+04  0.7816531E-02  0.8484668E-01
         -2   -1    0    0    0  501 -0.00000000000E+00  0.00000000000E+00  0.45501658769E+03  0.45501658769E+03  0.00000000000E+00 0. -1.
          2   -1    0    0  501    0  0.00000000000E+00 -0.00000000000E+00 -0.28635967762E+04  0.28635967762E+04  0.00000000000E+00 0.  1.
    2000013    1    1    2    0    0 -0.53840991274E+03  0.20903272832E+03 -0.82829382140E+03  0.13864164491E+04  0.95000000000E+03 0.  0.
   -2000013    1    1    2    0    0  0.53840991274E+03 -0.20903272832E+03 -0.15802863671E+04  0.19321969148E+04  0.95000000000E+03 0.  0.
<mgrwt>
<rscale>  0 0.22829665E+04</rscale>
<asrwt>0</asrwt>
<pdfrwt beam="2">  1        2 0.44055335E+00 0.22829665E+04</pdfrwt>
<pdfrwt beam="1">  1       -2 0.70002552E-01 0.22829665E+04</pdfrwt>
<totfact> 0.35713480E+00</totfact>
</mgrwt>
</event>
<event>
 4    1  0.2482334E-008  0.2101048E+04  0.7816531E-02  0.8560782E-01
          2   -1    0    0  501    0  0.00000000000E+00  0.00000000000E+00  0.13762014343E+04  0.13762014343E+04  0.00000000000E+00 0.  1.
         -2   -1    0    0    0  501 -0.00000000000E+00 -0.00000000000E+00 -0.80191810407E+03  0.80191810407E+03  0.00000000000E+00 0. -1.
    2000013    1    1    2    0    0 -0.70549726623E+02  0.20216268300E+03 -0.12133463643E+03  0.98136084511E+03  0.95000000000E+03 0.  0.
   -2000013    1    1    2    0    0  0.70549726623E+02 -0.20216268300E+03  0.69561796661E+03  0.11967586932E+04  0.95000000000E+03 0.  0.
<mgrwt>
<rscale>  0 0.21010482E+04</rscale>
<asrwt>0</asrwt>
<pdfrwt beam="1">  1        2 0.21172330E+00 0.21010482E+04</pdfrwt>
<pdfrwt beam="2">  1       -2 0.12337202E+00 0.21010482E+04</pdfrwt>
<totfact> 0.68196906E+00</totfact>
</mgrwt>
</event>
<event>
 4    1  0.2482334E-008  0.3463328E+04  0.7816531E-02  0.8122536E-01
         -2   -1    0    0    0  501 -0.00000000000E+00  0.00000000000E+00  0.12825843679E+04  0.12825843679E+04  0.00000000000E+00 0. -1.
          2   -1    0    0  501    0  0.00000000000E+00 -0.00000000000E+00 -0.23379827921E+04  0.23379827921E+04  0.00000000000E+00 0.  1.
    2000013    1    1    2    0    0  0.10147319754E+04 -0.10263636181E+04 -0.40824446588E+03  0.17754624193E+04  0.95000000000E+03 0.  0.
   -2000013    1    1    2    0    0 -0.10147319754E+04  0.10263636181E+04 -0.64715395836E+03  0.18451047407E+04  0.95000000000E+03 0.  0.
<mgrwt>
<rscale>  0 0.34633280E+04</rscale>
<asrwt>0</asrwt>
<pdfrwt beam="2">  1        2 0.35968966E+00 0.34633280E+04</pdfrwt>
<pdfrwt beam="1">  1       -2 0.19732067E+00 0.34633280E+04</pdfrwt>
<totfact> 0.49245098E-01</totfact>
</mgrwt>
</event>
<event>
 4    1  0.2482334E-008  0.2496372E+04  0.7816531E-02  0.8404279E-01
         -2   -1    0    0    0  501 -0.00000000000E+00  0.00000000000E+00  0.70016646713E+03  0.70016646713E+03  0.00000000000E+00 0. -1.
          2   -1    0    0  501    0  0.00000000000E+00 -0.00000000000E+00 -0.22251391169E+04  0.22251391169E+04  0.00000000000E+00 0.  1.
    2000013    1    1    2    0    0 -0.87975402500E+02 -0.77223144904E+03 -0.10281226244E+04  0.16011299801E+04  0.95000000000E+03 0.  0.
   -2000013    1    1    2    0    0  0.87975402500E+02  0.77223144904E+03 -0.49685002536E+03  0.13241756039E+04  0.95000000000E+03 0.  0.
<mgrwt>
<rscale>  0 0.24963716E+04</rscale>
<asrwt>0</asrwt>
<pdfrwt beam="2">  1        2 0.34232909E+00 0.24963716E+04</pdfrwt>
<pdfrwt beam="1">  1       -2 0.10771792E+00 0.24963716E+04</pdfrwt>
<totfact> 0.30816760E+00</totfact>
</mgrwt>
</event>
<event>
 4    1  0.2482334E-008  0.2214805E+04  0.7816531E-02  0.8512291E-01
          2   -1    0    0  501    0  0.00000000000E+00  0.00000000000E+00  0.23459437860E+04  0.23459437860E+04  0.00000000000E+00 0.  1.
         -2   -1    0    0    0  501 -0.00000000000E+00 -0.00000000000E+00 -0.52274920131E+03  0.52274920131E+03  0.00000000000E+00 0. -1.
    2000013    1    1    2    0    0  0.14204013982E+03 -0.54359384702E+03  0.10286751392E+04  0.15087551869E+04  0.95000000000E+03 0.  0.
   -2000013    1    1    2    0    0 -0.14204013982E+03  0.54359384702E+03  0.79451944547E+03  0.13599378004E+04  0.95000000000E+03 0.  0.
<mgrwt>
<rscale>  0 0.22148049E+04</rscale>
<asrwt>0</asrwt>
<pdfrwt beam="1">  1        2 0.36091442E+00 0.22148049E+04</pdfrwt>
<pdfrwt beam="2">  1       -2 0.80422955E-01 0.22148049E+04</pdfrwt>
<totfact> 0.53229725E+00</totfact>
</mgrwt>
</event>
<event>
 4    1  0.2482334E-008  0.5535047E+04  0.7816531E-02  0.7750885E-01
         -2   -1    0    0    0  501 -0.00000000000E+00  0.00000000000E+00  0.15206672804E+04  0.15206672804E+04  0.00000000000E+00 0. -1.
          2   -1    0    0  501    0  0.00000000000E+00 -0.00000000000E+00 -0.50367278305E+04  0.50367278305E+04  0.00000000000E+00 0.  1.
    2000013    1    1    2    0    0 -0.18026742783E+04 -0.18635172193E+04 -0.15384401657E+04  0.31609538313E+04  0.95000000000E+03 0.  0.
   -2000013    1    1    2    0    0  0.18026742783E+04  0.18635172193E+04 -0.19776203844E+04  0.33964412795E+04  0.95000000000E+03 0.  0.
<mgrwt>
<rscale>  0 0.55350473E+04</rscale>
<asrwt>0</asrwt>
<pdfrwt beam="2">  1        2 0.77488122E+00 0.55350473E+04</pdfrwt>
<pdfrwt beam="1">  1       -2 0.23394881E+00 0.55350473E+04</pdfrwt>
<totfact> 0.17016868E-03</totfact>
</mgrwt>
</event>
<event>
 4    1  0.2482334E-008  0.2761232E+04  0.7816531E-02  0.8315406E-01
         -1   -1    0    0    0  501 -0.00000000000E+00  0.00000000000E+00  0.12153920091E+04  0.12153920091E+04  0.00000000000E+00 0. -1.
          1   -1    0    0  501    0  0.00000000000E+00 -0.00000000000E+00 -0.15683012720E+04  0.15683012720E+04  0.00000000000E+00 0.  1.
    2000013    1    1    2    0    0 -0.33863362240E+03 -0.80994074979E+03 -0.66300258410E+03  0.14535299016E+04  0.95000000000E+03 0.  0.
   -2000013    1    1    2    0    0  0.33863362240E+03  0.80994074979E+03  0.31009332119E+03  0.13301633795E+04  0.95000000000E+03 0.  0.
<mgrwt>
<rscale>  0 0.27612322E+04</rscale>
<asrwt>0</asrwt>
<pdfrwt beam="2">  1        1 0.24127712E+00 0.27612322E+04</pdfrwt>
<pdfrwt beam="1">  1       -1 0.18698339E+00 0.27612322E+04</pdfrwt>
<totfact> 0.94580272E-01</totfact>
</mgrwt>
</event>
<event>
 4    1  0.2482334E-008  0.2958597E+04  0.7816531E-02  0.8255653E-01
          2   -1    0    0  501    0  0.00000000000E+00  0.00000000000E+00  0.18277638730E+04  0.18277638730E+04  0.00000000000E+00 0.  1.
         -2   -1    0    0    0  501 -0.00000000000E+00 -0.00000000000E+00 -0.11972687857E+04  0.11972687857E+04  0.00000000000E+00 0. -1.
    2000013    1    1    2    0    0 -0.11335518004E+04 -0.29747485459E+02  0.31505482794E+03  0.15124761624E+04  0.95000000000E+03 0.  0.
   -2000013    1    1    2    0    0  0.11335518004E+04  0.29747485459E+02  0.31544025936E+03  0.15125564963E+04  0.95000000000E+03 0.  0.
<mgrwt>
<rscale>  0 0.29585974E+04</rscale>
<asrwt>0</asrwt>
<pdfrwt beam="1">  1        2 0.28119444E+00 0.29585974E+04</pdfrwt>
<pdfrwt beam="2">  1       -2 0.18419520E+00 0.29585974E+04</pdfrwt>
<totfact> 0.12139089E+00</totfact>
</mgrwt>
</event>
<event>
 4    1  0.2482334E-008  0.2651167E+04  0.7816531E-02  0.8351026E-01
          2   -1    0    0  501    0  0.00000000000E+00  0.00000000000E+00  0.72155322431E+03  0.72155322431E+03  0.00000000000E+00 0.  1.
         -2   -1    0    0    0  501 -0.00000000000E+00 -0.00000000000E+00 -0.24352634346E+04  0.24352634346E+04  0.00000000000E+00 0. -1.
    2000013    1    1    2    0    0  0.86328507990E+03  0.13811434444E+03 -0.49897184307E+03  0.13841277403E+04  0.95000000000E+03 0.  0.
   -2000013    1    1    2    0    0 -0.86328507990E+03 -0.13811434444E+03 -0.12147383672E+04  0.17726889186E+04  0.95000000000E+03 0.  0.
<mgrwt>
<rscale>  0 0.26511674E+04</rscale>
<asrwt>0</asrwt>
<pdfrwt beam="1">  1        2 0.11100819E+00 0.26511674E+04</pdfrwt>
<pdfrwt beam="2">  1       -2 0.37465591E+00 0.26511674E+04</pdfrwt>
<totfact> 0.37635302E-01</totfact>
</mgrwt>
</event>
<event>
 4    1  0.2482334E-008  0.2411469E+04  0.7816531E-02  0.8435222E-01
         -2   -1    0    0    0  501 -0.00000000000E+00  0.00000000000E+00  0.13339817336E+04  0.13339817336E+04  0.00000000000E+00 0. -1.
          2   -1    0    0  501    0  0.00000000000E+00 -0.00000000000E+00 -0.10898168675E+04  0.10898168675E+04  0.00000000000E+00 0.  1.
    2000013    1    1    2    0    0 -0.10420991792E+03 -0.63837441022E+03 -0.24435558114E+03  0.11749856359E+04  0.95000000000E+03 0.  0.
   -2000013    1    1    2    0    0  0.10420991792E+03  0.63837441022E+03  0.48852044725E+03  0.12488129652E+04  0.95000000000E+03 0.  0.
<mgrwt>
<rscale>  0 0.24114691E+04</rscale>
<asrwt>0</asrwt>
<pdfrwt beam="2">  1        2 0.16766413E+00 0.24114691E+04</pdfrwt>
<pdfrwt beam="1">  1       -2 0.20522796E+00 0.24114691E+04</pdfrwt>
<totfact> 0.24410973E+00</totfact>
</mgrwt>
</event>
<event>
 4    1  0.2482334E-008  0.3034349E+04  0.7816531E-02  0.8233990E-01
          2   -1    0    0  501    0  0.00000000000E+00  0.00000000000E+00  0.76924231800E+03  0.76924231800E+03  0.00000000000E+00 0.  1.
         -2   -1    0    0    0  501 -0.00000000000E+00 -0.00000000000E+00 -0.29923195978E+04  0.29923195978E+04  0.00000000000E+00 0. -1.
    2000013    1    1    2    0    0 -0.44620785597E+03  0.10731586141E+04 -0.83839673965E+03  0.17193545169E+04  0.95000000000E+03 0.  0.
   -2000013    1    1    2    0    0  0.44620785597E+03 -0.10731586141E+04 -0.13846805402E+04  0.20422073989E+04  0.95000000000E+03 0.  0.
<mgrwt>
<rscale>  0 0.30343493E+04</rscale>
<asrwt>0</asrwt>
<pdfrwt beam="1">  1        2 0.11834498E+00 0.30343493E+04</pdfrwt>
<pdfrwt beam="2">  1       -2 0.46035685E+00 0.30343493E+04</pdfrwt>
<totfact> 0.91681410E-02</totfact>
</mgrwt>
</event>
<event>
 4    1  0.2482334E-008  0.2595874E+04  0.7816531E-02  0.8369604E-01
         -2   -1    0    0    0  501 -0.00000000000E+00  0.00000000000E+00  0.98356892096E+03  0.98356892096E+03  0.00000000000E+00 0. -1.
          2   -1    0    0  501    0  0.00000000000E+00 -0.00000000000E+00 -0.17127833165E+04  0.17127833165E+04  0.00000000000E+00 0.  1.
    2000013    1    1    2    0    0  0.69646138416E+03  0.52216000709E+03 -0.52696112725E+03  0.13920838920E+04  0.95000000000E+03 0.  0.
   -2000013    1    1    2    0    0 -0.69646138416E+03 -0.52216000709E+03 -0.20225326833E+03  0.13042683455E+04  0.95000000000E+03 0.  0.
<mgrwt>
<rscale>  0 0.25958740E+04</rscale>
<asrwt>0</asrwt>
<pdfrwt beam="2">  1        2 0.26350512E+00 0.25958740E+04</pdfrwt>
<pdfrwt beam="1">  1       -2 0.15131830E+00 0.25958740E+04</pdfrwt>
<totfact> 0.24993712E+00</totfact>
</mgrwt>
</event>
<event>
 4    1  0.2482334E-008  0.2294219E+04  0.7816531E-02  0.8480204E-01
         -2   -1    0    0    0  501 -0.00000000000E+00  0.00000000000E+00  0.50663049776E+03  0.50663049776E+03  0.00000000000E+00 0.  1.
          2   -1    0    0  501    0  0.00000000000E+00 -0.00000000000E+00 -0.25972776143E+04  0.25972776143E+04  0.00000000000E+00 0. -1.
    2000013    1    1    2    0    0  0.54031573721E+03  0.33483939339E+03 -0.11758057757E+04  0.16398407659E+04  0.95000000000E+03 0.  0.
   -2000013    1    1    2    0    0 -0.54031573721E+03 -0.33483939339E+03 -0.91484134083E+03  0.14640673462E+04  0.95000000000E+03 0.  0.
<mgrwt>
<rscale>  0 0.22942189E+04</rscale>
<asrwt>0</asrwt>
<pdfrwt beam="2">  1        2 0.39958118E+00 0.22942189E+04</pdfrwt>
<pdfrwt beam="1">  1       -2 0.77943153E-01 0.22942189E+04</pdfrwt>
<totfact> 0.40605810E+00</totfact>
</mgrwt>
</event>
<event>
 4    1  0.2482334E-008  0.2754308E+04  0.7816531E-02  0.8317596E-01
          2   -1    0    0  501    0  0.00000000000E+00  0.00000000000E+00  0.96032233194E+03  0.96032233194E+03  0.00000000000E+00 0.  1.
         -2   -1    0    0    0  501 -0.00000000000E+00 -0.00000000000E+00 -0.19749133860E+04  0.19749133860E+04  0.00000000000E+00 0. -1.
    2000013    1    1    2    0    0 -0.72793977923E+03  0.29810987928E+03  0.14555319440E+03  0.12419547313E+04  0.95000000000E+03 0.  0.
   -2000013    1    1    2    0    0  0.72793977923E+03 -0.29810987928E+03 -0.11601442485E+04  0.16932809866E+04  0.95000000000E+03 0.  0.
<mgrwt>
<rscale>  0 0.27543082E+04</rscale>
<asrwt>0</asrwt>
<pdfrwt beam="1">  1        2 0.14774190E+00 0.27543082E+04</pdfrwt>
<pdfrwt beam="2">  1       -2 0.30383282E+00 0.27543082E+04</pdfrwt>
<totfact> 0.70293955E-01</totfact>
</mgrwt>
</event>
<event>
 4    1  0.2482334E-008  0.3039828E+04  0.7816531E-02  0.8232448E-01
          2   -1    0    0  501    0  0.00000000000E+00  0.00000000000E+00  0.28078665231E+04  0.28078665231E+04  0.00000000000E+00 0.  1.
         -2   -1    0    0    0  501 -0.00000000000E+00 -0.00000000000E+00 -0.82273784884E+03  0.82273784884E+03  0.00000000000E+00 0. -1.
    2000013    1    1    2    0    0 -0.69837572647E+03 -0.50990291260E+03  0.19627878605E+04  0.23457974808E+04  0.95000000000E+03 0.  0.
   -2000013    1    1    2    0    0  0.69837572647E+03  0.50990291260E+03  0.22340813786E+02  0.12848068912E+04  0.95000000000E+03 0.  0.
<mgrwt>
<rscale>  0 0.30398277E+04</rscale>
<asrwt>0</asrwt>
<pdfrwt beam="1">  1        2 0.43197946E+00 0.30398277E+04</pdfrwt>
<pdfrwt beam="2">  1       -2 0.12657506E+00 0.30398277E+04</pdfrwt>
<totfact> 0.90625219E-01</totfact>
</mgrwt>
</event>
<event>
 4    1  0.2482334E-008  0.2534331E+04  0.7816531E-02  0.8390856E-01
         -2   -1    0    0    0  501 -0.00000000000E+00  0.00000000000E+00  0.65674198364E+03  0.65674198364E+03  0.00000000000E+00 0. -1.
          2   -1    0    0  501    0  0.00000000000E+00 -0.00000000000E+00 -0.24449616164E+04  0.24449616164E+04  0.00000000000E+00 0.  1.
    2000013    1    1    2    0    0  0.43674411410E+03 -0.50501171969E+03 -0.27314975768E+03  0.11928508072E+04  0.95000000000E+03 0.  0.
   -2000013    1    1    2    0    0 -0.43674411410E+03  0.50501171969E+03 -0.15150698751E+04  0.19088527928E+04  0.95000000000E+03 0.  0.
<mgrwt>
<rscale>  0 0.25343314E+04</rscale>
<asrwt>0</asrwt>
<pdfrwt beam="2">  1        2 0.37614794E+00 0.25343314E+04</pdfrwt>
<pdfrwt beam="1">  1       -2 0.10103723E+00 0.25343314E+04</pdfrwt>
<totfact> 0.26844927E+00</totfact>
</mgrwt>
</event>
<event>
 4    1  0.2482334E-008  0.2071726E+04  0.7816531E-02  0.8573802E-01
         -2   -1    0    0    0  501 -0.00000000000E+00  0.00000000000E+00  0.53270024147E+03  0.53270024147E+03  0.00000000000E+00 0. -1.
          2   -1    0    0  501    0  0.00000000000E+00 -0.00000000000E+00 -0.20142881995E+04  0.20142881995E+04  0.00000000000E+00 0.  1.
    2000013    1    1    2    0    0 -0.24954626672E+03  0.32846680515E+03 -0.71785878539E+03  0.12601527753E+04  0.95000000000E+03 0.  0.
   -2000013    1    1    2    0    0  0.24954626672E+03 -0.32846680515E+03 -0.76372917263E+03  0.12868356657E+04  0.95000000000E+03 0.  0.
<mgrwt>
<rscale>  0 0.20717257E+04</rscale>
<asrwt>0</asrwt>
<pdfrwt beam="2">  1        2 0.30989049E+00 0.20717257E+04</pdfrwt>
<pdfrwt beam="1">  1       -2 0.81953884E-01 0.20717257E+04</pdfrwt>
<totfact> 0.79309893E+00</totfact>
</mgrwt>
</event>
<event>
 4    1  0.2482334E-008  0.2511780E+04  0.7816531E-02  0.8398801E-01
          1   -1    0    0  501    0  0.00000000000E+00  0.00000000000E+00  0.24675080560E+04  0.24675080560E+04  0.00000000000E+00 0. -1.
         -1   -1    0    0    0  501 -0.00000000000E+00 -0.00000000000E+00 -0.63921174249E+03  0.63921174249E+03  0.00000000000E+00 0.  1.
    2000013    1    1    2    0    0 -0.33036314845E+03 -0.68069874948E+03  0.13096910179E+04  0.17861358178E+04  0.95000000000E+03 0.  0.
   -2000013    1    1    2    0    0  0.33036314845E+03  0.68069874948E+03  0.51860529565E+03  0.13205839807E+04  0.95000000000E+03 0.  0.
<mgrwt>
<rscale>  0 0.25117803E+04</rscale>
<asrwt>0</asrwt>
<pdfrwt beam="1">  1        1 0.37961662E+00 0.25117803E+04</pdfrwt>
<pdfrwt beam="2">  1       -1 0.98340269E-01 0.25117803E+04</pdfrwt>
<totfact> 0.12535883E+00</totfact>
</mgrwt>
</event>
<event>
 4    1  0.2482334E-008  0.2680926E+04  0.7816531E-02  0.8341221E-01
          2   -1    0    0  501    0  0.00000000000E+00  0.00000000000E+00  0.30031696081E+04  0.30031696081E+04  0.00000000000E+00 0.  1.
         -2   -1    0    0    0  501 -0.00000000000E+00 -0.00000000000E+00 -0.59831468317E+03  0.59831468317E+03  0.00000000000E+00 0. -1.
    2000013    1    1    2    0    0  0.78625669278E+03  0.35554283658E+03  0.17222456104E+04  0.21478454875E+04  0.95000000000E+03 0.  0.
   -2000013    1    1    2    0    0 -0.78625669278E+03 -0.35554283658E+03  0.68260931451E+03  0.14536388038E+04  0.95000000000E+03 0.  0.
<mgrwt>
<rscale>  0 0.26809256E+04</rscale>
<asrwt>0</asrwt>
<pdfrwt beam="1">  1        2 0.46202609E+00 0.26809256E+04</pdfrwt>
<pdfrwt beam="2">  1       -2 0.92048414E-01 0.26809256E+04</pdfrwt>
<totfact> 0.15272995E+00</totfact>
</mgrwt>
</event>
<event>
 4    1  0.2482334E-008  0.2853557E+04  0.7816531E-02  0.8286831E-01
          2   -1    0    0  501    0  0.00000000000E+00  0.00000000000E+00  0.21796467931E+04  0.21796467931E+04  0.00000000000E+00 0.  1.
         -2   -1    0    0    0  501 -0.00000000000E+00 -0.00000000000E+00 -0.93395736014E+03  0.93395736014E+03  0.00000000000E+00 0. -1.
    2000013    1    1    2    0    0 -0.36171819670E+03 -0.97936509822E+03  0.39605450988E+03  0.14660679467E+04  0.95000000000E+03 0.  0.
   -2000013    1    1    2    0    0  0.36171819670E+03  0.97936509822E+03  0.84963492307E+03  0.16475362066E+04  0.95000000000E+03 0.  0.
<mgrwt>
<rscale>  0 0.28535572E+04</rscale>
<asrwt>0</asrwt>
<pdfrwt beam="1">  1        2 0.33533027E+00 0.28535572E+04</pdfrwt>
<pdfrwt beam="2">  1       -2 0.14368575E+00 0.28535572E+04</pdfrwt>
<totfact> 0.15414380E+00</totfact>
</mgrwt>
</event>
<event>
 4    1  0.2482334E-008  0.2394713E+04  0.7816531E-02  0.8441486E-01
         -2   -1    0    0    0  501 -0.00000000000E+00  0.00000000000E+00  0.13714066776E+04  0.13714066776E+04  0.00000000000E+00 0. -1.
          2   -1    0    0  501    0  0.00000000000E+00 -0.00000000000E+00 -0.10453954642E+04  0.10453954642E+04  0.00000000000E+00 0.  1.
    2000013    1    1    2    0    0 -0.54243031757E+03 -0.46010042879E+03  0.32333975520E+03  0.12300291262E+04  0.95000000000E+03 0.  0.
   -2000013    1    1    2    0    0  0.54243031757E+03  0.46010042879E+03  0.26714582396E+01  0.11867730157E+04  0.95000000000E+03 0.  0.
<mgrwt>
<rscale>  0 0.23947128E+04</rscale>
<asrwt>0</asrwt>
<pdfrwt beam="2">  1        2 0.16083007E+00 0.23947128E+04</pdfrwt>
<pdfrwt beam="1">  1       -2 0.21098564E+00 0.23947128E+04</pdfrwt>
<totfact> 0.23919537E+00</totfact>
</mgrwt>
</event>
<event>
 4    1  0.2482334E-008  0.2324589E+04  0.7816531E-02  0.8468288E-01
         -2   -1    0    0    0  501 -0.00000000000E+00  0.00000000000E+00  0.61058119364E+03  0.61058119364E+03  0.00000000000E+00 0. -1.
          2   -1    0    0  501    0  0.00000000000E+00 -0.00000000000E+00 -0.22125297018E+04  0.22125297018E+04  0.00000000000E+00 0.  1.
    2000013    1    1    2    0    0 -0.36467225864E+02 -0.26782990207E+03 -0.15450365915E+04  0.18337668292E+04  0.95000000000E+03 0.  0.
   -2000013    1    1    2    0    0  0.36467225864E+02  0.26782990207E+03 -0.56911916644E+02  0.98934406617E+03  0.95000000000E+03 0.  0.
<mgrwt>
<rscale>  0 0.23245894E+04</rscale>
<asrwt>0</asrwt>
<pdfrwt beam="2">  1        2 0.34038918E+00 0.23245894E+04</pdfrwt>
<pdfrwt beam="1">  1       -2 0.93935569E-01 0.23245894E+04</pdfrwt>
<totfact> 0.43980256E+00</totfact>
</mgrwt>
</event>
<event>
 4    1  0.2482334E-008  0.2346206E+04  0.7816531E-02  0.8459922E-01
          2   -1    0    0  501    0  0.00000000000E+00  0.00000000000E+00  0.11294148983E+04  0.11294148983E+04  0.00000000000E+00 0. -1.
         -2   -1    0    0    0  501 -0.00000000000E+00 -0.00000000000E+00 -0.12184815338E+04  0.12184815338E+04  0.00000000000E+00 0.  1.
    2000013    1    1    2    0    0  0.49421045535E+03 -0.32259919401E+03 -0.39884622578E+03  0.11873889531E+04  0.95000000000E+03 0.  0.
   -2000013    1    1    2    0    0 -0.49421045535E+03  0.32259919401E+03  0.30977959024E+03  0.11605074789E+04  0.95000000000E+03 0.  0.
<mgrwt>
<rscale>  0 0.23462065E+04</rscale>
<asrwt>0</asrwt>
<pdfrwt beam="1">  1        2 0.17375614E+00 0.23462065E+04</pdfrwt>
<pdfrwt beam="2">  1       -2 0.18745870E+00 0.23462065E+04</pdfrwt>
<totfact> 0.30430452E+00</totfact>
</mgrwt>
</event>
<event>
 4    1  0.2482334E-008  0.3439898E+04  0.7816531E-02  0.8128183E-01
          2   -1    0    0  501    0  0.00000000000E+00  0.00000000000E+00  0.38948277431E+04  0.38948277431E+04  0.00000000000E+00 0.  1.
         -2   -1    0    0    0  501 -0.00000000000E+00 -0.00000000000E+00 -0.75952646120E+03  0.75952646120E+03  0.00000000000E+00 0. -1.
    2000013    1    1    2    0    0  0.18448934655E+03 -0.12487828759E+04  0.64774602770E+03  0.17075039990E+04  0.95000000000E+03 0.  0.
   -2000013    1    1    2    0    0 -0.18448934655E+03  0.12487828759E+04  0.24875552542E+04  0.29468502054E+04  0.95000000000E+03 0.  0.
<mgrwt>
<rscale>  0 0.34398981E+04</rscale>
<asrwt>0</asrwt>
<pdfrwt beam="1">  1        2 0.59920426E+00 0.34398981E+04</pdfrwt>
<pdfrwt beam="2">  1       -2 0.11685023E+00 0.34398981E+04</pdfrwt>
<totfact> 0.19384402E-01</totfact>
</mgrwt>
</event>
<event>
 4    1  0.2482334E-008  0.2975322E+04  0.7816531E-02  0.8250813E-01
         -2   -1    0    0    0  501 -0.00000000000E+00  0.00000000000E+00  0.74168566478E+03  0.74168566478E+03  0.00000000000E+00 0. -1.
          2   -1    0    0  501    0  0.00000000000E+00 -0.00000000000E+00 -0.29839256319E+04  0.29839256319E+04  0.00000000000E+00 0.  1.
    2000013    1    1    2    0    0  0.95312654747E+03  0.26485652069E+03 -0.39958734793E+03  0.14285549484E+04  0.95000000000E+03 0.  0.
   -2000013    1    1    2    0    0 -0.95312654747E+03 -0.26485652069E+03 -0.18426526192E+04  0.22970563483E+04  0.95000000000E+03 0.  0.
<mgrwt>
<rscale>  0 0.29753217E+04</rscale>
<asrwt>0</asrwt>
<pdfrwt beam="2">  1        2 0.45906547E+00 0.29753217E+04</pdfrwt>
<pdfrwt beam="1">  1       -2 0.11410549E+00 0.29753217E+04</pdfrwt>
<totfact> 0.91810690E-01</totfact>
</mgrwt>
</event>
<event>
 4    1  0.2482334E-008  0.3040181E+04  0.7816531E-02  0.8232349E-01
         -2   -1    0    0    0  501 -0.00000000000E+00  0.00000000000E+00  0.20604735412E+04  0.20604735412E+04  0.00000000000E+00 0.  1.
          2   -1    0    0  501    0  0.00000000000E+00 -0.00000000000E+00 -0.11214295363E+04  0.11214295363E+04  0.00000000000E+00 0. -1.
    2000013    1    1    2    0    0  0.16777893096E+03  0.54960849619E+03  0.15561679797E+04  0.19116427621E+04  0.95000000000E+03 0.  0.
   -2000013    1    1    2    0    0 -0.16777893096E+03 -0.54960849619E+03 -0.61712397482E+03  0.12702603155E+04  0.95000000000E+03 0.  0.
<mgrwt>
<rscale>  0 0.30401815E+04</rscale>
<asrwt>0</asrwt>
<pdfrwt beam="2">  1        2 0.17252762E+00 0.30401815E+04</pdfrwt>
<pdfrwt beam="1">  1       -2 0.31699593E+00 0.30401815E+04</pdfrwt>
<totfact> 0.45053253E-01</totfact>
</mgrwt>
</event>
<event>
 4    1  0.2482334E-008  0.2430554E+04  0.7816531E-02  0.8428152E-01
          2   -1    0    0  501    0  0.00000000000E+00  0.00000000000E+00  0.15190192113E+04  0.15190192113E+04  0.00000000000E+00 0.  1.
         -2   -1    0    0    0  501 -0.00000000000E+00 -0.00000000000E+00 -0.97227110703E+03  0.97227110703E+03  0.00000000000E+00 0. -1.
    2000013    1    1    2    0    0  0.16849344183E+03  0.71414086774E+03  0.78865702983E+02  0.12029576127E+04  0.95000000000E+03 0.  0.
   -2000013    1    1    2    0    0 -0.16849344183E+03 -0.71414086774E+03  0.46788240129E+03  0.12883327056E+04  0.95000000000E+03 0.  0.
<mgrwt>
<rscale>  0 0.24305542E+04</rscale>
<asrwt>0</asrwt>
<pdfrwt beam="1">  1        2 0.23369526E+00 0.24305542E+04</pdfrwt>
<pdfrwt beam="2">  1       -2 0.14958017E+00 0.24305542E+04</pdfrwt>
<totfact> 0.33535677E+00</totfact>
</mgrwt>
</event>
<event>
 4    1  0.2482334E-008  0.2268103E+04  0.7816531E-02  0.8490605E-01
          2   -1    0    0  501    0  0.00000000000E+00  0.00000000000E+00  0.59128544491E+03  0.59128544491E+03  0.00000000000E+00 0.  1.
         -2   -1    0    0    0  501 -0.00000000000E+00 -0.00000000000E+00 -0.21750457326E+04  0.21750457326E+04  0.00000000000E+00 0. -1.
    2000013    1    1    2    0    0 -0.55034496205E+03 -0.96419714806E+02 -0.11177768591E+04  0.15697456626E+04  0.95000000000E+03 0.  0.
   -2000013    1    1    2    0    0  0.55034496205E+03  0.96419714806E+02 -0.46598342860E+03  0.11965855149E+04  0.95000000000E+03 0.  0.
<mgrwt>
<rscale>  0 0.22681031E+04</rscale>
<asrwt>0</asrwt>
<pdfrwt beam="1">  1        2 0.90966993E-01 0.22681031E+04</pdfrwt>
<pdfrwt beam="2">  1       -2 0.33462242E+00 0.22681031E+04</pdfrwt>
<totfact> 0.89232480E-01</totfact>
</mgrwt>
</event>
<event>
 4    1  0.2482334E-008  0.3135932E+04  0.7816531E-02  0.8205945E-01
          2   -1    0    0  501    0  0.00000000000E+00  0.00000000000E+00  0.32687719380E+04  0.32687719380E+04  0.00000000000E+00 0.  1.
         -2   -1    0    0    0  501 -0.00000000000E+00 -0.00000000000E+00 -0.75212253145E+03  0.75212253145E+03  0.00000000000E+00 0. -1.
    2000013    1    1    2    0    0  0.44358605948E+03  0.72432932708E+03  0.86954755199E+02  0.12772950699E+04  0.95000000000E+03 0.  0.
   -2000013    1    1    2    0    0 -0.44358605948E+03 -0.72432932708E+03  0.24296946514E+04  0.27435993995E+04  0.95000000000E+03 0.  0.
<mgrwt>
<rscale>  0 0.31359318E+04</rscale>
<asrwt>0</asrwt>
<pdfrwt beam="1">  1        2 0.50288798E+00 0.31359318E+04</pdfrwt>
<pdfrwt beam="2">  1       -2 0.11571116E+00 0.31359318E+04</pdfrwt>
<totfact> 0.57395152E-01</totfact>
</mgrwt>
</event>
<event>
 4    1  0.2482334E-008  0.3329760E+04  0.7816531E-02  0.8155364E-01
         -2   -1    0    0    0  501 -0.00000000000E+00  0.00000000000E+00  0.12396779301E+04  0.12396779301E+04  0.00000000000E+00 0. -1.
          2   -1    0    0  501    0  0.00000000000E+00 -0.00000000000E+00 -0.22359233449E+04  0.22359233449E+04  0.00000000000E+00 0.  1.
    2000013    1    1    2    0    0  0.11508446434E+04  0.60205554509E+03 -0.52320679091E+02  0.16100160639E+04  0.95000000000E+03 0.  0.
   -2000013    1    1    2    0    0 -0.11508446434E+04 -0.60205554509E+03 -0.94392473570E+03  0.18655852110E+04  0.95000000000E+03 0.  0.
<mgrwt>
<rscale>  0 0.33297596E+04</rscale>
<asrwt>0</asrwt>
<pdfrwt beam="2">  1        2 0.34398820E+00 0.33297596E+04</pdfrwt>
<pdfrwt beam="1">  1       -2 0.19071968E+00 0.33297596E+04</pdfrwt>
<totfact> 0.62945869E-01</totfact>
</mgrwt>
</event>
<event>
 4    1  0.2482334E-008  0.2294185E+04  0.7816531E-02  0.8480217E-01
         -2   -1    0    0    0  501 -0.00000000000E+00  0.00000000000E+00  0.12125171687E+04  0.12125171687E+04  0.00000000000E+00 0. -1.
          2   -1    0    0  501    0  0.00000000000E+00 -0.00000000000E+00 -0.10851984387E+04  0.10851984387E+04  0.00000000000E+00 0.  1.
    2000013    1    1    2    0    0  0.34083181250E+03 -0.36112710150E+03 -0.34531027998E+03  0.11261963849E+04  0.95000000000E+03 0.  0.
   -2000013    1    1    2    0    0 -0.34083181250E+03  0.36112710150E+03  0.47262901000E+03  0.11715192226E+04  0.95000000000E+03 0.  0.
<mgrwt>
<rscale>  0 0.22941855E+04</rscale>
<asrwt>0</asrwt>
<pdfrwt beam="2">  1        2 0.16695361E+00 0.22941855E+04</pdfrwt>
<pdfrwt beam="1">  1       -2 0.18654110E+00 0.22941855E+04</pdfrwt>
<totfact> 0.33006937E+00</totfact>
</mgrwt>
</event>
<event>
 4    1  0.2482334E-008  0.3216556E+04  0.7816531E-02  0.8184458E-01
          2   -1    0    0  501    0  0.00000000000E+00  0.00000000000E+00  0.14266972436E+04  0.14266972436E+04  0.00000000000E+00 0.  1.
         -2   -1    0    0    0  501 -0.00000000000E+00 -0.00000000000E+00 -0.18129690306E+04  0.18129690306E+04  0.00000000000E+00 0. -1.
    2000013    1    1    2    0    0 -0.30850106151E+03 -0.10378264462E+04 -0.91367882084E+03  0.17057448886E+04  0.95000000000E+03 0.  0.
   -2000013    1    1    2    0    0  0.30850106151E+03  0.10378264462E+04  0.52740703384E+03  0.15339213855E+04  0.95000000000E+03 0.  0.
<mgrwt>
<rscale>  0 0.32165559E+04</rscale>
<asrwt>0</asrwt>
<pdfrwt beam="1">  1        2 0.21949188E+00 0.32165559E+04</pdfrwt>
<pdfrwt beam="2">  1       -2 0.27891831E+00 0.32165559E+04</pdfrwt>
<totfact> 0.50229975E-01</totfact>
</mgrwt>
</event>
<event>
 4    1  0.2482334E-008  0.2795153E+04  0.7816531E-02  0.8304775E-01
          2   -1    0    0  501    0  0.00000000000E+00  0.00000000000E+00  0.21228359379E+04  0.21228359379E+04  0.00000000000E+00 0.  1.
         -2   -1    0    0    0  501 -0.00000000000E+00 -0.00000000000E+00 -0.92009911306E+03  0.92009911306E+03  0.00000000000E+00 0. -1.
    2000013    1    1    2    0    0  0.47190705943E+03 -0.87004745351E+03  0.31120641277E+03  0.14067793983E+04  0.95000000000E+03 0.  0.
   -2000013    1    1    2    0    0 -0.47190705943E+03  0.87004745351E+03  0.89153041209E+03  0.16361556527E+04  0.95000000000E+03 0.  0.
<mgrwt>
<rscale>  0 0.27951526E+04</rscale>
<asrwt>0</asrwt>
<pdfrwt beam="1">  1        2 0.32659014E+00 0.27951526E+04</pdfrwt>
<pdfrwt beam="2">  1       -2 0.14155371E+00 0.27951526E+04</pdfrwt>
<totfact> 0.17332591E+00</totfact>
</mgrwt>
</event>
<event>
 4    1  0.2482334E-008  0.2568378E+04  0.7816531E-02  0.8379022E-01
          2   -1    0    0  501    0  0.00000000000E+00  0.00000000000E+00  0.18596710923E+04  0.18596710923E+04  0.00000000000E+00 0.  1.
         -2   -1    0    0    0  501 -0.00000000000E+00 -0.00000000000E+00 -0.88679227497E+03  0.88679227497E+03  0.00000000000E+00 0. -1.
    2000013    1    1    2    0    0  0.76438655627E+03 -0.27169117205E+03  0.16825254670E+03  0.12605204559E+04  0.95000000000E+03 0.  0.
   -2000013    1    1    2    0    0 -0.76438655627E+03  0.27169117205E+03  0.80462627069E+03  0.14859429114E+04  0.95000000000E+03 0.  0.
<mgrwt>
<rscale>  0 0.25683784E+04</rscale>
<asrwt>0</asrwt>
<pdfrwt beam="1">  1        2 0.28610324E+00 0.25683784E+04</pdfrwt>
<pdfrwt beam="2">  1       -2 0.13642958E+00 0.25683784E+04</pdfrwt>
<totfact> 0.27231854E+00</totfact>
</mgrwt>
</event>
<event>
 4    1  0.2482334E-008  0.2292280E+04  0.7816531E-02  0.8480971E-01
         -2   -1    0    0    0  501 -0.00000000000E+00  0.00000000000E+00  0.13937494511E+04  0.13937494511E+04  0.00000000000E+00 0. -1.
          2   -1    0    0  501    0  0.00000000000E+00 -0.00000000000E+00 -0.94251971969E+03  0.94251971969E+03  0.00000000000E+00 0.  1.
    2000013    1    1    2    0    0 -0.45734438159E+03  0.42563630524E+03  0.37262647413E+03  0.11965285776E+04  0.95000000000E+03 0.  0.
   -2000013    1    1    2    0    0  0.45734438159E+03 -0.42563630524E+03  0.78603257237E+02  0.11397405932E+04  0.95000000000E+03 0.  0.
<mgrwt>
<rscale>  0 0.22922795E+04</rscale>
<asrwt>0</asrwt>
<pdfrwt beam="2">  1        2 0.14500303E+00 0.22922795E+04</pdfrwt>
<pdfrwt beam="1">  1       -2 0.21442299E+00 0.22922795E+04</pdfrwt>
<totfact> 0.26712766E+00</totfact>
</mgrwt>
</event>
<event>
 4    1  0.2482334E-008  0.3142346E+04  0.7816531E-02  0.8204212E-01
         -2   -1    0    0    0  501 -0.00000000000E+00  0.00000000000E+00  0.13680002058E+04  0.13680002058E+04  0.00000000000E+00 0. -1.
          2   -1    0    0  501    0  0.00000000000E+00 -0.00000000000E+00 -0.18045208973E+04  0.18045208973E+04  0.00000000000E+00 0.  1.
    2000013    1    1    2    0    0 -0.75535332367E+03  0.95624359946E+03  0.69298336512E+02  0.15466941277E+04  0.95000000000E+03 0.  0.
   -2000013    1    1    2    0    0  0.75535332367E+03 -0.95624359946E+03 -0.50581902796E+03  0.16258269755E+04  0.95000000000E+03 0.  0.
<mgrwt>
<rscale>  0 0.31423462E+04</rscale>
<asrwt>0</asrwt>
<pdfrwt beam="2">  1        2 0.27761860E+00 0.31423462E+04</pdfrwt>
<pdfrwt beam="1">  1       -2 0.21046157E+00 0.31423462E+04</pdfrwt>
<totfact> 0.82557259E-01</totfact>
</mgrwt>
</event>
<event>
 4    1  0.2482334E-008  0.2688656E+04  0.7816531E-02  0.8338695E-01
         -2   -1    0    0    0  501 -0.00000000000E+00  0.00000000000E+00  0.13182875263E+04  0.13182875263E+04  0.00000000000E+00 0. -1.
          2   -1    0    0  501    0  0.00000000000E+00 -0.00000000000E+00 -0.13708831445E+04  0.13708831445E+04  0.00000000000E+00 0.  1.
    2000013    1    1    2    0    0 -0.99717739745E+02 -0.30202828251E+03  0.87028511346E+03  0.13270496938E+04  0.95000000000E+03 0.  0.
   -2000013    1    1    2    0    0  0.99717739745E+02  0.30202828251E+03 -0.92288073169E+03  0.13621209770E+04  0.95000000000E+03 0.  0.
<mgrwt>
<rscale>  0 0.26886563E+04</rscale>
<asrwt>0</asrwt>
<pdfrwt beam="2">  1        2 0.21090510E+00 0.26886563E+04</pdfrwt>
<pdfrwt beam="1">  1       -2 0.20281347E+00 0.26886563E+04</pdfrwt>
<totfact> 0.16834999E+00</totfact>
</mgrwt>
</event>
<event>
 4    1  0.2482334E-008  0.2271193E+04  0.7816531E-02  0.8489367E-01
          2   -1    0    0  501    0  0.00000000000E+00  0.00000000000E+00  0.25235514704E+04  0.25235514704E+04  0.00000000000E+00 0.  1.
         -2   -1    0    0    0  501 -0.00000000000E+00 -0.00000000000E+00 -0.51101771518E+03  0.51101771518E+03  0.00000000000E+00 0. -1.
    2000013    1    1    2    0    0 -0.58721215973E+03 -0.20510213550E+03  0.98763301803E+03  0.15049265712E+04  0.95000000000E+03 0.  0.
   -2000013    1    1    2    0    0  0.58721215973E+03  0.20510213550E+03  0.10249007372E+04  0.15296426144E+04  0.95000000000E+03 0.  0.
<mgrwt>
<rscale>  0 0.22711931E+04</rscale>
<asrwt>0</asrwt>
<pdfrwt beam="1">  1        2 0.38823868E+00 0.22711931E+04</pdfrwt>
<pdfrwt beam="2">  1       -2 0.78618112E-01 0.22711931E+04</pdfrwt>
<totfact> 0.44065010E+00</totfact>
</mgrwt>
</event>
<event>
 4    1  0.2482334E-008  0.2137730E+04  0.7816531E-02  0.8544803E-01
          1   -1    0    0  501    0  0.00000000000E+00  0.00000000000E+00  0.10207422765E+04  0.10207422765E+04  0.00000000000E+00 0.  1.
         -1   -1    0    0    0  501 -0.00000000000E+00 -0.00000000000E+00 -0.11192563124E+04  0.11192563124E+04  0.00000000000E+00 0. -1.
    2000013    1    1    2    0    0  0.12812367219E+03 -0.46920260610E+03 -0.10767540231E+03  0.10726885630E+04  0.95000000000E+03 0.  0.
   -2000013    1    1    2    0    0 -0.12812367219E+03  0.46920260610E+03  0.91613664128E+01  0.10673100260E+04  0.95000000000E+03 0.  0.
<mgrwt>
<rscale>  0 0.21377299E+04</rscale>
<asrwt>0</asrwt>
<pdfrwt beam="1">  1        1 0.15703727E+00 0.21377299E+04</pdfrwt>
<pdfrwt beam="2">  1       -1 0.17219328E+00 0.21377299E+04</pdfrwt>
<totfact> 0.31686922E+00</totfact>
</mgrwt>
</event>
<event>
 4    1  0.2482334E-008  0.2053053E+04  0.7816531E-02  0.8582211E-01
          2   -1    0    0  501    0  0.00000000000E+00  0.00000000000E+00  0.12949919267E+04  0.12949919267E+04  0.00000000000E+00 0.  1.
         -2   -1    0    0    0  501 -0.00000000000E+00 -0.00000000000E+00 -0.81371658803E+03  0.81371658803E+03  0.00000000000E+00 0. -1.
    2000013    1    1    2    0    0 -0.14866604727E+03  0.43355314656E+02 -0.12578996969E+03  0.97072364419E+03  0.95000000000E+03 0.  0.
   -2000013    1    1    2    0    0  0.14866604727E+03 -0.43355314656E+02  0.60706530833E+03  0.11379848705E+04  0.95000000000E+03 0.  0.
<mgrwt>
<rscale>  0 0.20530528E+04</rscale>
<asrwt>0</asrwt>
<pdfrwt beam="1">  1        2 0.19922953E+00 0.20530528E+04</pdfrwt>
<pdfrwt beam="2">  1       -2 0.12518717E+00 0.20530528E+04</pdfrwt>
<totfact> 0.73557676E+00</totfact>
</mgrwt>
</event>
<event>
 4    1  0.2482334E-008  0.2848097E+04  0.7816531E-02  0.8288490E-01
         -2   -1    0    0    0  501 -0.00000000000E+00  0.00000000000E+00  0.88298836994E+03  0.88298836994E+03  0.00000000000E+00 0. -1.
          2   -1    0    0  501    0  0.00000000000E+00 -0.00000000000E+00 -0.22966490517E+04  0.22966490517E+04  0.00000000000E+00 0.  1.
    2000013    1    1    2    0    0 -0.47677872916E+03  0.31489047351E+03 -0.17047141937E+04  0.20334759524E+04  0.95000000000E+03 0.  0.
   -2000013    1    1    2    0    0  0.47677872916E+03 -0.31489047351E+03  0.29105351187E+03  0.11461614693E+04  0.95000000000E+03 0.  0.
<mgrwt>
<rscale>  0 0.28480972E+04</rscale>
<asrwt>0</asrwt>
<pdfrwt beam="2">  1        2 0.35333063E+00 0.28480972E+04</pdfrwt>
<pdfrwt beam="1">  1       -2 0.13584436E+00 0.28480972E+04</pdfrwt>
<totfact> 0.15322250E+00</totfact>
</mgrwt>
</event>
<event>
 4    1  0.2482334E-008  0.3906673E+04  0.7816531E-02  0.8023643E-01
          2   -1    0    0  501    0  0.00000000000E+00  0.00000000000E+00  0.18002734575E+04  0.18002734575E+04  0.00000000000E+00 0.  1.
         -2   -1    0    0    0  501 -0.00000000000E+00 -0.00000000000E+00 -0.21194133050E+04  0.21194133050E+04  0.00000000000E+00 0. -1.
    2000013    1    1    2    0    0  0.13392004970E+04 -0.91804026527E+02  0.89804656956E+03  0.18737325294E+04  0.95000000000E+03 0.  0.
   -2000013    1    1    2    0    0 -0.13392004970E+04  0.91804026527E+02 -0.12171864171E+04  0.20459542332E+04  0.95000000000E+03 0.  0.
<mgrwt>
<rscale>  0 0.39066730E+04</rscale>
<asrwt>0</asrwt>
<pdfrwt beam="1">  1        2 0.27696515E+00 0.39066730E+04</pdfrwt>
<pdfrwt beam="2">  1       -2 0.32606359E+00 0.39066730E+04</pdfrwt>
<totfact> 0.15054619E-01</totfact>
</mgrwt>
</event>
<event>
 4    1  0.2482334E-008  0.3162570E+04  0.7816531E-02  0.8198773E-01
          2   -1    0    0  501    0  0.00000000000E+00  0.00000000000E+00  0.17473428785E+04  0.17473428785E+04  0.00000000000E+00 0.  1.
         -2   -1    0    0    0  501 -0.00000000000E+00 -0.00000000000E+00 -0.14310082103E+04  0.14310082103E+04  0.00000000000E+00 0. -1.
    2000013    1    1    2    0    0  0.27274108148E+03 -0.10452778786E+04 -0.50159039907E+03  0.15235112305E+04  0.95000000000E+03 0.  0.
   -2000013    1    1    2    0    0 -0.27274108148E+03  0.10452778786E+04  0.81792506727E+03  0.16548398583E+04  0.95000000000E+03 0.  0.
<mgrwt>
<rscale>  0 0.31625698E+04</rscale>
<asrwt>0</asrwt>
<pdfrwt beam="1">  1        2 0.26882198E+00 0.31625698E+04</pdfrwt>
<pdfrwt beam="2">  1       -2 0.22015511E+00 0.31625698E+04</pdfrwt>
<totfact> 0.76885861E-01</totfact>
</mgrwt>
</event>
<event>
 4    1  0.2482334E-008  0.2950469E+04  0.7816531E-02  0.8258018E-01
         -2   -1    0    0    0  501 -0.00000000000E+00  0.00000000000E+00  0.15481117896E+04  0.15481117896E+04  0.00000000000E+00 0. -1.
          2   -1    0    0  501    0  0.00000000000E+00 -0.00000000000E+00 -0.14057877346E+04  0.14057877346E+04  0.00000000000E+00 0.  1.
    2000013    1    1    2    0    0  0.70295478867E+03  0.39690951189E+03 -0.71850980504E+03  0.14389019895E+04  0.95000000000E+03 0.  0.
   -2000013    1    1    2    0    0 -0.70295478867E+03 -0.39690951189E+03  0.86083386008E+03  0.15149975347E+04  0.95000000000E+03 0.  0.
<mgrwt>
<rscale>  0 0.29504688E+04</rscale>
<asrwt>0</asrwt>
<pdfrwt beam="2">  1        2 0.21627504E+00 0.29504688E+04</pdfrwt>
<pdfrwt beam="1">  1       -2 0.23817104E+00 0.29504688E+04</pdfrwt>
<totfact> 0.93853262E-01</totfact>
</mgrwt>
</event>
<event>
 4    1  0.2482334E-008  0.2766852E+04  0.7816531E-02  0.8313634E-01
          2   -1    0    0  501    0  0.00000000000E+00  0.00000000000E+00  0.27286901418E+04  0.27286901418E+04  0.00000000000E+00 0.  1.
         -2   -1    0    0    0  501 -0.00000000000E+00 -0.00000000000E+00 -0.70138714364E+03  0.70138714364E+03  0.00000000000E+00 0. -1.
    2000013    1    1    2    0    0  0.31484029447E+03  0.72698022657E+03  0.17816111950E+04  0.21689313292E+04  0.95000000000E+03 0.  0.
   -2000013    1    1    2    0    0 -0.31484029447E+03 -0.72698022657E+03  0.24569180325E+03  0.12611459563E+04  0.95000000000E+03 0.  0.
<mgrwt>
<rscale>  0 0.27668525E+04</rscale>
<asrwt>0</asrwt>
<pdfrwt beam="1">  1        2 0.41979848E+00 0.27668525E+04</pdfrwt>
<pdfrwt beam="2">  1       -2 0.10790572E+00 0.27668525E+04</pdfrwt>
<totfact> 0.15325309E+00</totfact>
</mgrwt>
</event>
<event>
 4    1  0.2482334E-008  0.2628624E+04  0.7816531E-02  0.8358543E-01
         -2   -1    0    0    0  501 -0.00000000000E+00  0.00000000000E+00  0.75208817531E+03  0.75208817531E+03  0.00000000000E+00 0. -1.
          2   -1    0    0  501    0  0.00000000000E+00 -0.00000000000E+00 -0.22968273428E+04  0.22968273428E+04  0.00000000000E+00 0.  1.
    2000013    1    1    2    0    0  0.37243797737E+03  0.46572341733E+03 -0.15669648520E+04  0.19270410467E+04  0.95000000000E+03 0.  0.
   -2000013    1    1    2    0    0 -0.37243797737E+03 -0.46572341733E+03  0.22225684511E+02  0.11218744714E+04  0.95000000000E+03 0.  0.
<mgrwt>
<rscale>  0 0.26286245E+04</rscale>
<asrwt>0</asrwt>
<pdfrwt beam="2">  1        2 0.35335804E+00 0.26286245E+04</pdfrwt>
<pdfrwt beam="1">  1       -2 0.11570588E+00 0.26286245E+04</pdfrwt>
<totfact> 0.23333402E+00</totfact>
</mgrwt>
</event>
<event>
 4    1  0.2482334E-008  0.2289743E+04  0.7816531E-02  0.8481976E-01
          2   -1    0    0  501    0  0.00000000000E+00  0.00000000000E+00  0.74205358065E+03  0.74205358065E+03  0.00000000000E+00 0.  1.
         -2   -1    0    0    0  501 -0.00000000000E+00 -0.00000000000E+00 -0.17663557872E+04  0.17663557872E+04  0.00000000000E+00 0. -1.
    2000013    1    1    2    0    0 -0.22301166650E+03  0.56830834523E+03 -0.30567929931E+03  0.11698924791E+04  0.95000000000E+03 0.  0.
   -2000013    1    1    2    0    0  0.22301166650E+03 -0.56830834523E+03 -0.71862290725E+03  0.13385168888E+04  0.95000000000E+03 0.  0.
<mgrwt>
<rscale>  0 0.22897429E+04</rscale>
<asrwt>0</asrwt>
<pdfrwt beam="1">  1        2 0.11416209E+00 0.22897429E+04</pdfrwt>
<pdfrwt beam="2">  1       -2 0.27174704E+00 0.22897429E+04</pdfrwt>
<totfact> 0.16315627E+00</totfact>
</mgrwt>
</event>
<event>
 4    1  0.2482334E-008  0.2034400E+04  0.7816531E-02  0.8590704E-01
          2   -1    0    0  501    0  0.00000000000E+00  0.00000000000E+00  0.39591559942E+04  0.39591559942E+04  0.00000000000E+00 0.  1.
         -2   -1    0    0    0  501 -0.00000000000E+00 -0.00000000000E+00 -0.26134251737E+03  0.26134251737E+03  0.00000000000E+00 0. -1.
    2000013    1    1    2    0    0 -0.25931421479E+03 -0.50131717922E+02  0.23672942015E+04  0.25644373433E+04  0.95000000000E+03 0.  0.
   -2000013    1    1    2    0    0  0.25931421479E+03  0.50131717922E+02  0.13305192754E+04  0.16560611683E+04  0.95000000000E+03 0.  0.
<mgrwt>
<rscale>  0 0.20344000E+04</rscale>
<asrwt>0</asrwt>
<pdfrwt beam="1">  1        2 0.60910088E+00 0.20344000E+04</pdfrwt>
<pdfrwt beam="2">  1       -2 0.40206544E-01 0.20344000E+04</pdfrwt>
<totfact> 0.20208376E+00</totfact>
</mgrwt>
</event>
<event>
 4    1  0.2482334E-008  0.2522619E+04  0.7816531E-02  0.8394971E-01
          2   -1    0    0  501    0  0.00000000000E+00  0.00000000000E+00  0.29222646077E+04  0.29222646077E+04  0.00000000000E+00 0.  1.
         -2   -1    0    0    0  501 -0.00000000000E+00 -0.00000000000E+00 -0.54440721246E+03  0.54440721246E+03  0.00000000000E+00 0. -1.
    2000013    1    1    2    0    0 -0.11143185655E+03 -0.77305165739E+03  0.15736556329E+04  0.19972275721E+04  0.95000000000E+03 0.  0.
   -2000013    1    1    2    0    0  0.11143185655E+03  0.77305165739E+03  0.80420176229E+03  0.14694442480E+04  0.95000000000E+03 0.  0.
<mgrwt>
<rscale>  0 0.25226192E+04</rscale>
<asrwt>0</asrwt>
<pdfrwt beam="1">  1        2 0.44957916E+00 0.25226192E+04</pdfrwt>
<pdfrwt beam="2">  1       -2 0.83754957E-01 0.25226192E+04</pdfrwt>
<totfact> 0.21592166E+00</totfact>
</mgrwt>
</event>
<event>
 4    1  0.2482334E-008  0.2705437E+04  0.7816531E-02  0.8333243E-01
          2   -1    0    0  501    0  0.00000000000E+00  0.00000000000E+00  0.21257261530E+04  0.21257261530E+04  0.00000000000E+00 0.  1.
         -2   -1    0    0    0  501 -0.00000000000E+00 -0.00000000000E+00 -0.86081044993E+03  0.86081044993E+03  0.00000000000E+00 0. -1.
    2000013    1    1    2    0    0 -0.43810531637E+03 -0.69716801851E+03  0.81205334463E+02  0.12597911814E+04  0.95000000000E+03 0.  0.
   -2000013    1    1    2    0    0  0.43810531637E+03  0.69716801851E+03  0.11837103686E+04  0.17267454216E+04  0.95000000000E+03 0.  0.
<mgrwt>
<rscale>  0 0.27054370E+04</rscale>
<asrwt>0</asrwt>
<pdfrwt beam="1">  1        2 0.32703479E+00 0.27054370E+04</pdfrwt>
<pdfrwt beam="2">  1       -2 0.13243238E+00 0.27054370E+04</pdfrwt>
<totfact> 0.20651890E+00</totfact>
</mgrwt>
</event>
<event>
 4    1  0.2482334E-008  0.2446718E+04  0.7816531E-02  0.8422217E-01
         -2   -1    0    0    0  501 -0.00000000000E+00  0.00000000000E+00  0.15143163787E+04  0.15143163787E+04  0.00000000000E+00 0. -1.
          2   -1    0    0  501    0  0.00000000000E+00 -0.00000000000E+00 -0.98830557516E+03  0.98830557516E+03  0.00000000000E+00 0.  1.
    2000013    1    1    2    0    0 -0.13046528104E+03 -0.75783387952E+03  0.20913379388E+03  0.12399880331E+04  0.95000000000E+03 0.  0.
   -2000013    1    1    2    0    0  0.13046528104E+03  0.75783387952E+03  0.31687700961E+03  0.12626339207E+04  0.95000000000E+03 0.  0.
<mgrwt>
<rscale>  0 0.24467181E+04</rscale>
<asrwt>0</asrwt>
<pdfrwt beam="2">  1        2 0.15204701E+00 0.24467181E+04</pdfrwt>
<pdfrwt beam="1">  1       -2 0.23297175E+00 0.24467181E+04</pdfrwt>
<totfact> 0.18804393E+00</totfact>
</mgrwt>
</event>
<event>
 4    1  0.2482334E-008  0.2548721E+04  0.7816531E-02  0.8385831E-01
          2   -1    0    0  501    0  0.00000000000E+00  0.00000000000E+00  0.32093932147E+04  0.32093932147E+04  0.00000000000E+00 0.  1.
         -2   -1    0    0    0  501 -0.00000000000E+00 -0.00000000000E+00 -0.50601309441E+03  0.50601309441E+03  0.00000000000E+00 0. -1.
    2000013    1    1    2    0    0 -0.71997566270E+03 -0.11147132224E+03  0.19882863209E+04  0.23208992448E+04  0.95000000000E+03 0.  0.
   -2000013    1    1    2    0    0  0.71997566270E+03  0.11147132224E+03  0.71509379940E+03  0.13945070643E+04  0.95000000000E+03 0.  0.
<mgrwt>
<rscale>  0 0.25487212E+04</rscale>
<asrwt>0</asrwt>
<pdfrwt beam="1">  1        2 0.49375279E+00 0.25487212E+04</pdfrwt>
<pdfrwt beam="2">  1       -2 0.77848170E-01 0.25487212E+04</pdfrwt>
<totfact> 0.16695979E+00</totfact>
</mgrwt>
</event>
<event>
 4    1  0.2482334E-008  0.2340880E+04  0.7816531E-02  0.8461975E-01
          2   -1    0    0  501    0  0.00000000000E+00  0.00000000000E+00  0.14115652144E+04  0.14115652144E+04  0.00000000000E+00 0.  1.
         -2   -1    0    0    0  501 -0.00000000000E+00 -0.00000000000E+00 -0.97050441119E+03  0.97050441119E+03  0.00000000000E+00 0. -1.
    2000013    1    1    2    0    0  0.42070272843E+03  0.46040741173E+03  0.50557434800E+03  0.12438131660E+04  0.95000000000E+03 0.  0.
   -2000013    1    1    2    0    0 -0.42070272843E+03 -0.46040741173E+03 -0.64513544758E+02  0.11382564597E+04  0.95000000000E+03 0.  0.
<mgrwt>
<rscale>  0 0.23408804E+04</rscale>
<asrwt>0</asrwt>
<pdfrwt beam="1">  1        2 0.21716388E+00 0.23408804E+04</pdfrwt>
<pdfrwt beam="2">  1       -2 0.14930837E+00 0.23408804E+04</pdfrwt>
<totfact> 0.39066055E+00</totfact>
</mgrwt>
</event>
<event>
 4    1  0.2482334E-008  0.2917068E+04  0.7816531E-02  0.8267817E-01
          2   -1    0    0  501    0  0.00000000000E+00  0.00000000000E+00  0.26050391427E+04  0.26050391427E+04  0.00000000000E+00 0.  1.
         -2   -1    0    0    0  501 -0.00000000000E+00 -0.00000000000E+00 -0.81661777857E+03  0.81661777857E+03  0.00000000000E+00 0. -1.
    2000013    1    1    2    0    0  0.79431289188E+03 -0.18310907033E+03  0.17722687665E+04  0.21697692234E+04  0.95000000000E+03 0.  0.
   -2000013    1    1    2    0    0 -0.79431289188E+03  0.18310907033E+03  0.16152597639E+02  0.12518876979E+04  0.95000000000E+03 0.  0.
<mgrwt>
<rscale>  0 0.29170679E+04</rscale>
<asrwt>0</asrwt>
<pdfrwt beam="1">  1        2 0.40077525E+00 0.29170679E+04</pdfrwt>
<pdfrwt beam="2">  1       -2 0.12563351E+00 0.29170679E+04</pdfrwt>
<totfact> 0.12329159E+00</totfact>
</mgrwt>
</event>
<event>
 4    1  0.2482334E-008  0.2766442E+04  0.7816531E-02  0.8313763E-01
          2   -1    0    0  501    0  0.00000000000E+00  0.00000000000E+00  0.98654679253E+03  0.98654679253E+03  0.00000000000E+00 0. -1.
         -2   -1    0    0    0  501 -0.00000000000E+00 -0.00000000000E+00 -0.19393917996E+04  0.19393917996E+04  0.00000000000E+00 0.  1.
    2000013    1    1    2    0    0 -0.92001114122E+03 -0.40344378261E+03 -0.51890510124E+03  0.14768039443E+04  0.95000000000E+03 0.  0.
   -2000013    1    1    2    0    0  0.92001114122E+03  0.40344378261E+03 -0.43393990579E+03  0.14491346478E+04  0.95000000000E+03 0.  0.
<mgrwt>
<rscale>  0 0.27664423E+04</rscale>
<asrwt>0</asrwt>
<pdfrwt beam="1">  1        2 0.15177643E+00 0.27664423E+04</pdfrwt>
<pdfrwt beam="2">  1       -2 0.29836796E+00 0.27664423E+04</pdfrwt>
<totfact> 0.72923746E-01</totfact>
</mgrwt>
</event>
<event>
 4    1  0.2482334E-008  0.2706485E+04  0.7816531E-02  0.8332904E-01
          3   -1    0    0  501    0  0.00000000000E+00  0.00000000000E+00  0.30446136659E+04  0.30446136659E+04  0.00000000000E+00 0.  1.
         -3   -1    0    0    0  501 -0.00000000000E+00 -0.00000000000E+00 -0.60147686215E+03  0.60147686215E+03  0.00000000000E+00 0. -1.
    2000013    1    1    2    0    0 -0.25027911078E+03 -0.31199172092E+03  0.24027717910E+04  0.26145345182E+04  0.95000000000E+03 0.  0.
   -2000013    1    1    2    0    0  0.25027911078E+03  0.31199172092E+03  0.40365012742E+02  0.10315560099E+04  0.95000000000E+03 0.  0.
<mgrwt>
<rscale>  0 0.27064846E+04</rscale>
<asrwt>0</asrwt>
<pdfrwt beam="1">  1        3 0.46840209E+00 0.27064846E+04</pdfrwt>
<pdfrwt beam="2">  1       -3 0.92534903E-01 0.27064846E+04</pdfrwt>
<totfact> 0.11743124E-02</totfact>
</mgrwt>
</event>
<event>
 4    1  0.2482334E-008  0.2863518E+04  0.7816531E-02  0.8283815E-01
         -2   -1    0    0    0  501 -0.00000000000E+00  0.00000000000E+00  0.10706235453E+04  0.10706235453E+04  0.00000000000E+00 0. -1.
          2   -1    0    0  501    0  0.00000000000E+00 -0.00000000000E+00 -0.19147104325E+04  0.19147104325E+04  0.00000000000E+00 0.  1.
    2000013    1    1    2    0    0 -0.58126874862E+03 -0.84450652213E+03 -0.74568379605E+03  0.15841745320E+04  0.95000000000E+03 0.  0.
   -2000013    1    1    2    0    0  0.58126874862E+03  0.84450652213E+03 -0.98403091156E+02  0.14011594457E+04  0.95000000000E+03 0.  0.
<mgrwt>
<rscale>  0 0.28635182E+04</rscale>
<asrwt>0</asrwt>
<pdfrwt beam="2">  1        2 0.29457084E+00 0.28635182E+04</pdfrwt>
<pdfrwt beam="1">  1       -2 0.16471131E+00 0.28635182E+04</pdfrwt>
<totfact> 0.15008560E+00</totfact>
</mgrwt>
</event>
<event>
 4    1  0.2482334E-008  0.2137043E+04  0.7816531E-02  0.8545099E-01
         -4   -1    0    0    0  501 -0.00000000000E+00  0.00000000000E+00  0.10062196871E+04  0.10062196871E+04  0.00000000000E+00 0. -1.
          4   -1    0    0  501    0  0.00000000000E+00 -0.00000000000E+00 -0.11346805702E+04  0.11346805702E+04  0.00000000000E+00 0.  1.
    2000013    1    1    2    0    0 -0.13450378780E+03 -0.38143321376E+03 -0.33978213455E+03  0.10869841142E+04  0.95000000000E+03 0.  0.
   -2000013    1    1    2    0    0  0.13450378780E+03  0.38143321376E+03  0.21132125144E+03  0.10539161432E+04  0.95000000000E+03 0.  0.
<mgrwt>
<rscale>  0 0.21370427E+04</rscale>
<asrwt>0</asrwt>
<pdfrwt beam="2">  1        4 0.17456624E+00 0.21370427E+04</pdfrwt>
<pdfrwt beam="1">  1       -4 0.15480303E+00 0.21370427E+04</pdfrwt>
<totfact> 0.98688431E-02</totfact>
</mgrwt>
</event>
<event>
 4    1  0.2482334E-008  0.2493895E+04  0.7816531E-02  0.8405164E-01
          2   -1    0    0  501    0  0.00000000000E+00  0.00000000000E+00  0.63093690780E+03  0.63093690780E+03  0.00000000000E+00 0.  1.
         -2   -1    0    0    0  501 -0.00000000000E+00 -0.00000000000E+00 -0.24643952939E+04  0.24643952939E+04  0.00000000000E+00 0. -1.
    2000013    1    1    2    0    0 -0.68774870703E+03  0.40127979229E+03 -0.10848791410E+04  0.16472663738E+04  0.95000000000E+03 0.  0.
   -2000013    1    1    2    0    0  0.68774870703E+03 -0.40127979229E+03 -0.74857924507E+03  0.14480658279E+04  0.95000000000E+03 0.  0.
<mgrwt>
<rscale>  0 0.24938949E+04</rscale>
<asrwt>0</asrwt>
<pdfrwt beam="1">  1        2 0.97067216E-01 0.24938949E+04</pdfrwt>
<pdfrwt beam="2">  1       -2 0.37913774E+00 0.24938949E+04</pdfrwt>
<totfact> 0.42232192E-01</totfact>
</mgrwt>
</event>
<event>
 4    1  0.2482334E-008  0.2976019E+04  0.7816531E-02  0.8250612E-01
         -2   -1    0    0    0  501 -0.00000000000E+00  0.00000000000E+00  0.80975360851E+03  0.80975360851E+03  0.00000000000E+00 0. -1.
          2   -1    0    0  501    0  0.00000000000E+00 -0.00000000000E+00 -0.27343781669E+04  0.27343781669E+04  0.00000000000E+00 0.  1.
    2000013    1    1    2    0    0  0.52243904267E+03 -0.37406775311E+03 -0.20913448529E+04  0.23851818654E+04  0.95000000000E+03 0.  0.
   -2000013    1    1    2    0    0 -0.52243904267E+03  0.37406775311E+03  0.16672029456E+03  0.11589499100E+04  0.95000000000E+03 0.  0.
<mgrwt>
<rscale>  0 0.29760192E+04</rscale>
<asrwt>0</asrwt>
<pdfrwt beam="2">  1        2 0.42067357E+00 0.29760192E+04</pdfrwt>
<pdfrwt beam="1">  1       -2 0.12457748E+00 0.29760192E+04</pdfrwt>
<totfact> 0.10500950E+00</totfact>
</mgrwt>
</event>
<event>
 4    1  0.2482334E-008  0.2148954E+04  0.7816531E-02  0.8539980E-01
         -2   -1    0    0    0  501 -0.00000000000E+00  0.00000000000E+00  0.60582707302E+03  0.60582707302E+03  0.00000000000E+00 0. -1.
          2   -1    0    0  501    0  0.00000000000E+00 -0.00000000000E+00 -0.19056612626E+04  0.19056612626E+04  0.00000000000E+00 0.  1.
    2000013    1    1    2    0    0  0.19947362941E+02 -0.46912125151E+03 -0.44239903342E+03  0.11483420878E+04  0.95000000000E+03 0.  0.
   -2000013    1    1    2    0    0 -0.19947362941E+02  0.46912125151E+03 -0.85743515620E+03  0.13631462478E+04  0.95000000000E+03 0.  0.
<mgrwt>
<rscale>  0 0.21489543E+04</rscale>
<asrwt>0</asrwt>
<pdfrwt beam="2">  1        2 0.29317865E+00 0.21489543E+04</pdfrwt>
<pdfrwt beam="1">  1       -2 0.93204167E-01 0.21489543E+04</pdfrwt>
<totfact> 0.67424496E+00</totfact>
</mgrwt>
</event>
<event>
 4    1  0.2482334E-008  0.2529797E+04  0.7816531E-02  0.8392446E-01
          2   -1    0    0  501    0  0.00000000000E+00  0.00000000000E+00  0.82920007456E+03  0.82920007456E+03  0.00000000000E+00 0.  1.
         -2   -1    0    0    0  501 -0.00000000000E+00 -0.00000000000E+00 -0.19295320605E+04  0.19295320605E+04  0.00000000000E+00 0. -1.
    2000013    1    1    2    0    0 -0.69103105039E+03 -0.37576495904E+03 -0.24415634330E+03  0.12573128238E+04  0.95000000000E+03 0.  0.
   -2000013    1    1    2    0    0  0.69103105039E+03  0.37576495904E+03 -0.85617564265E+03  0.15014193112E+04  0.95000000000E+03 0.  0.
<mgrwt>
<rscale>  0 0.25297969E+04</rscale>
<asrwt>0</asrwt>
<pdfrwt beam="1">  1        2 0.12756924E+00 0.25297969E+04</pdfrwt>
<pdfrwt beam="2">  1       -2 0.29685109E+00 0.25297969E+04</pdfrwt>
<totfact> 0.97051237E-01</totfact>
</mgrwt>
</event>
<event>
 4    1  0.2482334E-008  0.2278822E+04  0.7816531E-02  0.8486318E-01
         -2   -1    0    0    0  501 -0.00000000000E+00  0.00000000000E+00  0.83487724071E+03  0.83487724071E+03  0.00000000000E+00 0. -1.
          2   -1    0    0  501    0  0.00000000000E+00 -0.00000000000E+00 -0.15550283476E+04  0.15550283476E+04  0.00000000000E+00 0.  1.
    2000013    1    1    2    0    0 -0.24449185056E+03 -0.48971475586E+03 -0.34861205084E+02  0.10969558381E+04  0.95000000000E+03 0.  0.
   -2000013    1    1    2    0    0  0.24449185056E+03  0.48971475586E+03 -0.68528990181E+03  0.12929497502E+04  0.95000000000E+03 0.  0.
<mgrwt>
<rscale>  0 0.22788223E+04</rscale>
<asrwt>0</asrwt>
<pdfrwt beam="2">  1        2 0.23923513E+00 0.22788223E+04</pdfrwt>
<pdfrwt beam="1">  1       -2 0.12844265E+00 0.22788223E+04</pdfrwt>
<totfact> 0.48068612E+00</totfact>
</mgrwt>
</event>
<event>
 4    1  0.2482334E-008  0.2500277E+04  0.7816531E-02  0.8402887E-01
         -2   -1    0    0    0  501 -0.00000000000E+00  0.00000000000E+00  0.70212222980E+03  0.70212222980E+03  0.00000000000E+00 0. -1.
          2   -1    0    0  501    0  0.00000000000E+00 -0.00000000000E+00 -0.22258892119E+04  0.22258892119E+04  0.00000000000E+00 0.  1.
    2000013    1    1    2    0    0  0.10921418830E+03  0.71989191893E+03 -0.11844032954E+04  0.16838893313E+04  0.95000000000E+03 0.  0.
   -2000013    1    1    2    0    0 -0.10921418830E+03 -0.71989191893E+03 -0.33936368677E+03  0.12441221105E+04  0.95000000000E+03 0.  0.
<mgrwt>
<rscale>  0 0.25002770E+04</rscale>
<asrwt>0</asrwt>
<pdfrwt beam="2">  1        2 0.34244449E+00 0.25002770E+04</pdfrwt>
<pdfrwt beam="1">  1       -2 0.10801881E+00 0.25002770E+04</pdfrwt>
<totfact> 0.30570226E+00</totfact>
</mgrwt>
</event>
<event>
 4    1  0.2482334E-008  0.2827602E+04  0.7816531E-02  0.8294750E-01
         -1   -1    0    0    0  501 -0.00000000000E+00  0.00000000000E+00  0.11005623406E+04  0.11005623406E+04  0.00000000000E+00 0.  1.
          1   -1    0    0  501    0  0.00000000000E+00 -0.00000000000E+00 -0.18161925180E+04  0.18161925180E+04  0.00000000000E+00 0. -1.
    2000013    1    1    2    0    0 -0.84022290637E+03  0.43843934833E+03  0.10133665130E+03  0.13457238615E+04  0.95000000000E+03 0.  0.
   -2000013    1    1    2    0    0  0.84022290637E+03 -0.43843934833E+03 -0.81696682876E+03  0.15710309971E+04  0.95000000000E+03 0.  0.
<mgrwt>
<rscale>  0 0.28276019E+04</rscale>
<asrwt>0</asrwt>
<pdfrwt beam="2">  1        1 0.27941423E+00 0.28276019E+04</pdfrwt>
<pdfrwt beam="1">  1       -1 0.16931729E+00 0.28276019E+04</pdfrwt>
<totfact> 0.85398359E-01</totfact>
</mgrwt>
</event>
<event>
 4    1  0.2482334E-008  0.2082571E+04  0.7816531E-02  0.8568960E-01
         -1   -1    0    0    0  501 -0.00000000000E+00  0.00000000000E+00  0.86575963069E+03  0.86575963069E+03  0.00000000000E+00 0. -1.
          1   -1    0    0  501    0  0.00000000000E+00 -0.00000000000E+00 -0.12523979983E+04  0.12523979983E+04  0.00000000000E+00 0.  1.
    2000013    1    1    2    0    0 -0.37178792954E+03  0.20807257752E+03 -0.20956607267E+03  0.10620444439E+04  0.95000000000E+03 0.  0.
   -2000013    1    1    2    0    0  0.37178792954E+03 -0.20807257752E+03 -0.17707229496E+03  0.10561131851E+04  0.95000000000E+03 0.  0.
<mgrwt>
<rscale>  0 0.20825711E+04</rscale>
<asrwt>0</asrwt>
<pdfrwt beam="2">  1        1 0.19267661E+00 0.20825711E+04</pdfrwt>
<pdfrwt beam="1">  1       -1 0.13319379E+00 0.20825711E+04</pdfrwt>
<totfact> 0.42987936E+00</totfact>
</mgrwt>
</event>
<event>
 4    1  0.2482334E-008  0.2385848E+04  0.7816531E-02  0.8444821E-01
          2   -1    0    0  501    0  0.00000000000E+00  0.00000000000E+00  0.33672087676E+04  0.33672087676E+04  0.00000000000E+00 0.  1.
         -2   -1    0    0    0  501 -0.00000000000E+00 -0.00000000000E+00 -0.42262516085E+03  0.42262516085E+03  0.00000000000E+00 0. -1.
    2000013    1    1    2    0    0  0.54882251628E+03 -0.32706777637E+03  0.93977072054E+03  0.14811645729E+04  0.95000000000E+03 0.  0.
   -2000013    1    1    2    0    0 -0.54882251628E+03  0.32706777637E+03  0.20048128862E+04  0.23086693556E+04  0.95000000000E+03 0.  0.
<mgrwt>
<rscale>  0 0.23858476E+04</rscale>
<asrwt>0</asrwt>
<pdfrwt beam="1">  1        2 0.51803210E+00 0.23858476E+04</pdfrwt>
<pdfrwt beam="2">  1       -2 0.65019258E-01 0.23858476E+04</pdfrwt>
<totfact> 0.19744894E+00</totfact>
</mgrwt>
</event>
<event>
 4    1  0.2482334E-008  0.2125726E+04  0.7816531E-02  0.8549995E-01
         -2   -1    0    0    0  501 -0.00000000000E+00  0.00000000000E+00  0.40208528115E+03  0.40208528115E+03  0.00000000000E+00 0. -1.
          2   -1    0    0  501    0  0.00000000000E+00 -0.00000000000E+00 -0.28095479245E+04  0.28095479245E+04  0.00000000000E+00 0.  1.
    2000013    1    1    2    0    0 -0.15336549532E+03  0.42148305956E+03 -0.96007380482E+03  0.14231692293E+04  0.95000000000E+03 0.  0.
   -2000013    1    1    2    0    0  0.15336549532E+03 -0.42148305956E+03 -0.14473888385E+04  0.17884639763E+04  0.95000000000E+03 0.  0.
<mgrwt>
<rscale>  0 0.21257261E+04</rscale>
<asrwt>0</asrwt>
<pdfrwt beam="2">  1        2 0.43223815E+00 0.21257261E+04</pdfrwt>
<pdfrwt beam="1">  1       -2 0.61859274E-01 0.21257261E+04</pdfrwt>
<totfact> 0.50986080E+00</totfact>
</mgrwt>
</event>
<event>
 4    1  0.2482334E-008  0.3153126E+04  0.7816531E-02  0.8201307E-01
          2   -1    0    0  501    0  0.00000000000E+00  0.00000000000E+00  0.82259073514E+03  0.82259073514E+03  0.00000000000E+00 0. -1.
         -2   -1    0    0    0  501 -0.00000000000E+00 -0.00000000000E+00 -0.30216133847E+04  0.30216133847E+04  0.00000000000E+00 0.  1.
    2000013    1    1    2    0    0 -0.10793824395E+04  0.55636065517E+03 -0.69802111984E+03  0.16924352611E+04  0.95000000000E+03 0.  0.
   -2000013    1    1    2    0    0  0.10793824395E+04 -0.55636065517E+03 -0.15010015297E+04  0.21517688588E+04  0.95000000000E+03 0.  0.
<mgrwt>
<rscale>  0 0.31531262E+04</rscale>
<asrwt>0</asrwt>
<pdfrwt beam="1">  1        2 0.12655242E+00 0.31531262E+04</pdfrwt>
<pdfrwt beam="2">  1       -2 0.46486361E+00 0.31531262E+04</pdfrwt>
<totfact> 0.77572248E-02</totfact>
</mgrwt>
</event>
<event>
 4    1  0.2482334E-008  0.2393169E+04  0.7816531E-02  0.8442066E-01
          2   -1    0    0  501    0  0.00000000000E+00  0.00000000000E+00  0.87227614088E+03  0.87227614088E+03  0.00000000000E+00 0.  1.
         -2   -1    0    0    0  501 -0.00000000000E+00 -0.00000000000E+00 -0.16414685703E+04  0.16414685703E+04  0.00000000000E+00 0. -1.
    2000013    1    1    2    0    0  0.40904692097E+03  0.24423306540E+03 -0.96215882275E+03  0.14336034228E+04  0.95000000000E+03 0.  0.
   -2000013    1    1    2    0    0 -0.40904692097E+03 -0.24423306540E+03  0.19296639334E+03  0.10801412883E+04  0.95000000000E+03 0.  0.
<mgrwt>
<rscale>  0 0.23931685E+04</rscale>
<asrwt>0</asrwt>
<pdfrwt beam="1">  1        2 0.13419633E+00 0.23931685E+04</pdfrwt>
<pdfrwt beam="2">  1       -2 0.25253362E+00 0.23931685E+04</pdfrwt>
<totfact> 0.17082537E+00</totfact>
</mgrwt>
</event>
<event>
 4    1  0.2482334E-008  0.2353714E+04  0.7816531E-02  0.8457038E-01
         -1   -1    0    0    0  501 -0.00000000000E+00  0.00000000000E+00  0.69493695239E+03  0.69493695239E+03  0.00000000000E+00 0. -1.
          1   -1    0    0  501    0  0.00000000000E+00 -0.00000000000E+00 -0.19929757431E+04  0.19929757431E+04  0.00000000000E+00 0.  1.
    2000013    1    1    2    0    0 -0.30411010676E+03 -0.55953424187E+03 -0.96576605358E+03  0.14969187002E+04  0.95000000000E+03 0.  0.
   -2000013    1    1    2    0    0  0.30411010676E+03  0.55953424187E+03 -0.33227273709E+03  0.11909939952E+04  0.95000000000E+03 0.  0.
<mgrwt>
<rscale>  0 0.23537141E+04</rscale>
<asrwt>0</asrwt>
<pdfrwt beam="2">  1        1 0.30661165E+00 0.23537141E+04</pdfrwt>
<pdfrwt beam="1">  1       -1 0.10691338E+00 0.23537141E+04</pdfrwt>
<totfact> 0.22119130E+00</totfact>
</mgrwt>
</event>
<event>
 4    1  0.2482334E-008  0.2874121E+04  0.7816531E-02  0.8280619E-01
         -2   -1    0    0    0  501 -0.00000000000E+00  0.00000000000E+00  0.17111403455E+04  0.17111403455E+04  0.00000000000E+00 0. -1.
          2   -1    0    0  501    0  0.00000000000E+00 -0.00000000000E+00 -0.12068809666E+04  0.12068809666E+04  0.00000000000E+00 0.  1.
    2000013    1    1    2    0    0 -0.60896992591E+03 -0.75388458727E+03  0.73206179257E+03  0.15419470840E+04  0.95000000000E+03 0.  0.
   -2000013    1    1    2    0    0  0.60896992591E+03  0.75388458727E+03 -0.22780241364E+03  0.13760742281E+04  0.95000000000E+03 0.  0.
<mgrwt>
<rscale>  0 0.28741209E+04</rscale>
<asrwt>0</asrwt>
<pdfrwt beam="2">  1        2 0.18567399E+00 0.28741209E+04</pdfrwt>
<pdfrwt beam="1">  1       -2 0.26325236E+00 0.28741209E+04</pdfrwt>
<totfact> 0.86481626E-01</totfact>
</mgrwt>
</event>
<event>
 4    1  0.2482334E-008  0.2771319E+04  0.7816531E-02  0.8312228E-01
          2   -1    0    0  501    0  0.00000000000E+00  0.00000000000E+00  0.13072731539E+04  0.13072731539E+04  0.00000000000E+00 0.  1.
         -2   -1    0    0    0  501 -0.00000000000E+00 -0.00000000000E+00 -0.14687463355E+04  0.14687463355E+04  0.00000000000E+00 0. -1.
    2000013    1    1    2    0    0  0.37622952330E+03  0.88672639988E+03  0.21930487919E+03  0.13705571832E+04  0.95000000000E+03 0.  0.
   -2000013    1    1    2    0    0 -0.37622952330E+03 -0.88672639988E+03 -0.38077806075E+03  0.14054623061E+04  0.95000000000E+03 0.  0.
<mgrwt>
<rscale>  0 0.27713193E+04</rscale>
<asrwt>0</asrwt>
<pdfrwt beam="1">  1        2 0.20111895E+00 0.27713193E+04</pdfrwt>
<pdfrwt beam="2">  1       -2 0.22596098E+00 0.27713193E+04</pdfrwt>
<totfact> 0.12941440E+00</totfact>
</mgrwt>
</event>
<event>
 4    1  0.2482334E-008  0.2391391E+04  0.7816531E-02  0.8442734E-01
          2   -1    0    0  501    0  0.00000000000E+00  0.00000000000E+00  0.40873055490E+04  0.40873055490E+04  0.00000000000E+00 0.  1.
         -2   -1    0    0    0  501 -0.00000000000E+00 -0.00000000000E+00 -0.34978741494E+03  0.34978741494E+03  0.00000000000E+00 0. -1.
    2000013    1    1    2    0    0  0.53661927910E+03 -0.16589011745E+03  0.27224816931E+04  0.29376668210E+04  0.95000000000E+03 0.  0.
   -2000013    1    1    2    0    0 -0.53661927910E+03  0.16589011745E+03  0.10150364410E+04  0.14994261430E+04  0.95000000000E+03 0.  0.
<mgrwt>
<rscale>  0 0.23913913E+04</rscale>
<asrwt>0</asrwt>
<pdfrwt beam="1">  1        2 0.62881620E+00 0.23913913E+04</pdfrwt>
<pdfrwt beam="2">  1       -2 0.53813451E-01 0.23913913E+04</pdfrwt>
<totfact> 0.85336753E-01</totfact>
</mgrwt>
</event>
<event>
 4    1  0.2482334E-008  0.2573441E+04  0.7816531E-02  0.8377279E-01
          2   -1    0    0  501    0  0.00000000000E+00  0.00000000000E+00  0.16813867613E+04  0.16813867613E+04  0.00000000000E+00 0.  1.
         -2   -1    0    0    0  501 -0.00000000000E+00 -0.00000000000E+00 -0.98469322694E+03  0.98469322694E+03  0.00000000000E+00 0. -1.
    2000013    1    1    2    0    0  0.11267841821E+03 -0.74448694601E+03 -0.98687145027E+02  0.12162221801E+04  0.95000000000E+03 0.  0.
   -2000013    1    1    2    0    0 -0.11267841821E+03  0.74448694601E+03  0.79538067934E+03  0.14498578081E+04  0.95000000000E+03 0.  0.
<mgrwt>
<rscale>  0 0.25734414E+04</rscale>
<asrwt>0</asrwt>
<pdfrwt beam="1">  1        2 0.25867489E+00 0.25734414E+04</pdfrwt>
<pdfrwt beam="2">  1       -2 0.15149127E+00 0.25734414E+04</pdfrwt>
<totfact> 0.25989459E+00</totfact>
</mgrwt>
</event>
<event>
 4    1  0.2482334E-008  0.4883267E+04  0.7816531E-02  0.7846771E-01
         -2   -1    0    0    0  501 -0.00000000000E+00  0.00000000000E+00  0.15936988788E+04  0.15936988788E+04  0.00000000000E+00 0. -1.
          2   -1    0    0  501    0  0.00000000000E+00 -0.00000000000E+00 -0.37407159954E+04  0.37407159954E+04  0.00000000000E+00 0.  1.
    2000013    1    1    2    0    0 -0.21606153763E+04 -0.47651723308E+03 -0.15155505339E+04  0.28451222994E+04  0.95000000000E+03 0.  0.
   -2000013    1    1    2    0    0  0.21606153763E+04  0.47651723308E+03 -0.63146658278E+03  0.24892925748E+04  0.95000000000E+03 0.  0.
<mgrwt>
<rscale>  0 0.48832673E+04</rscale>
<asrwt>0</asrwt>
<pdfrwt beam="2">  1        2 0.57549477E+00 0.48832673E+04</pdfrwt>
<pdfrwt beam="1">  1       -2 0.24518444E+00 0.48832673E+04</pdfrwt>
<totfact> 0.27440019E-02</totfact>
</mgrwt>
</event>
<event>
 4    1  0.2482334E-008  0.2512078E+04  0.7816531E-02  0.8398695E-01
          2   -1    0    0  501    0  0.00000000000E+00  0.00000000000E+00  0.19970555184E+04  0.19970555184E+04  0.00000000000E+00 0.  1.
         -2   -1    0    0    0  501 -0.00000000000E+00 -0.00000000000E+00 -0.78998033423E+03  0.78998033423E+03  0.00000000000E+00 0. -1.
    2000013    1    1    2    0    0  0.27058744565E+03 -0.77026287515E+03  0.70649662857E+03  0.14381098528E+04  0.95000000000E+03 0.  0.
   -2000013    1    1    2    0    0 -0.27058744565E+03  0.77026287515E+03  0.50057855556E+03  0.13489259998E+04  0.95000000000E+03 0.  0.
<mgrwt>
<rscale>  0 0.25120785E+04</rscale>
<asrwt>0</asrwt>
<pdfrwt beam="1">  1        2 0.30723931E+00 0.25120785E+04</pdfrwt>
<pdfrwt beam="2">  1       -2 0.12153544E+00 0.25120785E+04</pdfrwt>
<totfact> 0.30740416E+00</totfact>
</mgrwt>
</event>
<event>
 4    1  0.2482334E-008  0.2421227E+04  0.7816531E-02  0.8431599E-01
         -2   -1    0    0    0  501 -0.00000000000E+00  0.00000000000E+00  0.17526249923E+04  0.17526249923E+04  0.00000000000E+00 0. -1.
          2   -1    0    0  501    0  0.00000000000E+00 -0.00000000000E+00 -0.83622316631E+03  0.83622316631E+03  0.00000000000E+00 0.  1.
    2000013    1    1    2    0    0 -0.13652238644E+03  0.73262620155E+03  0.55206263308E+03  0.13276493001E+04  0.95000000000E+03 0.  0.
   -2000013    1    1    2    0    0  0.13652238644E+03 -0.73262620155E+03  0.36433919287E+03  0.12611988585E+04  0.95000000000E+03 0.  0.
<mgrwt>
<rscale>  0 0.24212275E+04</rscale>
<asrwt>0</asrwt>
<pdfrwt beam="2">  1        2 0.12864972E+00 0.24212275E+04</pdfrwt>
<pdfrwt beam="1">  1       -2 0.26963461E+00 0.24212275E+04</pdfrwt>
<totfact> 0.14192001E+00</totfact>
</mgrwt>
</event>
<event>
 4    1  0.2482334E-008  0.2136990E+04  0.7816531E-02  0.8545122E-01
         -2   -1    0    0    0  501 -0.00000000000E+00  0.00000000000E+00  0.52161324911E+03  0.52161324911E+03  0.00000000000E+00 0. -1.
          2   -1    0    0  501    0  0.00000000000E+00 -0.00000000000E+00 -0.21887519934E+04  0.21887519934E+04  0.00000000000E+00 0.  1.
    2000013    1    1    2    0    0  0.43837728125E+03  0.15399438520E+03 -0.10271398580E+04  0.14742473332E+04  0.95000000000E+03 0.  0.
   -2000013    1    1    2    0    0 -0.43837728125E+03 -0.15399438520E+03 -0.63999888627E+03  0.12361179094E+04  0.95000000000E+03 0.  0.
<mgrwt>
<rscale>  0 0.21369904E+04</rscale>
<asrwt>0</asrwt>
<pdfrwt beam="2">  1        2 0.33673108E+00 0.21369904E+04</pdfrwt>
<pdfrwt beam="1">  1       -2 0.80248191E-01 0.21369904E+04</pdfrwt>
<totfact> 0.66075859E+00</totfact>
</mgrwt>
</event>
<event>
 4    1  0.2482334E-008  0.2221629E+04  0.7816531E-02  0.8509479E-01
         -1   -1    0    0    0  501 -0.00000000000E+00  0.00000000000E+00  0.73827595949E+03  0.73827595949E+03  0.00000000000E+00 0. -1.
          1   -1    0    0  501    0  0.00000000000E+00 -0.00000000000E+00 -0.16713376907E+04  0.16713376907E+04  0.00000000000E+00 0.  1.
    2000013    1    1    2    0    0  0.17065813961E+02  0.15964772179E+03  0.13308594616E+03  0.97262043272E+03  0.95000000000E+03 0.  0.
   -2000013    1    1    2    0    0 -0.17065813961E+02 -0.15964772179E+03 -0.10661476773E+04  0.14369932174E+04  0.95000000000E+03 0.  0.
<mgrwt>
<rscale>  0 0.22216286E+04</rscale>
<asrwt>0</asrwt>
<pdfrwt beam="2">  1        1 0.25712887E+00 0.22216286E+04</pdfrwt>
<pdfrwt beam="1">  1       -1 0.11358092E+00 0.22216286E+04</pdfrwt>
<totfact> 0.32081844E+00</totfact>
</mgrwt>
</event>
<event>
 4    1  0.2482334E-008  0.2623848E+04  0.7816531E-02  0.8360146E-01
         -2   -1    0    0    0  501 -0.00000000000E+00  0.00000000000E+00  0.10386297829E+04  0.10386297829E+04  0.00000000000E+00 0. -1.
          2   -1    0    0  501    0  0.00000000000E+00 -0.00000000000E+00 -0.16571296488E+04  0.16571296488E+04  0.00000000000E+00 0.  1.
    2000013    1    1    2    0    0 -0.85535766240E+03  0.59965072438E+02 -0.60597614181E+03  0.14159589065E+04  0.95000000000E+03 0.  0.
   -2000013    1    1    2    0    0  0.85535766240E+03 -0.59965072438E+02 -0.12523724127E+02  0.12798005252E+04  0.95000000000E+03 0.  0.
<mgrwt>
<rscale>  0 0.26238477E+04</rscale>
<asrwt>0</asrwt>
<pdfrwt beam="2">  1        2 0.25494302E+00 0.26238477E+04</pdfrwt>
<pdfrwt beam="1">  1       -2 0.15978920E+00 0.26238477E+04</pdfrwt>
<totfact> 0.23128211E+00</totfact>
</mgrwt>
</event>
<event>
 4    1  0.2482334E-008  0.2408101E+04  0.7816531E-02  0.8436477E-01
          2   -1    0    0  501    0  0.00000000000E+00  0.00000000000E+00  0.31628315487E+04  0.31628315487E+04  0.00000000000E+00 0.  1.
         -2   -1    0    0    0  501 -0.00000000000E+00 -0.00000000000E+00 -0.45836704244E+03  0.45836704244E+03  0.00000000000E+00 0. -1.
    2000013    1    1    2    0    0 -0.53383353106E+03  0.14907718656E+03  0.20889741351E+04  0.23608293423E+04  0.95000000000E+03 0.  0.
   -2000013    1    1    2    0    0  0.53383353106E+03 -0.14907718656E+03  0.61549037119E+03  0.12603692489E+04  0.95000000000E+03 0.  0.
<mgrwt>
<rscale>  0 0.24081011E+04</rscale>
<asrwt>0</asrwt>
<pdfrwt beam="1">  1        2 0.48658945E+00 0.24081011E+04</pdfrwt>
<pdfrwt beam="2">  1       -2 0.70518009E-01 0.24081011E+04</pdfrwt>
<totfact> 0.22554196E+00</totfact>
</mgrwt>
</event>
<event>
 4    1  0.2482334E-008  0.2897984E+04  0.7816531E-02  0.8273478E-01
          2   -1    0    0  501    0  0.00000000000E+00  0.00000000000E+00  0.32600011456E+04  0.32600011456E+04  0.00000000000E+00 0.  1.
         -2   -1    0    0    0  501 -0.00000000000E+00 -0.00000000000E+00 -0.64404191827E+03  0.64404191827E+03  0.00000000000E+00 0. -1.
    2000013    1    1    2    0    0  0.89528467433E+03  0.62163033880E+03  0.14366206506E+04  0.20382192767E+04  0.95000000000E+03 0.  0.
   -2000013    1    1    2    0    0 -0.89528467433E+03 -0.62163033880E+03  0.11793385768E+04  0.18658237872E+04  0.95000000000E+03 0.  0.
<mgrwt>
<rscale>  0 0.28979837E+04</rscale>
<asrwt>0</asrwt>
<pdfrwt beam="1">  1        2 0.50153863E+00 0.28979837E+04</pdfrwt>
<pdfrwt beam="2">  1       -2 0.99083374E-01 0.28979837E+04</pdfrwt>
<totfact> 0.86246042E-01</totfact>
</mgrwt>
</event>
<event>
 4    1  0.2482334E-008  0.2205699E+04  0.7816531E-02  0.8516060E-01
         -2   -1    0    0    0  501 -0.00000000000E+00  0.00000000000E+00  0.89424132544E+03  0.89424132544E+03  0.00000000000E+00 0. -1.
          2   -1    0    0  501    0  0.00000000000E+00 -0.00000000000E+00 -0.13601221461E+04  0.13601221461E+04  0.00000000000E+00 0.  1.
    2000013    1    1    2    0    0 -0.71906314259E+02  0.49724959940E+03  0.20213134280E+02  0.10748656906E+04  0.95000000000E+03 0.  0.
   -2000013    1    1    2    0    0  0.71906314259E+02 -0.49724959940E+03 -0.48609395494E+03  0.11794977809E+04  0.95000000000E+03 0.  0.
<mgrwt>
<rscale>  0 0.22056994E+04</rscale>
<asrwt>0</asrwt>
<pdfrwt beam="2">  1        2 0.20924956E+00 0.22056994E+04</pdfrwt>
<pdfrwt beam="1">  1       -2 0.13757559E+00 0.22056994E+04</pdfrwt>
<totfact> 0.52387380E+00</totfact>
</mgrwt>
</event>
<event>
 4    1  0.2482334E-008  0.3048707E+04  0.7816531E-02  0.8229958E-01
          2   -1    0    0  501    0  0.00000000000E+00  0.00000000000E+00  0.19536397271E+04  0.19536397271E+04  0.00000000000E+00 0.  1.
         -2   -1    0    0    0  501 -0.00000000000E+00 -0.00000000000E+00 -0.11893969795E+04  0.11893969795E+04  0.00000000000E+00 0. -1.
    2000013    1    1    2    0    0  0.28960772448E+03 -0.65525657438E+03 -0.60020871226E+03  0.13326606134E+04  0.95000000000E+03 0.  0.
   -2000013    1    1    2    0    0 -0.28960772448E+03  0.65525657438E+03  0.13644514598E+04  0.18103760931E+04  0.95000000000E+03 0.  0.
<mgrwt>
<rscale>  0 0.30487067E+04</rscale>
<asrwt>0</asrwt>
<pdfrwt beam="1">  1        2 0.30055996E+00 0.30487067E+04</pdfrwt>
<pdfrwt beam="2">  1       -2 0.18298415E+00 0.30487067E+04</pdfrwt>
<totfact> 0.10455642E+00</totfact>
</mgrwt>
</event>
<event>
 4    1  0.2482334E-008  0.3154410E+04  0.7816531E-02  0.8200962E-01
         -2   -1    0    0    0  501 -0.00000000000E+00  0.00000000000E+00  0.97975714452E+03  0.97975714452E+03  0.00000000000E+00 0. -1.
          2   -1    0    0  501    0  0.00000000000E+00 -0.00000000000E+00 -0.25389712948E+04  0.25389712948E+04  0.00000000000E+00 0.  1.
    2000013    1    1    2    0    0  0.50878232707E+03 -0.10750107992E+04 -0.12403046206E+04  0.19635078881E+04  0.95000000000E+03 0.  0.
   -2000013    1    1    2    0    0 -0.50878232707E+03  0.10750107992E+04 -0.31890952966E+03  0.15552205512E+04  0.95000000000E+03 0.  0.
<mgrwt>
<rscale>  0 0.31544098E+04</rscale>
<asrwt>0</asrwt>
<pdfrwt beam="2">  1        2 0.39061096E+00 0.31544098E+04</pdfrwt>
<pdfrwt beam="1">  1       -2 0.15073187E+00 0.31544098E+04</pdfrwt>
<totfact> 0.82581450E-01</totfact>
</mgrwt>
</event>
<event>
 4    1  0.2482334E-008  0.3636120E+04  0.7816531E-02  0.8082268E-01
          1   -1    0    0  501    0  0.00000000000E+00  0.00000000000E+00  0.27741863402E+04  0.27741863402E+04  0.00000000000E+00 0.  1.
         -1   -1    0    0    0  501 -0.00000000000E+00 -0.00000000000E+00 -0.11914634350E+04  0.11914634350E+04  0.00000000000E+00 0. -1.
    2000013    1    1    2    0    0 -0.66575843605E+03 -0.11013430647E+04 -0.15103781266E+03  0.16067057174E+04  0.95000000000E+03 0.  0.
   -2000013    1    1    2    0    0  0.66575843605E+03  0.11013430647E+04  0.17337607179E+04  0.23589440579E+04  0.95000000000E+03 0.  0.
<mgrwt>
<rscale>  0 0.36361197E+04</rscale>
<asrwt>0</asrwt>
<pdfrwt beam="1">  1        1 0.42679790E+00 0.36361197E+04</pdfrwt>
<pdfrwt beam="2">  1       -1 0.18330207E+00 0.36361197E+04</pdfrwt>
<totfact> 0.13816205E-01</totfact>
</mgrwt>
</event>
<event>
 4    1  0.2482334E-008  0.2198003E+04  0.7816531E-02  0.8519260E-01
         -2   -1    0    0    0  501 -0.00000000000E+00  0.00000000000E+00  0.54416931606E+03  0.54416931606E+03  0.00000000000E+00 0. -1.
          2   -1    0    0  501    0  0.00000000000E+00 -0.00000000000E+00 -0.22195372406E+04  0.22195372406E+04  0.00000000000E+00 0.  1.
    2000013    1    1    2    0    0  0.19079600643E+03  0.49597783620E+03 -0.10279876283E+04  0.14972159811E+04  0.95000000000E+03 0.  0.
   -2000013    1    1    2    0    0 -0.19079600643E+03 -0.49597783620E+03 -0.64738029624E+03  0.12664905756E+04  0.95000000000E+03 0.  0.
<mgrwt>
<rscale>  0 0.21980028E+04</rscale>
<asrwt>0</asrwt>
<pdfrwt beam="2">  1        2 0.34146727E+00 0.21980028E+04</pdfrwt>
<pdfrwt beam="1">  1       -2 0.83718356E-01 0.21980028E+04</pdfrwt>
<totfact> 0.57401355E+00</totfact>
</mgrwt>
</event>
<event>
 4    1  0.2482334E-008  0.3134945E+04  0.7816531E-02  0.8206213E-01
         -2   -1    0    0    0  501 -0.00000000000E+00  0.00000000000E+00  0.84169366087E+03  0.84169366087E+03  0.00000000000E+00 0. -1.
          2   -1    0    0  501    0  0.00000000000E+00 -0.00000000000E+00 -0.29190781139E+04  0.29190781139E+04  0.00000000000E+00 0.  1.
    2000013    1    1    2    0    0  0.71394713877E+03 -0.49783994094E+03  0.32210968842E+02  0.12888377207E+04  0.95000000000E+03 0.  0.
   -2000013    1    1    2    0    0 -0.71394713877E+03  0.49783994094E+03 -0.21095954219E+04  0.24719340541E+04  0.95000000000E+03 0.  0.
<mgrwt>
<rscale>  0 0.31349447E+04</rscale>
<asrwt>0</asrwt>
<pdfrwt beam="2">  1        2 0.44908893E+00 0.31349447E+04</pdfrwt>
<pdfrwt beam="1">  1       -2 0.12949133E+00 0.31349447E+04</pdfrwt>
<totfact> 0.72566184E-01</totfact>
</mgrwt>
</event>
<event>
 4    1  0.2482334E-008  0.3193731E+04  0.7816531E-02  0.8190475E-01
          2   -1    0    0  501    0  0.00000000000E+00  0.00000000000E+00  0.13340141122E+04  0.13340141122E+04  0.00000000000E+00 0.  1.
         -2   -1    0    0    0  501 -0.00000000000E+00 -0.00000000000E+00 -0.19115089732E+04  0.19115089732E+04  0.00000000000E+00 0. -1.
    2000013    1    1    2    0    0 -0.75068371353E+03 -0.96851560001E+03  0.99457242891E+02  0.15536860199E+04  0.95000000000E+03 0.  0.
   -2000013    1    1    2    0    0  0.75068371353E+03  0.96851560001E+03 -0.67695210397E+03  0.16918370655E+04  0.95000000000E+03 0.  0.
<mgrwt>
<rscale>  0 0.31937313E+04</rscale>
<asrwt>0</asrwt>
<pdfrwt beam="1">  1        2 0.20523294E+00 0.31937313E+04</pdfrwt>
<pdfrwt beam="2">  1       -2 0.29407830E+00 0.31937313E+04</pdfrwt>
<totfact> 0.45970740E-01</totfact>
</mgrwt>
</event>
<event>
 4    1  0.2482334E-008  0.2017660E+04  0.7816531E-02  0.8598408E-01
         -2   -1    0    0    0  501 -0.00000000000E+00  0.00000000000E+00  0.19470933423E+04  0.19470933423E+04  0.00000000000E+00 0. -1.
          2   -1    0    0  501    0  0.00000000000E+00 -0.00000000000E+00 -0.52269578780E+03  0.52269578780E+03  0.00000000000E+00 0.  1.
    2000013    1    1    2    0    0  0.32377189886E+03 -0.12687907073E+02  0.58827999860E+03  0.11634270851E+04  0.95000000000E+03 0.  0.
   -2000013    1    1    2    0    0 -0.32377189886E+03  0.12687907073E+02  0.83611755591E+03  0.13063620451E+04  0.95000000000E+03 0.  0.
<mgrwt>
<rscale>  0 0.20176595E+04</rscale>
<asrwt>0</asrwt>
<pdfrwt beam="2">  1        2 0.80414737E-01 0.20176595E+04</pdfrwt>
<pdfrwt beam="1">  1       -2 0.29955282E+00 0.20176595E+04</pdfrwt>
<totfact> 0.17364951E+00</totfact>
</mgrwt>
</event>
<event>
 4    1  0.2482334E-008  0.3592331E+04  0.7816531E-02  0.8092251E-01
         -2   -1    0    0    0  501 -0.00000000000E+00  0.00000000000E+00  0.10596381442E+04  0.10596381442E+04  0.00000000000E+00 0. -1.
          2   -1    0    0  501    0  0.00000000000E+00 -0.00000000000E+00 -0.30446336255E+04  0.30446336255E+04  0.00000000000E+00 0.  1.
    2000013    1    1    2    0    0 -0.74044984948E+03 -0.41819908868E+02  0.52909798346E+03  0.13162292963E+04  0.95000000000E+03 0.  0.
   -2000013    1    1    2    0    0  0.74044984948E+03  0.41819908868E+02 -0.25140934647E+04  0.27880424734E+04  0.95000000000E+03 0.  0.
<mgrwt>
<rscale>  0 0.35923307E+04</rscale>
<asrwt>0</asrwt>
<pdfrwt beam="2">  1        2 0.46840516E+00 0.35923307E+04</pdfrwt>
<pdfrwt beam="1">  1       -2 0.16302126E+00 0.35923307E+04</pdfrwt>
<totfact> 0.31829064E-01</totfact>
</mgrwt>
</event>
<event>
 4    1  0.2482334E-008  0.2312086E+04  0.7816531E-02  0.8473171E-01
         -2   -1    0    0    0  501 -0.00000000000E+00  0.00000000000E+00  0.52826849870E+03  0.52826849870E+03  0.00000000000E+00 0. -1.
          2   -1    0    0  501    0  0.00000000000E+00 -0.00000000000E+00 -0.25298415529E+04  0.25298415529E+04  0.00000000000E+00 0.  1.
    2000013    1    1    2    0    0  0.60180187242E+03  0.59112544569E+02 -0.65517952292E+03  0.13028507182E+04  0.95000000000E+03 0.  0.
   -2000013    1    1    2    0    0 -0.60180187242E+03 -0.59112544569E+02 -0.13463935313E+04  0.17552593335E+04  0.95000000000E+03 0.  0.
<mgrwt>
<rscale>  0 0.23120862E+04</rscale>
<asrwt>0</asrwt>
<pdfrwt beam="2">  1        2 0.38920638E+00 0.23120862E+04</pdfrwt>
<pdfrwt beam="1">  1       -2 0.81272079E-01 0.23120862E+04</pdfrwt>
<totfact> 0.40412377E+00</totfact>
</mgrwt>
</event>
<event>
 4    1  0.2482334E-008  0.2700201E+04  0.7816531E-02  0.8334940E-01
          2   -1    0    0  501    0  0.00000000000E+00  0.00000000000E+00  0.96663417551E+03  0.96663417551E+03  0.00000000000E+00 0.  1.
         -2   -1    0    0    0  501 -0.00000000000E+00 -0.00000000000E+00 -0.18856894875E+04  0.18856894875E+04  0.00000000000E+00 0. -1.
    2000013    1    1    2    0    0 -0.66782658502E+03  0.68777756898E+03 -0.42230662298E+03  0.14141687367E+04  0.95000000000E+03 0.  0.
   -2000013    1    1    2    0    0  0.66782658502E+03 -0.68777756898E+03 -0.49674868901E+03  0.14381549263E+04  0.95000000000E+03 0.  0.
<mgrwt>
<rscale>  0 0.27002014E+04</rscale>
<asrwt>0</asrwt>
<pdfrwt beam="1">  1        2 0.14871295E+00 0.27002014E+04</pdfrwt>
<pdfrwt beam="2">  1       -2 0.29010608E+00 0.27002014E+04</pdfrwt>
<totfact> 0.84858918E-01</totfact>
</mgrwt>
</event>
<event>
 4    1  0.2482334E-008  0.2682273E+04  0.7816531E-02  0.8340780E-01
          2   -1    0    0  501    0  0.00000000000E+00  0.00000000000E+00  0.93393199620E+03  0.93393199620E+03  0.00000000000E+00 0.  1.
         -2   -1    0    0    0  501 -0.00000000000E+00 -0.00000000000E+00 -0.19258867374E+04  0.19258867374E+04  0.00000000000E+00 0. -1.
    2000013    1    1    2    0    0  0.68984779948E+03 -0.64775051759E+03 -0.46824559740E+03  0.14202903432E+04  0.95000000000E+03 0.  0.
   -2000013    1    1    2    0    0 -0.68984779948E+03  0.64775051759E+03 -0.52370914381E+03  0.14395283904E+04  0.95000000000E+03 0.  0.
<mgrwt>
<rscale>  0 0.26822731E+04</rscale>
<asrwt>0</asrwt>
<pdfrwt beam="1">  1        2 0.14368185E+00 0.26822731E+04</pdfrwt>
<pdfrwt beam="2">  1       -2 0.29629026E+00 0.26822731E+04</pdfrwt>
<totfact> 0.81865591E-01</totfact>
</mgrwt>
</event>
<event>
 4    1  0.2482334E-008  0.2268998E+04  0.7816531E-02  0.8490246E-01
          2   -1    0    0  501    0  0.00000000000E+00  0.00000000000E+00  0.67027051873E+03  0.67027051873E+03  0.00000000000E+00 0.  1.
         -2   -1    0    0    0  501 -0.00000000000E+00 -0.00000000000E+00 -0.19202519236E+04  0.19202519236E+04  0.00000000000E+00 0. -1.
    2000013    1    1    2    0    0  0.31893756398E+03 -0.52912532737E+03 -0.68640405081E+03  0.13248944497E+04  0.95000000000E+03 0.  0.
   -2000013    1    1    2    0    0 -0.31893756398E+03  0.52912532737E+03 -0.56357735404E+03  0.12656279926E+04  0.95000000000E+03 0.  0.
<mgrwt>
<rscale>  0 0.22689982E+04</rscale>
<asrwt>0</asrwt>
<pdfrwt beam="1">  1        2 0.10311854E+00 0.22689982E+04</pdfrwt>
<pdfrwt beam="2">  1       -2 0.29542337E+00 0.22689982E+04</pdfrwt>
<totfact> 0.13339232E+00</totfact>
</mgrwt>
</event>
<event>
 4    1  0.2482334E-008  0.2446988E+04  0.7816531E-02  0.8422119E-01
          2   -1    0    0  501    0  0.00000000000E+00  0.00000000000E+00  0.31317166216E+04  0.31317166216E+04  0.00000000000E+00 0.  1.
         -2   -1    0    0    0  501 -0.00000000000E+00 -0.00000000000E+00 -0.47799267408E+03  0.47799267408E+03  0.00000000000E+00 0. -1.
    2000013    1    1    2    0    0 -0.45062695154E+03  0.52317234929E+03  0.18328748100E+04  0.21768564550E+04  0.95000000000E+03 0.  0.
   -2000013    1    1    2    0    0  0.45062695154E+03 -0.52317234929E+03  0.82084913754E+03  0.14328528407E+04  0.95000000000E+03 0.  0.
<mgrwt>
<rscale>  0 0.24469880E+04</rscale>
<asrwt>0</asrwt>
<pdfrwt beam="1">  1        2 0.48180254E+00 0.24469880E+04</pdfrwt>
<pdfrwt beam="2">  1       -2 0.73537336E-01 0.24469880E+04</pdfrwt>
<totfact> 0.21467550E+00</totfact>
</mgrwt>
</event>
<event>
 4    1  0.2482334E-008  0.2214776E+04  0.7816531E-02  0.8512303E-01
          2   -1    0    0  501    0  0.00000000000E+00  0.00000000000E+00  0.14892324050E+04  0.14892324050E+04  0.00000000000E+00 0.  1.
         -2   -1    0    0    0  501 -0.00000000000E+00 -0.00000000000E+00 -0.82344971325E+03  0.82344971325E+03  0.00000000000E+00 0. -1.
    2000013    1    1    2    0    0  0.24034446643E+03 -0.15054335743E+03  0.84803449037E+03  0.13046421969E+04  0.95000000000E+03 0.  0.
   -2000013    1    1    2    0    0 -0.24034446643E+03  0.15054335743E+03 -0.18225179861E+03  0.10080399214E+04  0.95000000000E+03 0.  0.
<mgrwt>
<rscale>  0 0.22147758E+04</rscale>
<asrwt>0</asrwt>
<pdfrwt beam="1">  1        2 0.22911268E+00 0.22147758E+04</pdfrwt>
<pdfrwt beam="2">  1       -2 0.12668457E+00 0.22147758E+04</pdfrwt>
<totfact> 0.54493233E+00</totfact>
</mgrwt>
</event>
<event>
 4    1  0.2482334E-008  0.3559695E+04  0.7816531E-02  0.8099787E-01
         -2   -1    0    0    0  501 -0.00000000000E+00  0.00000000000E+00  0.18226513079E+04  0.18226513079E+04  0.00000000000E+00 0. -1.
          2   -1    0    0  501    0  0.00000000000E+00 -0.00000000000E+00 -0.17380491105E+04  0.17380491105E+04  0.00000000000E+00 0.  1.
    2000013    1    1    2    0    0 -0.78285122393E+02  0.11399005573E+04 -0.93769779090E+03  0.17570654479E+04  0.95000000000E+03 0.  0.
   -2000013    1    1    2    0    0  0.78285122393E+02 -0.11399005573E+04  0.10222999883E+04  0.18036349706E+04  0.95000000000E+03 0.  0.
<mgrwt>
<rscale>  0 0.35596952E+04</rscale>
<asrwt>0</asrwt>
<pdfrwt beam="2">  1        2 0.26739217E+00 0.35596952E+04</pdfrwt>
<pdfrwt beam="1">  1       -2 0.28040789E+00 0.35596952E+04</pdfrwt>
<totfact> 0.31980866E-01</totfact>
</mgrwt>
</event>
<event>
 4    1  0.2482334E-008  0.3224804E+04  0.7816531E-02  0.8182297E-01
         -2   -1    0    0    0  501 -0.00000000000E+00  0.00000000000E+00  0.12603197118E+04  0.12603197118E+04  0.00000000000E+00 0.  1.
          2   -1    0    0  501    0  0.00000000000E+00 -0.00000000000E+00 -0.20628414925E+04  0.20628414925E+04  0.00000000000E+00 0. -1.
    2000013    1    1    2    0    0 -0.51457135912E+03 -0.11944771659E+04 -0.47960881650E+03  0.16805011159E+04  0.95000000000E+03 0.  0.
   -2000013    1    1    2    0    0  0.51457135912E+03  0.11944771659E+04 -0.32291296427E+03  0.16426600884E+04  0.95000000000E+03 0.  0.
<mgrwt>
<rscale>  0 0.32248037E+04</rscale>
<asrwt>0</asrwt>
<pdfrwt beam="2">  1        2 0.31736023E+00 0.32248037E+04</pdfrwt>
<pdfrwt beam="1">  1       -2 0.19389534E+00 0.32248037E+04</pdfrwt>
<totfact> 0.75609782E-01</totfact>
</mgrwt>
</event>
<event>
 4    1  0.2482334E-008  0.1990332E+04  0.7816531E-02  0.8611154E-01
         -2   -1    0    0    0  501 -0.00000000000E+00  0.00000000000E+00  0.27764363852E+03  0.27764363852E+03  0.00000000000E+00 0. -1.
          2   -1    0    0  501    0  0.00000000000E+00 -0.00000000000E+00 -0.35670000564E+04  0.35670000564E+04  0.00000000000E+00 0.  1.
    2000013    1    1    2    0    0  0.11070693863E+03  0.26038708919E+03 -0.14741069263E+04  0.17763864142E+04  0.95000000000E+03 0.  0.
   -2000013    1    1    2    0    0 -0.11070693863E+03 -0.26038708919E+03 -0.18152494916E+04  0.20682572807E+04  0.95000000000E+03 0.  0.
<mgrwt>
<rscale>  0 0.19903315E+04</rscale>
<asrwt>0</asrwt>
<pdfrwt beam="2">  1        2 0.54876923E+00 0.19903315E+04</pdfrwt>
<pdfrwt beam="1">  1       -2 0.42714406E-01 0.19903315E+04</pdfrwt>
<totfact> 0.35442273E+00</totfact>
</mgrwt>
</event>
<event>
 4    1  0.2482334E-008  0.3575649E+04  0.7816531E-02  0.8096092E-01
          2   -1    0    0  501    0  0.00000000000E+00  0.00000000000E+00  0.10828217762E+04  0.10828217762E+04  0.00000000000E+00 0.  1.
         -2   -1    0    0    0  501 -0.00000000000E+00 -0.00000000000E+00 -0.29518403421E+04  0.29518403421E+04  0.00000000000E+00 0. -1.
    2000013    1    1    2    0    0 -0.41942829057E+02 -0.14894039509E+04 -0.12409067604E+04  0.21592667547E+04  0.95000000000E+03 0.  0.
   -2000013    1    1    2    0    0  0.41942829057E+02  0.14894039509E+04 -0.62811180550E+03  0.18753953636E+04  0.95000000000E+03 0.  0.
<mgrwt>
<rscale>  0 0.35756493E+04</rscale>
<asrwt>0</asrwt>
<pdfrwt beam="1">  1        2 0.16658797E+00 0.35756493E+04</pdfrwt>
<pdfrwt beam="2">  1       -2 0.45412928E+00 0.35756493E+04</pdfrwt>
<totfact> 0.59375428E-02</totfact>
</mgrwt>
</event>
<event>
 4    1  0.2482334E-008  0.2609823E+04  0.7816531E-02  0.8364872E-01
         -1   -1    0    0    0  501 -0.00000000000E+00  0.00000000000E+00  0.26577614948E+04  0.26577614948E+04  0.00000000000E+00 0. -1.
          1   -1    0    0  501    0  0.00000000000E+00 -0.00000000000E+00 -0.64068746128E+03  0.64068746128E+03  0.00000000000E+00 0.  1.
    2000013    1    1    2    0    0  0.88852518928E+03 -0.57889816889E+02  0.89933036184E+03  0.15824422083E+04  0.95000000000E+03 0.  0.
   -2000013    1    1    2    0    0 -0.88852518928E+03  0.57889816889E+02  0.11177436717E+04  0.17160067478E+04  0.95000000000E+03 0.  0.
<mgrwt>
<rscale>  0 0.26098233E+04</rscale>
<asrwt>0</asrwt>
<pdfrwt beam="2">  1        1 0.98567303E-01 0.26098233E+04</pdfrwt>
<pdfrwt beam="1">  1       -1 0.40888638E+00 0.26098233E+04</pdfrwt>
<totfact> 0.17019896E-01</totfact>
</mgrwt>
</event>
<event>
 4    1  0.2482334E-008  0.2395690E+04  0.7816531E-02  0.8441119E-01
          2   -1    0    0  501    0  0.00000000000E+00  0.00000000000E+00  0.33112309665E+04  0.33112309665E+04  0.00000000000E+00 0.  1.
         -2   -1    0    0    0  501 -0.00000000000E+00 -0.00000000000E+00 -0.43332310755E+03  0.43332310755E+03  0.00000000000E+00 0. -1.
    2000013    1    1    2    0    0 -0.35642129499E+03  0.47209527057E+03  0.21065426916E+04  0.23853578758E+04  0.95000000000E+03 0.  0.
   -2000013    1    1    2    0    0  0.35642129499E+03 -0.47209527057E+03  0.77136516736E+03  0.13591961983E+04  0.95000000000E+03 0.  0.
<mgrwt>
<rscale>  0 0.23956902E+04</rscale>
<asrwt>0</asrwt>
<pdfrwt beam="1">  1        2 0.50942013E+00 0.23956902E+04</pdfrwt>
<pdfrwt beam="2">  1       -2 0.66665096E-01 0.23956902E+04</pdfrwt>
<totfact> 0.20383686E+00</totfact>
</mgrwt>
</event>
<event>
 4    1  0.2482334E-008  0.2680209E+04  0.7816531E-02  0.8341455E-01
          2   -1    0    0  501    0  0.00000000000E+00  0.00000000000E+00  0.20799479264E+04  0.20799479264E+04  0.00000000000E+00 0.  1.
         -2   -1    0    0    0  501 -0.00000000000E+00 -0.00000000000E+00 -0.86342566423E+03  0.86342566423E+03  0.00000000000E+00 0. -1.
    2000013    1    1    2    0    0 -0.90376688684E+03  0.22530898206E+03  0.78473039485E+03  0.15446230983E+04  0.95000000000E+03 0.  0.
   -2000013    1    1    2    0    0  0.90376688684E+03 -0.22530898206E+03  0.43179186730E+03  0.13987504923E+04  0.95000000000E+03 0.  0.
<mgrwt>
<rscale>  0 0.26802093E+04</rscale>
<asrwt>0</asrwt>
<pdfrwt beam="1">  1        2 0.31999199E+00 0.26802093E+04</pdfrwt>
<pdfrwt beam="2">  1       -2 0.13283472E+00 0.26802093E+04</pdfrwt>
<totfact> 0.21782904E+00</totfact>
</mgrwt>
</event>
<event>
 4    1  0.2482334E-008  0.3088719E+04  0.7816531E-02  0.8218841E-01
          2   -1    0    0  501    0  0.00000000000E+00  0.00000000000E+00  0.16066548842E+04  0.16066548842E+04  0.00000000000E+00 0.  1.
         -2   -1    0    0    0  501 -0.00000000000E+00 -0.00000000000E+00 -0.14844798871E+04  0.14844798871E+04  0.00000000000E+00 0. -1.
    2000013    1    1    2    0    0 -0.33722575475E+03 -0.10530802893E+04 -0.44906357447E+03  0.15254040118E+04  0.95000000000E+03 0.  0.
   -2000013    1    1    2    0    0  0.33722575475E+03  0.10530802893E+04  0.57123857156E+03  0.15657307594E+04  0.95000000000E+03 0.  0.
<mgrwt>
<rscale>  0 0.30887194E+04</rscale>
<asrwt>0</asrwt>
<pdfrwt beam="1">  1        2 0.24717767E+00 0.30887194E+04</pdfrwt>
<pdfrwt beam="2">  1       -2 0.22838152E+00 0.30887194E+04</pdfrwt>
<totfact> 0.82238944E-01</totfact>
</mgrwt>
</event>
<event>
 4    1  0.2482334E-008  0.3096259E+04  0.7816531E-02  0.8216765E-01
         -2   -1    0    0    0  501 -0.00000000000E+00  0.00000000000E+00  0.92132936794E+03  0.92132936794E+03  0.00000000000E+00 0. -1.
          2   -1    0    0  501    0  0.00000000000E+00 -0.00000000000E+00 -0.26013554186E+04  0.26013554186E+04  0.00000000000E+00 0.  1.
    2000013    1    1    2    0    0 -0.22248891272E+03  0.11217424382E+04 -0.13312112555E+04  0.19956028715E+04  0.95000000000E+03 0.  0.
   -2000013    1    1    2    0    0  0.22248891272E+03 -0.11217424382E+04 -0.34881479521E+03  0.15270819151E+04  0.95000000000E+03 0.  0.
<mgrwt>
<rscale>  0 0.30962591E+04</rscale>
<asrwt>0</asrwt>
<pdfrwt beam="2">  1        2 0.40020853E+00 0.30962591E+04</pdfrwt>
<pdfrwt beam="1">  1       -2 0.14174298E+00 0.30962591E+04</pdfrwt>
<totfact> 0.89691191E-01</totfact>
</mgrwt>
</event>
<event>
 4    1  0.2482334E-008  0.2621185E+04  0.7816531E-02  0.8361040E-01
         -2   -1    0    0    0  501 -0.00000000000E+00  0.00000000000E+00  0.98467542770E+03  0.98467542770E+03  0.00000000000E+00 0. -1.
          2   -1    0    0  501    0  0.00000000000E+00 -0.00000000000E+00 -0.17443851191E+04  0.17443851191E+04  0.00000000000E+00 0.  1.
    2000013    1    1    2    0    0 -0.53612161335E+03 -0.51416258945E+03 -0.91416487018E+03  0.15132702873E+04  0.95000000000E+03 0.  0.
   -2000013    1    1    2    0    0  0.53612161335E+03  0.51416258945E+03  0.15445517880E+03  0.12157902594E+04  0.95000000000E+03 0.  0.
<mgrwt>
<rscale>  0 0.26211854E+04</rscale>
<asrwt>0</asrwt>
<pdfrwt beam="2">  1        2 0.26836694E+00 0.26211854E+04</pdfrwt>
<pdfrwt beam="1">  1       -2 0.15148853E+00 0.26211854E+04</pdfrwt>
<totfact> 0.23880723E+00</totfact>
</mgrwt>
</event>
<event>
 4    1  0.2482334E-008  0.2339791E+04  0.7816531E-02  0.8462395E-01
          2   -1    0    0  501    0  0.00000000000E+00  0.00000000000E+00  0.16930502897E+04  0.16930502897E+04  0.00000000000E+00 0.  1.
         -2   -1    0    0    0  501 -0.00000000000E+00 -0.00000000000E+00 -0.80839617358E+03  0.80839617358E+03  0.00000000000E+00 0. -1.
    2000013    1    1    2    0    0 -0.41004134818E+03  0.54316632745E+03  0.50080352469E+03  0.12714038449E+04  0.95000000000E+03 0.  0.
   -2000013    1    1    2    0    0  0.41004134818E+03 -0.54316632745E+03  0.38385059143E+03  0.12300426184E+04  0.95000000000E+03 0.  0.
<mgrwt>
<rscale>  0 0.23397909E+04</rscale>
<asrwt>0</asrwt>
<pdfrwt beam="1">  1        2 0.26046927E+00 0.23397909E+04</pdfrwt>
<pdfrwt beam="2">  1       -2 0.12436864E+00 0.23397909E+04</pdfrwt>
<totfact> 0.43427071E+00</totfact>
</mgrwt>
</event>
<event>
 4    1  0.2482334E-008  0.2482648E+04  0.7816531E-02  0.8409194E-01
         -2   -1    0    0    0  501 -0.00000000000E+00  0.00000000000E+00  0.27843267657E+04  0.27843267657E+04  0.00000000000E+00 0. -1.
          2   -1    0    0  501    0  0.00000000000E+00 -0.00000000000E+00 -0.55341375867E+03  0.55341375867E+03  0.00000000000E+00 0.  1.
    2000013    1    1    2    0    0 -0.56950312346E+03  0.39507230546E+03  0.16498032475E+04  0.20260223813E+04  0.95000000000E+03 0.  0.
   -2000013    1    1    2    0    0  0.56950312346E+03 -0.39507230546E+03  0.58110975953E+03  0.13117181430E+04  0.95000000000E+03 0.  0.
<mgrwt>
<rscale>  0 0.24826476E+04</rscale>
<asrwt>0</asrwt>
<pdfrwt beam="2">  1        2 0.85140580E-01 0.24826476E+04</pdfrwt>
<pdfrwt beam="1">  1       -2 0.42835796E+00 0.24826476E+04</pdfrwt>
<totfact> 0.23561696E-01</totfact>
</mgrwt>
</event>
<event>
 4    1  0.2482334E-008  0.3310314E+04  0.7816531E-02  0.8160276E-01
          2   -1    0    0  501    0  0.00000000000E+00  0.00000000000E+00  0.35169590901E+04  0.35169590901E+04  0.00000000000E+00 0.  1.
         -2   -1    0    0    0  501 -0.00000000000E+00 -0.00000000000E+00 -0.77895250841E+03  0.77895250841E+03  0.00000000000E+00 0. -1.
    2000013    1    1    2    0    0 -0.57587113880E+03 -0.68997738821E+03  0.26856439111E+04  0.29871189434E+04  0.95000000000E+03 0.  0.
   -2000013    1    1    2    0    0  0.57587113880E+03  0.68997738821E+03  0.52362670555E+02  0.13087926551E+04  0.95000000000E+03 0.  0.
<mgrwt>
<rscale>  0 0.33103136E+04</rscale>
<asrwt>0</asrwt>
<pdfrwt beam="1">  1        2 0.54107062E+00 0.33103136E+04</pdfrwt>
<pdfrwt beam="2">  1       -2 0.11983885E+00 0.33103136E+04</pdfrwt>
<totfact> 0.35117069E-01</totfact>
</mgrwt>
</event>
<event>
 4    1  0.2482334E-008  0.2130016E+04  0.7816531E-02  0.8548135E-01
          2   -1    0    0  501    0  0.00000000000E+00  0.00000000000E+00  0.25869060976E+04  0.25869060976E+04  0.00000000000E+00 0.  1.
         -2   -1    0    0    0  501 -0.00000000000E+00 -0.00000000000E+00 -0.43845515377E+03  0.43845515377E+03  0.00000000000E+00 0. -1.
    2000013    1    1    2    0    0 -0.44970958613E+03  0.13815639064E+03  0.92926373963E+03  0.14097364995E+04  0.95000000000E+03 0.  0.
   -2000013    1    1    2    0    0  0.44970958613E+03 -0.13815639064E+03  0.12191872042E+04  0.16156247520E+04  0.95000000000E+03 0.  0.
<mgrwt>
<rscale>  0 0.21300163E+04</rscale>
<asrwt>0</asrwt>
<pdfrwt beam="1">  1        2 0.39798554E+00 0.21300163E+04</pdfrwt>
<pdfrwt beam="2">  1       -2 0.67454641E-01 0.21300163E+04</pdfrwt>
<totfact> 0.57404777E+00</totfact>
</mgrwt>
</event>
<event>
 4    1  0.2482334E-008  0.2402195E+04  0.7816531E-02  0.8438682E-01
          1   -1    0    0  501    0  0.00000000000E+00  0.00000000000E+00  0.13872189479E+04  0.13872189479E+04  0.00000000000E+00 0. -1.
         -1   -1    0    0    0  501 -0.00000000000E+00 -0.00000000000E+00 -0.10399478055E+04  0.10399478055E+04  0.00000000000E+00 0.  1.
    2000013    1    1    2    0    0  0.13599817739E+03  0.50511926474E+03 -0.34796171579E+03  0.11389549295E+04  0.95000000000E+03 0.  0.
   -2000013    1    1    2    0    0 -0.13599817739E+03 -0.50511926474E+03  0.69523285822E+03  0.12882118238E+04  0.95000000000E+03 0.  0.
<mgrwt>
<rscale>  0 0.24021951E+04</rscale>
<asrwt>0</asrwt>
<pdfrwt beam="1">  1        1 0.21341830E+00 0.24021951E+04</pdfrwt>
<pdfrwt beam="2">  1       -1 0.15999197E+00 0.24021951E+04</pdfrwt>
<totfact> 0.20541475E+00</totfact>
</mgrwt>
</event>
<event>
 4    1  0.2482334E-008  0.2961275E+04  0.7816531E-02  0.8254876E-01
         -2   -1    0    0    0  501 -0.00000000000E+00  0.00000000000E+00  0.93909696300E+03  0.93909696300E+03  0.00000000000E+00 0.  1.
          2   -1    0    0  501    0  0.00000000000E+00 -0.00000000000E+00 -0.23344633801E+04  0.23344633801E+04  0.00000000000E+00 0. -1.
    2000013    1    1    2    0    0 -0.42558418069E+02  0.11339600296E+04 -0.64689349804E+03  0.16151308818E+04  0.95000000000E+03 0.  0.
   -2000013    1    1    2    0    0  0.42558418069E+02 -0.11339600296E+04 -0.74847291910E+03  0.16584294613E+04  0.95000000000E+03 0.  0.
<mgrwt>
<rscale>  0 0.29612750E+04</rscale>
<asrwt>0</asrwt>
<pdfrwt beam="2">  1        2 0.35914821E+00 0.29612750E+04</pdfrwt>
<pdfrwt beam="1">  1       -2 0.14447646E+00 0.29612750E+04</pdfrwt>
<totfact> 0.12309282E+00</totfact>
</mgrwt>
</event>
<event>
 4    1  0.2482334E-008  0.2164447E+04  0.7816531E-02  0.8533373E-01
          2   -1    0    0  501    0  0.00000000000E+00  0.00000000000E+00  0.10668989626E+04  0.10668989626E+04  0.00000000000E+00 0.  1.
         -2   -1    0    0    0  501 -0.00000000000E+00 -0.00000000000E+00 -0.10977686045E+04  0.10977686045E+04  0.00000000000E+00 0. -1.
    2000013    1    1    2    0    0 -0.40714607709E+03  0.17168417120E+03 -0.28650629857E+03  0.10861994485E+04  0.95000000000E+03 0.  0.
   -2000013    1    1    2    0    0  0.40714607709E+03 -0.17168417120E+03  0.25563665658E+03  0.10784681186E+04  0.95000000000E+03 0.  0.
<mgrwt>
<rscale>  0 0.21644474E+04</rscale>
<asrwt>0</asrwt>
<pdfrwt beam="1">  1        2 0.16413830E+00 0.21644474E+04</pdfrwt>
<pdfrwt beam="2">  1       -2 0.16888748E+00 0.21644474E+04</pdfrwt>
<totfact> 0.45450748E+00</totfact>
</mgrwt>
</event>
<event>
 4    1  0.2482334E-008  0.2185699E+04  0.7816531E-02  0.8524404E-01
         -2   -1    0    0    0  501 -0.00000000000E+00  0.00000000000E+00  0.34601064409E+03  0.34601064409E+03  0.00000000000E+00 0. -1.
          2   -1    0    0  501    0  0.00000000000E+00 -0.00000000000E+00 -0.34516865765E+04  0.34516865765E+04  0.00000000000E+00 0.  1.
    2000013    1    1    2    0    0 -0.33641229622E+03  0.36659110048E+03 -0.11873054953E+04  0.15999239380E+04  0.95000000000E+03 0.  0.
   -2000013    1    1    2    0    0  0.33641229622E+03 -0.36659110048E+03 -0.19183704371E+04  0.21977732827E+04  0.95000000000E+03 0.  0.
<mgrwt>
<rscale>  0 0.21856992E+04</rscale>
<asrwt>0</asrwt>
<pdfrwt beam="2">  1        2 0.53102870E+00 0.21856992E+04</pdfrwt>
<pdfrwt beam="1">  1       -2 0.53232407E-01 0.21856992E+04</pdfrwt>
<totfact> 0.26836103E+00</totfact>
</mgrwt>
</event>
<event>
 4    1  0.2482334E-008  0.2507283E+04  0.7816531E-02  0.8400396E-01
         -2   -1    0    0    0  501 -0.00000000000E+00  0.00000000000E+00  0.42681324566E+03  0.42681324566E+03  0.00000000000E+00 0. -1.
          2   -1    0    0  501    0  0.00000000000E+00 -0.00000000000E+00 -0.36822115450E+04  0.36822115450E+04  0.00000000000E+00 0.  1.
    2000013    1    1    2    0    0 -0.25074066499E+03 -0.75233194112E+03 -0.19564580752E+04  0.23149735270E+04  0.95000000000E+03 0.  0.
   -2000013    1    1    2    0    0  0.25074066499E+03  0.75233194112E+03 -0.12989402241E+04  0.17940512636E+04  0.95000000000E+03 0.  0.
<mgrwt>
<rscale>  0 0.25072827E+04</rscale>
<asrwt>0</asrwt>
<pdfrwt beam="2">  1        2 0.56649410E+00 0.25072827E+04</pdfrwt>
<pdfrwt beam="1">  1       -2 0.65663574E-01 0.25072827E+04</pdfrwt>
<totfact> 0.11475212E+00</totfact>
</mgrwt>
</event>
<event>
 4    1  0.2482334E-008  0.2541153E+04  0.7816531E-02  0.8388469E-01
         -2   -1    0    0    0  501 -0.00000000000E+00  0.00000000000E+00  0.12008023185E+04  0.12008023185E+04  0.00000000000E+00 0. -1.
          2   -1    0    0  501    0  0.00000000000E+00 -0.00000000000E+00 -0.13444052912E+04  0.13444052912E+04  0.00000000000E+00 0.  1.
    2000013    1    1    2    0    0 -0.12047860848E+03 -0.59768678470E+03  0.51232741465E+03  0.12396467108E+04  0.95000000000E+03 0.  0.
   -2000013    1    1    2    0    0  0.12047860848E+03  0.59768678470E+03 -0.65593038741E+03  0.13055608989E+04  0.95000000000E+03 0.  0.
<mgrwt>
<rscale>  0 0.25411533E+04</rscale>
<asrwt>0</asrwt>
<pdfrwt beam="2">  1        2 0.20683158E+00 0.25411533E+04</pdfrwt>
<pdfrwt beam="1">  1       -2 0.18473882E+00 0.25411533E+04</pdfrwt>
<totfact> 0.23296928E+00</totfact>
</mgrwt>
</event>
<event>
 4    1  0.2482334E-008  0.3762367E+04  0.7816531E-02  0.8054279E-01
         -2   -1    0    0    0  501 -0.00000000000E+00  0.00000000000E+00  0.10555931045E+04  0.10555931045E+04  0.00000000000E+00 0. -1.
          2   -1    0    0  501    0  0.00000000000E+00 -0.00000000000E+00 -0.33524769770E+04  0.33524769770E+04  0.00000000000E+00 0.  1.
    2000013    1    1    2    0    0 -0.16205809283E+04 -0.60953026067E+02 -0.10550514064E+04  0.21553726561E+04  0.95000000000E+03 0.  0.
   -2000013    1    1    2    0    0  0.16205809283E+04  0.60953026067E+02 -0.12418324661E+04  0.22526974254E+04  0.95000000000E+03 0.  0.
<mgrwt>
<rscale>  0 0.37623671E+04</rscale>
<asrwt>0</asrwt>
<pdfrwt beam="2">  1        2 0.51576568E+00 0.37623671E+04</pdfrwt>
<pdfrwt beam="1">  1       -2 0.16239894E+00 0.37623671E+04</pdfrwt>
<totfact> 0.19949557E-01</totfact>
</mgrwt>
</event>
<event>
 4    1  0.2482334E-008  0.3283703E+04  0.7816531E-02  0.8167055E-01
         -2   -1    0    0    0  501 -0.00000000000E+00  0.00000000000E+00  0.10050711048E+04  0.10050711048E+04  0.00000000000E+00 0. -1.
          2   -1    0    0  501    0  0.00000000000E+00 -0.00000000000E+00 -0.26820752451E+04  0.26820752451E+04  0.00000000000E+00 0.  1.
    2000013    1    1    2    0    0  0.72778546242E+03  0.10996256597E+04 -0.57678105114E+03  0.17245360685E+04  0.95000000000E+03 0.  0.
   -2000013    1    1    2    0    0 -0.72778546242E+03 -0.10996256597E+04 -0.11002230891E+04  0.19626102814E+04  0.95000000000E+03 0.  0.
<mgrwt>
<rscale>  0 0.32837030E+04</rscale>
<asrwt>0</asrwt>
<pdfrwt beam="2">  1        2 0.41262696E+00 0.32837030E+04</pdfrwt>
<pdfrwt beam="1">  1       -2 0.15462632E+00 0.32837030E+04</pdfrwt>
<totfact> 0.62868304E-01</totfact>
</mgrwt>
</event>
<event>
 4    1  0.2482334E-008  0.2144388E+04  0.7816531E-02  0.8541938E-01
         -2   -1    0    0    0  501 -0.00000000000E+00  0.00000000000E+00  0.31585615100E+03  0.31585615100E+03  0.00000000000E+00 0. -1.
          2   -1    0    0  501    0  0.00000000000E+00 -0.00000000000E+00 -0.36396310939E+04  0.36396310939E+04  0.00000000000E+00 0.  1.
    2000013    1    1    2    0    0 -0.27928104576E+03 -0.34619564555E+03 -0.12525305460E+04  0.16337631702E+04  0.95000000000E+03 0.  0.
   -2000013    1    1    2    0    0  0.27928104576E+03  0.34619564555E+03 -0.20712443970E+04  0.23217240748E+04  0.95000000000E+03 0.  0.
<mgrwt>
<rscale>  0 0.21443879E+04</rscale>
<asrwt>0</asrwt>
<pdfrwt beam="2">  1        2 0.55994326E+00 0.21443879E+04</pdfrwt>
<pdfrwt beam="1">  1       -2 0.48593253E-01 0.21443879E+04</pdfrwt>
<totfact> 0.23922636E+00</totfact>
</mgrwt>
</event>
<event>
 4    1  0.2482334E-008  0.3001251E+04  0.7816531E-02  0.8243374E-01
         -1   -1    0    0    0  501 -0.00000000000E+00  0.00000000000E+00  0.86348622148E+03  0.86348622148E+03  0.00000000000E+00 0. -1.
          1   -1    0    0  501    0  0.00000000000E+00 -0.00000000000E+00 -0.26078893042E+04  0.26078893042E+04  0.00000000000E+00 0.  1.
    2000013    1    1    2    0    0 -0.11312140717E+04 -0.23390298158E+03 -0.73044504584E+03  0.16644536178E+04  0.95000000000E+03 0.  0.
   -2000013    1    1    2    0    0  0.11312140717E+04  0.23390298158E+03 -0.10139580369E+04  0.18069219079E+04  0.95000000000E+03 0.  0.
<mgrwt>
<rscale>  0 0.30012507E+04</rscale>
<asrwt>0</asrwt>
<pdfrwt beam="2">  1        1 0.40121374E+00 0.30012507E+04</pdfrwt>
<pdfrwt beam="1">  1       -1 0.13284403E+00 0.30012507E+04</pdfrwt>
<totfact> 0.46513870E-01</totfact>
</mgrwt>
</event>
